<event>
 6    1  0.1780144E-005  0.3068971E+04  0.7818608E-02  0.8224306E-01
          1   -1    0    0  501    0  0.00000000000E+00  0.00000000000E+00  0.14090282042E+04  0.14090282042E+04  0.00000000000E+00 0. -1.
         -1   -1    0    0    0  501 -0.00000000000E+00 -0.00000000000E+00 -0.16711127601E+04  0.16711127601E+04  0.00000000000E+00 0.  1.
         23    2    1    2    0    0  0.59427307268E+02 -0.11151764843E+04  0.92307739423E+03  0.14517187082E+04  0.90912793112E+02 0.  0.
         13    1    3    3    0    0  0.45475459382E+02 -0.56520722622E+03  0.52391112136E+03  0.77201689688E+03  0.00000000000E+00 0. -1.
        -13    1    3    3    0    0  0.13951847886E+02 -0.54996925807E+03  0.39916627288E+03  0.67970181130E+03  0.00000000000E+00 0.  1.
         22    1    1    2    0    0 -0.59427307268E+02  0.11151764843E+04 -0.11851619501E+04  0.16284222560E+04  0.00000000000E+00 0.  1.
<mgrwt>
<rscale>  0 0.30689705E+04</rscale>
<asrwt>0</asrwt>
<pdfrwt beam="1">  1        1 0.21677357E+00 0.30689705E+04</pdfrwt>
<pdfrwt beam="2">  1       -1 0.25709427E+00 0.30689705E+04</pdfrwt>
<totfact> 0.40145584E-01</totfact>
</mgrwt>
</event>
<event>
 6    1  0.1780144E-005  0.8855070E+03  0.7818608E-02  0.9443882E-01
          2   -1    0    0  501    0  0.00000000000E+00  0.00000000000E+00  0.17929926358E+03  0.17929926358E+03  0.00000000000E+00 0. -1.
         -2   -1    0    0    0  501 -0.00000000000E+00 -0.00000000000E+00 -0.10933153680E+04  0.10933153680E+04  0.00000000000E+00 0.  1.
         23    2    1    2    0    0  0.17316367743E+03 -0.39485762419E+03 -0.57472698367E+03  0.72396600995E+03  0.88980195727E+02 0.  0.
         11    1    3    3    0    0  0.17130585188E+03 -0.30265818527E+03 -0.44411680874E+03  0.56408103301E+03  0.00000000000E+00 0. -1.
        -11    1    3    3    0    0  0.18578255543E+01 -0.92199438924E+02 -0.13061017493E+03  0.15988497693E+03  0.00000000000E+00 0.  1.
         22    1    1    2    0    0 -0.17316367743E+03  0.39485762419E+03 -0.33928912074E+03  0.54864862163E+03  0.00000000000E+00 0.  1.
<mgrwt>
<rscale>  0 0.88550695E+03</rscale>
<asrwt>0</asrwt>
<pdfrwt beam="1">  1        2 0.27584502E-01 0.88550695E+03</pdfrwt>
<pdfrwt beam="2">  1       -2 0.16820237E+00 0.88550695E+03</pdfrwt>
<totfact> 0.43192244E+01</totfact>
</mgrwt>
</event>
<event>
 6    1  0.1780144E-005  0.5326086E+03  0.7818608E-02  0.1005601E+00
          2   -1    0    0  501    0  0.00000000000E+00  0.00000000000E+00  0.68305624294E+03  0.68305624294E+03  0.00000000000E+00 0. -1.
         -2   -1    0    0    0  501 -0.00000000000E+00 -0.00000000000E+00 -0.10382450402E+03  0.10382450402E+03  0.00000000000E+00 0.  1.
         23    2    1    2    0    0  0.15134937603E+03 -0.20237981005E+03  0.37997230625E+03  0.46506007851E+03  0.89653231781E+02 0.  0.
         13    1    3    3    0    0  0.45852623893E+02 -0.12283638142E+03  0.23356162089E+03  0.26784747613E+03  0.00000000000E+00 0.  1.
        -13    1    3    3    0    0  0.10549675214E+03 -0.79543428626E+02  0.14641068536E+03  0.19721260237E+03  0.00000000000E+00 0. -1.
         22    1    1    2    0    0 -0.15134937603E+03  0.20237981005E+03  0.19925943267E+03  0.32182066846E+03  0.00000000000E+00 0. -1.
<mgrwt>
<rscale>  0 0.53260858E+03</rscale>
<asrwt>0</asrwt>
<pdfrwt beam="1">  1        2 0.10508557E+00 0.53260858E+03</pdfrwt>
<pdfrwt beam="2">  1       -2 0.15973001E-01 0.53260858E+03</pdfrwt>
<totfact> 0.13337790E+03</totfact>
</mgrwt>
</event>
<event>
 6    1  0.1780144E-005  0.3877617E+04  0.7818608E-02  0.8029701E-01
          2   -1    0    0  501    0  0.00000000000E+00  0.00000000000E+00  0.14364199018E+04  0.14364199018E+04  0.00000000000E+00 0. -1.
         -2   -1    0    0    0  501 -0.00000000000E+00 -0.00000000000E+00 -0.26169072466E+04  0.26169072466E+04  0.00000000000E+00 0.  1.
         23    2    1    2    0    0  0.19245247616E+04 -0.15270703308E+03 -0.41265212405E+03  0.19756635755E+04  0.76483934651E+02 0.  0.
         11    1    3    3    0    0  0.99064801830E+03 -0.56649989641E+02 -0.17998401312E+03  0.10084577148E+04  0.00000000000E+00 0. -1.
        -11    1    3    3    0    0  0.93387674325E+03 -0.96057043436E+02 -0.23266811093E+03  0.96720586073E+03  0.00000000000E+00 0.  1.
         22    1    1    2    0    0 -0.19245247616E+04  0.15270703308E+03 -0.76783522072E+03  0.20776635729E+04  0.00000000000E+00 0.  1.
<mgrwt>
<rscale>  0 0.38776166E+04</rscale>
<asrwt>0</asrwt>
<pdfrwt beam="1">  1        2 0.22098768E+00 0.38776166E+04</pdfrwt>
<pdfrwt beam="2">  1       -2 0.40260111E+00 0.38776166E+04</pdfrwt>
<totfact> 0.78385590E-02</totfact>
</mgrwt>
</event>
<event>
 6    1  0.1780144E-005  0.3114919E+04  0.7818608E-02  0.8211655E-01
         -1   -1    0    0    0  501 -0.00000000000E+00  0.00000000000E+00  0.13089699281E+04  0.13089699281E+04  0.00000000000E+00 0.  1.
          1   -1    0    0  501    0  0.00000000000E+00 -0.00000000000E+00 -0.18531217911E+04  0.18531217911E+04  0.00000000000E+00 0. -1.
         23    2    1    2    0    0  0.12146506460E+04 -0.43199866709E+02 -0.12587364561E+04  0.17521720189E+04  0.91907005235E+02 0.  0.
         11    1    3    3    0    0  0.41637217383E+03 -0.58319383964E+02 -0.42832804455E+03  0.60019317842E+03  0.00000000000E+00 0.  1.
        -11    1    3    3    0    0  0.79827847220E+03  0.15119517255E+02 -0.83040841157E+03  0.11519788405E+04  0.00000000000E+00 0. -1.
         22    1    1    2    0    0 -0.12146506460E+04  0.43199866709E+02  0.71458459315E+03  0.14099197002E+04  0.00000000000E+00 0.  1.
<mgrwt>
<rscale>  0 0.31149194E+04</rscale>
<asrwt>0</asrwt>
<pdfrwt beam="1">  1        1 0.28509566E+00 0.31149194E+04</pdfrwt>
<pdfrwt beam="2">  1       -1 0.20137999E+00 0.31149194E+04</pdfrwt>
<totfact> 0.46523858E-01</totfact>
</mgrwt>
</event>
<event>
 6    1  0.1780144E-005  0.5957424E+04  0.7818608E-02  0.7695703E-01
          2   -1    0    0  501    0  0.00000000000E+00  0.00000000000E+00  0.20521112436E+04  0.20521112436E+04  0.00000000000E+00 0.  1.
         -2   -1    0    0    0  501 -0.00000000000E+00 -0.00000000000E+00 -0.43237052488E+04  0.43237052488E+04  0.00000000000E+00 0. -1.
         23    2    1    2    0    0 -0.87016852679E+03  0.13119550253E+04  0.15693564804E+04  0.22247539914E+04  0.90726546192E+02 0.  0.
         13    1    3    3    0    0 -0.37557468838E+03  0.54476890867E+03  0.59899639414E+03  0.89253918155E+03  0.00000000000E+00 0. -1.
        -13    1    3    3    0    0 -0.49459383841E+03  0.76718611666E+03  0.97036008629E+03  0.13322148099E+04  0.00000000000E+00 0.  1.
         22    1    1    2    0    0  0.87016852679E+03 -0.13119550253E+04 -0.38409504857E+04  0.41510625010E+04  0.00000000000E+00 0. -1.
<mgrwt>
<rscale>  0 0.59574237E+04</rscale>
<asrwt>0</asrwt>
<pdfrwt beam="1">  1        2 0.31570942E+00 0.59574237E+04</pdfrwt>
<pdfrwt beam="2">  1       -2 0.66518542E+00 0.59574237E+04</pdfrwt>
<totfact> 0.12874797E-03</totfact>
</mgrwt>
</event>
<event>
 6    1  0.1780144E-005  0.2499943E+04  0.7818608E-02  0.8403006E-01
          2   -1    0    0  501    0  0.00000000000E+00  0.00000000000E+00  0.30021085173E+04  0.30021085173E+04  0.00000000000E+00 0. -1.
         -2   -1    0    0    0  501 -0.00000000000E+00 -0.00000000000E+00 -0.52044396678E+03  0.52044396678E+03  0.00000000000E+00 0.  1.
         23    2    1    2    0    0  0.36130957452E+03 -0.10454459786E+04  0.42703486458E+03  0.11890990243E+04  0.89976725324E+02 0.  0.
         11    1    3    3    0    0  0.24198392006E+03 -0.76443287801E+03  0.34558651928E+03  0.87312306399E+03  0.00000000000E+00 0. -1.
        -11    1    3    3    0    0  0.11932565446E+03 -0.28101310059E+03  0.81448345292E+02  0.31597596027E+03  0.00000000000E+00 0.  1.
         22    1    1    2    0    0 -0.36130957452E+03  0.10454459786E+04  0.20546296859E+04  0.23334534598E+04  0.00000000000E+00 0.  1.
<mgrwt>
<rscale>  0 0.24999434E+04</rscale>
<asrwt>0</asrwt>
<pdfrwt beam="1">  1        2 0.46186284E+00 0.24999434E+04</pdfrwt>
<pdfrwt beam="2">  1       -2 0.80068304E-01 0.24999434E+04</pdfrwt>
<totfact> 0.21363044E+00</totfact>
</mgrwt>
</event>
<event>
 6    1  0.1780144E-005  0.1679741E+04  0.7818608E-02  0.8773004E-01
         -2   -1    0    0    0  501 -0.00000000000E+00  0.00000000000E+00  0.59234368137E+03  0.59234368137E+03  0.00000000000E+00 0.  1.
          2   -1    0    0  501    0  0.00000000000E+00 -0.00000000000E+00 -0.11908327200E+04  0.11908327200E+04  0.00000000000E+00 0. -1.
         23    2    1    2    0    0 -0.36009572257E+03 -0.64218237622E+03  0.12332199225E+03  0.75211951739E+03  0.91696896991E+02 0.  0.
         11    1    3    3    0    0 -0.16534763426E+03 -0.30198738418E+03  0.11479635527E+02  0.34448222362E+03  0.00000000000E+00 0. -1.
        -11    1    3    3    0    0 -0.19474808831E+03 -0.34019499204E+03  0.11184235672E+03  0.40763729377E+03  0.00000000000E+00 0.  1.
         22    1    1    2    0    0  0.36009572257E+03  0.64218237622E+03 -0.72181103091E+03  0.10310568840E+04  0.00000000000E+00 0. -1.
<mgrwt>
<rscale>  0 0.16797407E+04</rscale>
<asrwt>0</asrwt>
<pdfrwt beam="1">  1        2 0.18320503E+00 0.16797407E+04</pdfrwt>
<pdfrwt beam="2">  1       -2 0.91129798E-01 0.16797407E+04</pdfrwt>
<totfact> 0.18773628E+01</totfact>
</mgrwt>
</event>
<event>
 6    1  0.1780144E-005  0.1489147E+04  0.7818608E-02  0.8891702E-01
         -2   -1    0    0    0  501 -0.00000000000E+00  0.00000000000E+00  0.22145671099E+03  0.22145671099E+03  0.00000000000E+00 0.  1.
          2   -1    0    0  501    0  0.00000000000E+00 -0.00000000000E+00 -0.25033787588E+04  0.25033787588E+04  0.00000000000E+00 0. -1.
         23    2    1    2    0    0  0.16556655510E+03 -0.41742127994E+03 -0.22255764312E+04  0.22722565953E+04  0.91141509067E+02 0.  0.
         13    1    3    3    0    0  0.72622504852E+01 -0.11151761594E+03 -0.45835517982E+03  0.47178214233E+03  0.00000000000E+00 0. -1.
        -13    1    3    3    0    0  0.15830430461E+03 -0.30590366400E+03 -0.17672212513E+04  0.18004744529E+04  0.00000000000E+00 0.  1.
         22    1    1    2    0    0 -0.16556655510E+03  0.41742127994E+03 -0.56345616605E+02  0.45257887448E+03  0.00000000000E+00 0.  1.
<mgrwt>
<rscale>  0 0.14891474E+04</rscale>
<asrwt>0</asrwt>
<pdfrwt beam="1">  1        2 0.38513519E+00 0.14891474E+04</pdfrwt>
<pdfrwt beam="2">  1       -2 0.34070264E-01 0.14891474E+04</pdfrwt>
<totfact> 0.27105672E+01</totfact>
</mgrwt>
</event>
<event>
 6    1  0.1780144E-005  0.1401861E+04  0.7818608E-02  0.8952472E-01
         -2   -1    0    0    0  501 -0.00000000000E+00  0.00000000000E+00  0.15752907024E+03  0.15752907024E+03  0.00000000000E+00 0.  1.
          2   -1    0    0  501    0  0.00000000000E+00 -0.00000000000E+00 -0.31188136866E+04  0.31188136866E+04  0.00000000000E+00 0. -1.
         23    2    1    2    0    0  0.46753289626E+03 -0.46845839327E+03 -0.20096923738E+04  0.21172189190E+04  0.75579351988E+02 0.  0.
         13    1    3    3    0    0  0.49544699560E+02 -0.50295728907E+02 -0.29945555191E+03  0.30766534607E+03  0.00000000000E+00 0.  1.
        -13    1    3    3    0    0  0.41798819670E+03 -0.41816266436E+03 -0.17102368219E+04  0.18095535729E+04  0.00000000000E+00 0. -1.
         22    1    1    2    0    0 -0.46753289626E+03  0.46845839327E+03 -0.95159224262E+03  0.11591238379E+04  0.00000000000E+00 0.  1.
<mgrwt>
<rscale>  0 0.14018614E+04</rscale>
<asrwt>0</asrwt>
<pdfrwt beam="1">  1        2 0.47981746E+00 0.14018614E+04</pdfrwt>
<pdfrwt beam="2">  1       -2 0.24235243E-01 0.14018614E+04</pdfrwt>
<totfact> 0.21851956E+01</totfact>
</mgrwt>
</event>
<event>
 6    1  0.1780144E-005  0.1008244E+04  0.7818608E-02  0.9299549E-01
         -2   -1    0    0    0  501 -0.00000000000E+00  0.00000000000E+00  0.16920950508E+03  0.16920950508E+03  0.00000000000E+00 0.  1.
          2   -1    0    0  501    0  0.00000000000E+00 -0.00000000000E+00 -0.15019200395E+04  0.15019200395E+04  0.00000000000E+00 0. -1.
         23    2    1    2    0    0 -0.81350540184E+02 -0.34883596740E+03 -0.12499299303E+04  0.13034923988E+04  0.91995437679E+02 0.  0.
         11    1    3    3    0    0 -0.14627432672E+02 -0.19584148478E+03 -0.55241517643E+03  0.58628523442E+03  0.00000000000E+00 0.  1.
        -11    1    3    3    0    0 -0.66723107512E+02 -0.15299448263E+03 -0.69751475382E+03  0.71720716435E+03  0.00000000000E+00 0. -1.
         22    1    1    2    0    0  0.81350540184E+02  0.34883596740E+03 -0.82780604139E+02  0.36763714579E+03  0.00000000000E+00 0.  1.
<mgrwt>
<rscale>  0 0.10082443E+04</rscale>
<asrwt>0</asrwt>
<pdfrwt beam="1">  1        2 0.23106463E+00 0.10082443E+04</pdfrwt>
<pdfrwt beam="2">  1       -2 0.26032231E-01 0.10082443E+04</pdfrwt>
<totfact> 0.16826256E+02</totfact>
</mgrwt>
</event>
<event>
 6    1  0.1780144E-005  0.2072075E+04  0.7818608E-02  0.8573645E-01
          1   -1    0    0  501    0  0.00000000000E+00  0.00000000000E+00  0.77032018637E+03  0.77032018637E+03  0.00000000000E+00 0. -1.
         -1   -1    0    0    0  501 -0.00000000000E+00 -0.00000000000E+00 -0.13934125341E+04  0.13934125341E+04  0.00000000000E+00 0.  1.
         23    2    1    2    0    0 -0.71404248645E+03  0.38805262911E+03 -0.97975501904E+03  0.12762363676E+04  0.91748859075E+02 0.  0.
         11    1    3    3    0    0 -0.36168273177E+03  0.14776692791E+03 -0.44317607025E+03  0.59080833837E+03  0.00000000000E+00 0. -1.
        -11    1    3    3    0    0 -0.35235975468E+03  0.24028570120E+03 -0.53657894879E+03  0.68542802919E+03  0.00000000000E+00 0.  1.
         22    1    1    2    0    0  0.71404248645E+03 -0.38805262911E+03  0.35666267126E+03  0.88749635295E+03  0.00000000000E+00 0. -1.
<mgrwt>
<rscale>  0 0.20720751E+04</rscale>
<asrwt>0</asrwt>
<pdfrwt beam="1">  1        1 0.11851080E+00 0.20720751E+04</pdfrwt>
<pdfrwt beam="2">  1       -1 0.21437116E+00 0.20720751E+04</pdfrwt>
<totfact> 0.25995000E+00</totfact>
</mgrwt>
</event>
<event>
 6    1  0.1780144E-005  0.4235198E+04  0.7818608E-02  0.7958710E-01
         -2   -1    0    0    0  501 -0.00000000000E+00  0.00000000000E+00  0.19567937358E+04  0.19567937358E+04  0.00000000000E+00 0.  1.
          2   -1    0    0  501    0  0.00000000000E+00 -0.00000000000E+00 -0.22916188404E+04  0.22916188404E+04  0.00000000000E+00 0. -1.
         23    2    1    2    0    0  0.13223681073E+04 -0.49226046304E+03 -0.17507633786E+04  0.22494481016E+04  0.62181823981E+02 0.  0.
         13    1    3    3    0    0  0.12505613712E+04 -0.47713744409E+03 -0.16457002556E+04  0.21212951740E+04  0.00000000000E+00 0.  1.
        -13    1    3    3    0    0  0.71806736075E+02 -0.15123018954E+02 -0.10506312303E+03  0.12815292766E+03  0.00000000000E+00 0. -1.
         22    1    1    2    0    0 -0.13223681073E+04  0.49226046304E+03  0.14159382740E+04  0.19989644746E+04  0.00000000000E+00 0.  1.
<mgrwt>
<rscale>  0 0.42351979E+04</rscale>
<asrwt>0</asrwt>
<pdfrwt beam="1">  1        2 0.35255675E+00 0.42351979E+04</pdfrwt>
<pdfrwt beam="2">  1       -2 0.30104519E+00 0.42351979E+04</pdfrwt>
<totfact> 0.11112132E-01</totfact>
</mgrwt>
</event>
<event>
 6    1  0.1780144E-005  0.8295871E+03  0.7818608E-02  0.9518152E-01
          2   -1    0    0  501    0  0.00000000000E+00  0.00000000000E+00  0.48449723553E+03  0.48449723553E+03  0.00000000000E+00 0. -1.
         -2   -1    0    0    0  501 -0.00000000000E+00 -0.00000000000E+00 -0.35511801653E+03  0.35511801653E+03  0.00000000000E+00 0.  1.
         23    2    1    2    0    0  0.18540520320E+03 -0.31573527002E+03 -0.11921673719E+03  0.39705022911E+03  0.96811176553E+02 0.  0.
         11    1    3    3    0    0  0.12512351079E+03 -0.25202215339E+03 -0.12757042633E+03  0.30894218298E+03  0.00000000000E+00 0.  1.
        -11    1    3    3    0    0  0.60281692406E+02 -0.63713116633E+02  0.83536891493E+01  0.88108046130E+02  0.00000000000E+00 0. -1.
         22    1    1    2    0    0 -0.18540520320E+03  0.31573527002E+03  0.24859595619E+03  0.44256502295E+03  0.00000000000E+00 0. -1.
<mgrwt>
<rscale>  0 0.82958712E+03</rscale>
<asrwt>0</asrwt>
<pdfrwt beam="1">  1        2 0.74538036E-01 0.82958712E+03</pdfrwt>
<pdfrwt beam="2">  1       -2 0.54633541E-01 0.82958712E+03</pdfrwt>
<totfact> 0.20266268E+02</totfact>
</mgrwt>
</event>
<event>
 6    1  0.1780144E-005  0.2919606E+04  0.7818608E-02  0.8267068E-01
         -1   -1    0    0    0  501 -0.00000000000E+00  0.00000000000E+00  0.10361394367E+04  0.10361394367E+04  0.00000000000E+00 0.  1.
          1   -1    0    0  501    0  0.00000000000E+00 -0.00000000000E+00 -0.20566971421E+04  0.20566971421E+04  0.00000000000E+00 0. -1.
         23    2    1    2    0    0  0.71103249544E+03  0.83232507440E+02 -0.18567556409E+04  0.19920541992E+04  0.90794068099E+02 0.  0.
         11    1    3    3    0    0  0.13807066970E+03  0.50929356383E+02 -0.41222584729E+03  0.43770704626E+03  0.00000000000E+00 0. -1.
        -11    1    3    3    0    0  0.57296182575E+03  0.32303151057E+02 -0.14445297936E+04  0.15543471530E+04  0.00000000000E+00 0.  1.
         22    1    1    2    0    0 -0.71103249544E+03 -0.83232507440E+02  0.83619793548E+03  0.11007823796E+04  0.00000000000E+00 0.  1.
<mgrwt>
<rscale>  0 0.29196062E+04</rscale>
<asrwt>0</asrwt>
<pdfrwt beam="1">  1        1 0.31641494E+00 0.29196062E+04</pdfrwt>
<pdfrwt beam="2">  1       -1 0.15940607E+00 0.29196062E+04</pdfrwt>
<totfact> 0.69002607E-01</totfact>
</mgrwt>
</event>
<event>
 6    1  0.1780144E-005  0.2583352E+04  0.7818608E-02  0.8373878E-01
         -1   -1    0    0    0  501 -0.00000000000E+00  0.00000000000E+00  0.40335196199E+03  0.40335196199E+03  0.00000000000E+00 0.  1.
          1   -1    0    0  501    0  0.00000000000E+00 -0.00000000000E+00 -0.41364058174E+04  0.41364058174E+04  0.00000000000E+00 0. -1.
         23    2    1    2    0    0  0.70324339106E+03 -0.63793556283E+03 -0.33363944213E+03  0.10102349501E+04  0.88013224166E+02 0.  0.
         13    1    3    3    0    0  0.40400631050E+03 -0.31283222658E+03 -0.15916488283E+03  0.53518086741E+03  0.00000000000E+00 0.  1.
        -13    1    3    3    0    0  0.29923708055E+03 -0.32510333626E+03 -0.17447455929E+03  0.47505408267E+03  0.00000000000E+00 0. -1.
         22    1    1    2    0    0 -0.70324339106E+03  0.63793556283E+03 -0.33994144133E+04  0.35295228293E+04  0.00000000000E+00 0. -1.
<mgrwt>
<rscale>  0 0.25833524E+04</rscale>
<asrwt>0</asrwt>
<pdfrwt beam="1">  1        1 0.63637012E+00 0.25833524E+04</pdfrwt>
<pdfrwt beam="2">  1       -1 0.62054149E-01 0.25833524E+04</pdfrwt>
<totfact> 0.16858652E-01</totfact>
</mgrwt>
</event>
<event>
 6    1  0.1780144E-005  0.3488266E+04  0.7818608E-02  0.8116576E-01
         -2   -1    0    0    0  501 -0.00000000000E+00  0.00000000000E+00  0.56388069868E+03  0.56388069868E+03  0.00000000000E+00 0.  1.
          2   -1    0    0  501    0  0.00000000000E+00 -0.00000000000E+00 -0.53947567008E+04  0.53947567008E+04  0.00000000000E+00 0. -1.
         23    2    1    2    0    0 -0.11367110594E+04 -0.13079359524E+04 -0.27377369680E+04  0.32412784787E+04  0.88735463026E+02 0.  0.
         11    1    3    3    0    0 -0.10438058798E+04 -0.12153791762E+04 -0.25683097905E+04  0.30270269963E+04  0.00000000000E+00 0.  1.
        -11    1    3    3    0    0 -0.92905179543E+02 -0.92556776184E+02 -0.16942717749E+03  0.21425148232E+03  0.00000000000E+00 0. -1.
         22    1    1    2    0    0  0.11367110594E+04  0.13079359524E+04 -0.20931390341E+04  0.27173589208E+04  0.00000000000E+00 0. -1.
<mgrwt>
<rscale>  0 0.34882656E+04</rscale>
<asrwt>0</asrwt>
<pdfrwt beam="1">  1        2 0.82996258E+00 0.34882656E+04</pdfrwt>
<pdfrwt beam="2">  1       -2 0.86750876E-01 0.34882656E+04</pdfrwt>
<totfact> 0.85883353E-03</totfact>
</mgrwt>
</event>
<event>
 6    1  0.1780144E-005  0.3711169E+04  0.7818608E-02  0.8065491E-01
          1   -1    0    0  501    0  0.00000000000E+00  0.00000000000E+00  0.27911687417E+04  0.27911687417E+04  0.00000000000E+00 0. -1.
         -1   -1    0    0    0  501 -0.00000000000E+00 -0.00000000000E+00 -0.12336028701E+04  0.12336028701E+04  0.00000000000E+00 0.  1.
         23    2    1    2    0    0 -0.61188771726E+03 -0.15099057615E+04  0.17397376838E+04  0.23854398710E+04  0.97026710853E+02 0.  0.
         13    1    3    3    0    0 -0.12541667348E+03 -0.42338582353E+03  0.47820097456E+03  0.65089251772E+03  0.00000000000E+00 0. -1.
        -13    1    3    3    0    0 -0.48647104378E+03 -0.10865199380E+04  0.12615367092E+04  0.17345473533E+04  0.00000000000E+00 0.  1.
         22    1    1    2    0    0  0.61188771726E+03  0.15099057615E+04 -0.18217181216E+03  0.16393317408E+04  0.00000000000E+00 0.  1.
<mgrwt>
<rscale>  0 0.37111690E+04</rscale>
<asrwt>0</asrwt>
<pdfrwt beam="1">  1        1 0.42941058E+00 0.37111690E+04</pdfrwt>
<pdfrwt beam="2">  1       -1 0.18978506E+00 0.37111690E+04</pdfrwt>
<totfact> 0.12013847E-01</totfact>
</mgrwt>
</event>
<event>
 6    1  0.1780144E-005  0.1165594E+04  0.7818608E-02  0.9143517E-01
          3   -1    0    0  501    0  0.00000000000E+00  0.00000000000E+00  0.51792392297E+03  0.51792392297E+03  0.00000000000E+00 0. -1.
         -3   -1    0    0    0  501 -0.00000000000E+00 -0.00000000000E+00 -0.65579550399E+03  0.65579550399E+03  0.00000000000E+00 0.  1.
         23    2    1    2    0    0 -0.29266964316E+03 -0.28429740921E+03  0.34473076959E+03  0.54174983455E+03  0.90404882745E+02 0.  0.
         13    1    3    3    0    0 -0.10062631331E+03 -0.13880508111E+03  0.10073567835E+03  0.19884713316E+03  0.00000000000E+00 0. -1.
        -13    1    3    3    0    0 -0.19204332985E+03 -0.14549232811E+03  0.24399509124E+03  0.34290270139E+03  0.00000000000E+00 0.  1.
         22    1    1    2    0    0  0.29266964316E+03  0.28429740921E+03 -0.48260235061E+03  0.63196959241E+03  0.00000000000E+00 0.  1.
<mgrwt>
<rscale>  0 0.11655937E+04</rscale>
<asrwt>0</asrwt>
<pdfrwt beam="1">  1        3 0.79680604E-01 0.11655937E+04</pdfrwt>
<pdfrwt beam="2">  1       -3 0.10089162E+00 0.11655937E+04</pdfrwt>
<totfact> 0.32569443E+00</totfact>
</mgrwt>
</event>
<event>
 6    1  0.1780144E-005  0.1940816E+04  0.7818608E-02  0.8634802E-01
          1   -1    0    0  501    0  0.00000000000E+00  0.00000000000E+00  0.26421971594E+04  0.26421971594E+04  0.00000000000E+00 0. -1.
         -1   -1    0    0    0  501 -0.00000000000E+00 -0.00000000000E+00 -0.35640480638E+03  0.35640480638E+03  0.00000000000E+00 0.  1.
         23    2    1    2    0    0 -0.57648875235E+03 -0.77505183688E+03  0.10470348383E+04  0.14277535289E+04  0.95674213710E+02 0.  0.
         11    1    3    3    0    0 -0.31617267193E+03 -0.50267238844E+03  0.63279598755E+03  0.86779919938E+03  0.00000000000E+00 0. -1.
        -11    1    3    3    0    0 -0.26031608042E+03 -0.27237944844E+03  0.41423885075E+03  0.55995432950E+03  0.00000000000E+00 0.  1.
         22    1    1    2    0    0  0.57648875235E+03  0.77505183688E+03  0.12387575147E+04  0.15708484369E+04  0.00000000000E+00 0.  1.
<mgrwt>
<rscale>  0 0.19408161E+04</rscale>
<asrwt>0</asrwt>
<pdfrwt beam="1">  1        1 0.40649186E+00 0.19408161E+04</pdfrwt>
<pdfrwt beam="2">  1       -1 0.54831510E-01 0.19408161E+04</pdfrwt>
<totfact> 0.33810281E+00</totfact>
</mgrwt>
</event>
<event>
 6    1  0.1780144E-005  0.2782706E+04  0.7818608E-02  0.8308658E-01
         -2   -1    0    0    0  501 -0.00000000000E+00  0.00000000000E+00  0.12656458759E+04  0.12656458759E+04  0.00000000000E+00 0.  1.
          2   -1    0    0  501    0  0.00000000000E+00 -0.00000000000E+00 -0.15295457906E+04  0.15295457906E+04  0.00000000000E+00 0. -1.
         23    2    1    2    0    0  0.85892951177E+03 -0.35185759611E+03 -0.11700345517E+04  0.14980241158E+04  0.11632594363E+03 0.  0.
         11    1    3    3    0    0  0.68098840111E+02 -0.33530544349E+01 -0.12066834320E+03  0.13859849945E+03  0.00000000000E+00 0. -1.
        -11    1    3    3    0    0  0.79083067165E+03 -0.34850454167E+03 -0.10493662085E+04  0.13594256163E+04  0.00000000000E+00 0.  1.
         22    1    1    2    0    0 -0.85892951177E+03  0.35185759611E+03  0.90613463701E+03  0.12971675507E+04  0.00000000000E+00 0.  1.
<mgrwt>
<rscale>  0 0.27827061E+04</rscale>
<asrwt>0</asrwt>
<pdfrwt beam="1">  1        2 0.23531474E+00 0.27827061E+04</pdfrwt>
<pdfrwt beam="2">  1       -2 0.19471475E+00 0.27827061E+04</pdfrwt>
<totfact> 0.15345704E+00</totfact>
</mgrwt>
</event>
<event>
 6    1  0.1780144E-005  0.1342136E+04  0.7818608E-02  0.8996802E-01
          2   -1    0    0  501    0  0.00000000000E+00  0.00000000000E+00  0.13999387065E+04  0.13999387065E+04  0.00000000000E+00 0. -1.
         -2   -1    0    0    0  501 -0.00000000000E+00 -0.00000000000E+00 -0.32168014324E+03  0.32168014324E+03  0.00000000000E+00 0.  1.
         23    2    1    2    0    0  0.24387107440E+03  0.52352053582E+03  0.11059016976E+03  0.59470759674E+03  0.88882437087E+02 0.  0.
         13    1    3    3    0    0  0.93589992221E+02  0.30558894190E+03  0.58610167633E+02  0.32492897655E+03  0.00000000000E+00 0. -1.
        -13    1    3    3    0    0  0.15028108218E+03  0.21793159392E+03  0.51980002132E+02  0.26977862019E+03  0.00000000000E+00 0.  1.
         22    1    1    2    0    0 -0.24387107440E+03 -0.52352053582E+03  0.96766839347E+03  0.11269112530E+04  0.00000000000E+00 0. -1.
<mgrwt>
<rscale>  0 0.13421363E+04</rscale>
<asrwt>0</asrwt>
<pdfrwt beam="1">  1        2 0.21537518E+00 0.13421363E+04</pdfrwt>
<pdfrwt beam="2">  1       -2 0.49489254E-01 0.13421363E+04</pdfrwt>
<totfact> 0.54641391E+01</totfact>
</mgrwt>
</event>
<event>
 6    1  0.1780144E-005  0.3350596E+04  0.7818608E-02  0.8150139E-01
         -2   -1    0    0    0  501 -0.00000000000E+00  0.00000000000E+00  0.63912705290E+03  0.63912705290E+03  0.00000000000E+00 0.  1.
          2   -1    0    0  501    0  0.00000000000E+00 -0.00000000000E+00 -0.43913399235E+04  0.43913399235E+04  0.00000000000E+00 0. -1.
         23    2    1    2    0    0 -0.74250137407E+03  0.41376484740E+03 -0.40427919753E+04  0.41321653258E+04  0.90075995197E+02 0.  0.
         11    1    3    3    0    0 -0.12648816822E+03  0.10683067570E+03 -0.86395064061E+03  0.87967196123E+03  0.00000000000E+00 0. -1.
        -11    1    3    3    0    0 -0.61601320584E+03  0.30693417170E+03 -0.31788413347E+04  0.32524933646E+04  0.00000000000E+00 0.  1.
         22    1    1    2    0    0  0.74250137407E+03 -0.41376484740E+03  0.29057910466E+03  0.89830165062E+03  0.00000000000E+00 0.  1.
<mgrwt>
<rscale>  0 0.33505965E+04</rscale>
<asrwt>0</asrwt>
<pdfrwt beam="1">  1        2 0.67559077E+00 0.33505965E+04</pdfrwt>
<pdfrwt beam="2">  1       -2 0.98327237E-01 0.33505965E+04</pdfrwt>
<totfact> 0.11142367E-01</totfact>
</mgrwt>
</event>
<event>
 6    1  0.1877429E-005  0.2327822E+04  0.7818608E-02  0.8467031E-01
         -1   -1    0    0    0  501 -0.00000000000E+00  0.00000000000E+00  0.13080201012E+04  0.13080201012E+04  0.00000000000E+00 0.  1.
          1   -1    0    0  501    0  0.00000000000E+00 -0.00000000000E+00 -0.10356791560E+04  0.10356791560E+04  0.00000000000E+00 0. -1.
         23    2    1    2    0    0 -0.97864338760E+03  0.59967868272E+03  0.31949456355E+03  0.11949691469E+04  0.92288045817E+02 0.  0.
         11    1    3    3    0    0 -0.28558643209E+03  0.17898059224E+03  0.13774177822E+03  0.36409677293E+03  0.00000000000E+00 0. -1.
        -11    1    3    3    0    0 -0.69305695551E+03  0.42069809049E+03  0.18175278532E+03  0.83087237401E+03  0.00000000000E+00 0.  1.
         22    1    1    2    0    0  0.97864338760E+03 -0.59967868272E+03 -0.47153618369E+02  0.11487301103E+04  0.00000000000E+00 0. -1.
<mgrwt>
<rscale>  0 0.23278223E+04</rscale>
<asrwt>0</asrwt>
<pdfrwt beam="1">  1        1 0.15933525E+00 0.23278223E+04</pdfrwt>
<pdfrwt beam="2">  1       -1 0.20123386E+00 0.23278223E+04</pdfrwt>
<totfact> 0.18890264E+00</totfact>
</mgrwt>
</event>
<event>
 6    1  0.1780144E-005  0.1989563E+04  0.7818608E-02  0.8611516E-01
         -3   -1    0    0    0  501 -0.00000000000E+00  0.00000000000E+00  0.72537737801E+03  0.72537737801E+03  0.00000000000E+00 0.  1.
          3   -1    0    0  501    0  0.00000000000E+00 -0.00000000000E+00 -0.13642424415E+04  0.13642424415E+04  0.00000000000E+00 0. -1.
         23    2    1    2    0    0 -0.62468793445E+03 -0.71113132045E+03 -0.59461042963E+01  0.95096746728E+03  0.91438489171E+02 0.  0.
         13    1    3    3    0    0 -0.29335323137E+03 -0.26713646656E+03 -0.11884549716E+02  0.39693734095E+03  0.00000000000E+00 0. -1.
        -13    1    3    3    0    0 -0.33133470308E+03 -0.44399485389E+03  0.59384454198E+01  0.55403012633E+03  0.00000000000E+00 0.  1.
         22    1    1    2    0    0  0.62468793445E+03  0.71113132045E+03 -0.63291895922E+03  0.11386523523E+04  0.00000000000E+00 0. -1.
<mgrwt>
<rscale>  0 0.19895634E+04</rscale>
<asrwt>0</asrwt>
<pdfrwt beam="1">  1        3 0.20988345E+00 0.19895634E+04</pdfrwt>
<pdfrwt beam="2">  1       -3 0.11159652E+00 0.19895634E+04</pdfrwt>
<totfact> 0.20924790E-01</totfact>
</mgrwt>
</event>
<event>
 6    1  0.1780144E-005  0.2087735E+04  0.7818608E-02  0.8566666E-01
         -2   -1    0    0    0  501 -0.00000000000E+00  0.00000000000E+00  0.86008146780E+03  0.86008146780E+03  0.00000000000E+00 0.  1.
          2   -1    0    0  501    0  0.00000000000E+00 -0.00000000000E+00 -0.12669256898E+04  0.12669256898E+04  0.00000000000E+00 0. -1.
         23    2    1    2    0    0  0.28203206635E+03 -0.93146373366E+03 -0.58267479594E+03  0.11380262861E+04  0.91799435896E+02 0.  0.
         11    1    3    3    0    0  0.10272147505E+03 -0.25028909511E+03 -0.19967246626E+03  0.33625202802E+03  0.00000000000E+00 0. -1.
        -11    1    3    3    0    0  0.17931059130E+03 -0.68117463855E+03 -0.38300232969E+03  0.80177425807E+03  0.00000000000E+00 0.  1.
         22    1    1    2    0    0 -0.28203206635E+03  0.93146373366E+03  0.17583057392E+03  0.98898087155E+03  0.00000000000E+00 0. -1.
<mgrwt>
<rscale>  0 0.20877350E+04</rscale>
<asrwt>0</asrwt>
<pdfrwt beam="1">  1        2 0.19491164E+00 0.20877350E+04</pdfrwt>
<pdfrwt beam="2">  1       -2 0.13232023E+00 0.20877350E+04</pdfrwt>
<totfact> 0.66220622E+00</totfact>
</mgrwt>
</event>
<event>
 6    1  0.1780144E-005  0.2451012E+04  0.7818608E-02  0.8420648E-01
          2   -1    0    0  501    0  0.00000000000E+00  0.00000000000E+00  0.13637303458E+04  0.13637303458E+04  0.00000000000E+00 0. -1.
         -2   -1    0    0    0  501 -0.00000000000E+00 -0.00000000000E+00 -0.11012919800E+04  0.11012919800E+04  0.00000000000E+00 0.  1.
         23    2    1    2    0    0 -0.85083966159E+03  0.41207562851E+03 -0.65030164208E+03  0.11509337537E+04  0.89564648763E+02 0.  0.
         13    1    3    3    0    0 -0.42765104561E+03  0.25528033987E+03 -0.35452354357E+03  0.61134312107E+03  0.00000000000E+00 0. -1.
        -13    1    3    3    0    0 -0.42318861598E+03  0.15679528864E+03 -0.29577809851E+03  0.53959063260E+03  0.00000000000E+00 0.  1.
         22    1    1    2    0    0  0.85083966159E+03 -0.41207562851E+03  0.91274000788E+03  0.13140885721E+04  0.00000000000E+00 0. -1.
<mgrwt>
<rscale>  0 0.24510123E+04</rscale>
<asrwt>0</asrwt>
<pdfrwt beam="1">  1        2 0.20980467E+00 0.24510123E+04</pdfrwt>
<pdfrwt beam="2">  1       -2 0.16942954E+00 0.24510123E+04</pdfrwt>
<totfact> 0.29252117E+00</totfact>
</mgrwt>
</event>
<event>
 6    1  0.1780144E-005  0.4066155E+04  0.7818608E-02  0.7991332E-01
          2   -1    0    0  501    0  0.00000000000E+00  0.00000000000E+00  0.35211885087E+04  0.35211885087E+04  0.00000000000E+00 0. -1.
         -2   -1    0    0    0  501 -0.00000000000E+00 -0.00000000000E+00 -0.11738662056E+04  0.11738662056E+04  0.00000000000E+00 0.  1.
         23    2    1    2    0    0  0.13282315469E+04 -0.16928757877E+03 -0.59067901247E+03  0.14663229112E+04  0.91344718211E+02 0.  0.
         13    1    3    3    0    0  0.66465151008E+03 -0.55120929550E+02 -0.33216249574E+03  0.74507172158E+03  0.00000000000E+00 0. -1.
        -13    1    3    3    0    0  0.66358003681E+03 -0.11416664922E+03 -0.25851651673E+03  0.72125118958E+03  0.00000000000E+00 0.  1.
         22    1    1    2    0    0 -0.13282315469E+04  0.16928757877E+03  0.29380013156E+04  0.32287318032E+04  0.00000000000E+00 0. -1.
<mgrwt>
<rscale>  0 0.40661550E+04</rscale>
<asrwt>0</asrwt>
<pdfrwt beam="1">  1        2 0.54172131E+00 0.40661550E+04</pdfrwt>
<pdfrwt beam="2">  1       -2 0.18059480E+00 0.40661550E+04</pdfrwt>
<totfact> 0.11051415E-01</totfact>
</mgrwt>
</event>
<event>
 6    1  0.1780144E-005  0.6957963E+03  0.7818608E-02  0.9724448E-01
          2   -1    0    0  501    0  0.00000000000E+00  0.00000000000E+00  0.38483149343E+03  0.38483149343E+03  0.00000000000E+00 0. -1.
         -2   -1    0    0    0  501 -0.00000000000E+00 -0.00000000000E+00 -0.31450941187E+03  0.31450941187E+03  0.00000000000E+00 0.  1.
         23    2    1    2    0    0  0.86849648812E+02 -0.22010954374E+03  0.28475245656E+03  0.38001120347E+03  0.85635743092E+02 0.  0.
         11    1    3    3    0    0  0.27800308178E+02 -0.17249298279E+03  0.18198808245E+03  0.25228227921E+03  0.00000000000E+00 0. -1.
        -11    1    3    3    0    0  0.59049340634E+02 -0.47616560955E+02  0.10276437411E+03  0.12772892426E+03  0.00000000000E+00 0.  1.
         22    1    1    2    0    0 -0.86849648812E+02  0.22010954374E+03 -0.21443037500E+03  0.31932970183E+03  0.00000000000E+00 0.  1.
<mgrwt>
<rscale>  0 0.69579631E+03</rscale>
<asrwt>0</asrwt>
<pdfrwt beam="1">  1        2 0.59204845E-01 0.69579631E+03</pdfrwt>
<pdfrwt beam="2">  1       -2 0.48386063E-01 0.69579631E+03</pdfrwt>
<totfact> 0.33911409E+02</totfact>
</mgrwt>
</event>
<event>
 6    1  0.1780144E-005  0.1981056E+04  0.7818608E-02  0.8615529E-01
          1   -1    0    0  501    0  0.00000000000E+00  0.00000000000E+00  0.12777450634E+04  0.12777450634E+04  0.00000000000E+00 0. -1.
         -1   -1    0    0    0  501 -0.00000000000E+00 -0.00000000000E+00 -0.76787311702E+03  0.76787311702E+03  0.00000000000E+00 0.  1.
         23    2    1    2    0    0 -0.86268381331E+03 -0.16073072232E+03 -0.21434748483E+03  0.90783458439E+03  0.90338593718E+02 0.  0.
         11    1    3    3    0    0 -0.55894847319E+03 -0.14525916530E+03 -0.15522508883E+03  0.59801208097E+03  0.00000000000E+00 0. -1.
        -11    1    3    3    0    0 -0.30373534013E+03 -0.15471557014E+02 -0.59122396001E+02  0.30982250342E+03  0.00000000000E+00 0.  1.
         22    1    1    2    0    0  0.86268381331E+03  0.16073072232E+03  0.72421943125E+03  0.11377835961E+04  0.00000000000E+00 0. -1.
<mgrwt>
<rscale>  0 0.19810564E+04</rscale>
<asrwt>0</asrwt>
<pdfrwt beam="1">  1        1 0.19657616E+00 0.19810564E+04</pdfrwt>
<pdfrwt beam="2">  1       -1 0.11813433E+00 0.19810564E+04</pdfrwt>
<totfact> 0.56093409E+00</totfact>
</mgrwt>
</event>
<event>
 6    1  0.1780144E-005  0.2277513E+04  0.7818608E-02  0.8486841E-01
          2   -1    0    0  501    0  0.00000000000E+00  0.00000000000E+00  0.18877721250E+04  0.18877721250E+04  0.00000000000E+00 0. -1.
         -2   -1    0    0    0  501 -0.00000000000E+00 -0.00000000000E+00 -0.68692939477E+03  0.68692939477E+03  0.00000000000E+00 0.  1.
         23    2    1    2    0    0 -0.28691474580E+03  0.55959560968E+03 -0.46935315038E+03  0.79003863919E+03  0.91658899852E+02 0.  0.
         13    1    3    3    0    0 -0.12589950168E+03  0.26254099796E+03 -0.16160321378E+03  0.33300759576E+03  0.00000000000E+00 0.  1.
        -13    1    3    3    0    0 -0.16101524411E+03  0.29705461172E+03 -0.30774993660E+03  0.45703104343E+03  0.00000000000E+00 0. -1.
         22    1    1    2    0    0  0.28691474580E+03 -0.55959560968E+03  0.16701958806E+04  0.17846628806E+04  0.00000000000E+00 0. -1.
<mgrwt>
<rscale>  0 0.22775128E+04</rscale>
<asrwt>0</asrwt>
<pdfrwt beam="1">  1        2 0.29042648E+00 0.22775128E+04</pdfrwt>
<pdfrwt beam="2">  1       -2 0.10568145E+00 0.22775128E+04</pdfrwt>
<totfact> 0.50702036E+00</totfact>
</mgrwt>
</event>
<event>
 6    1  0.1780144E-005  0.9215200E+03  0.7818608E-02  0.9399073E-01
          2   -1    0    0  501    0  0.00000000000E+00  0.00000000000E+00  0.19263938071E+04  0.19263938071E+04  0.00000000000E+00 0. -1.
         -2   -1    0    0    0  501 -0.00000000000E+00 -0.00000000000E+00 -0.11020580608E+03  0.11020580608E+03  0.00000000000E+00 0.  1.
         23    2    1    2    0    0 -0.45110921364E+03  0.19401584051E+02  0.10636113335E+04  0.11589621114E+04  0.89711552892E+02 0.  0.
         11    1    3    3    0    0 -0.17295102509E+03 -0.20835934339E+02  0.32609038421E+03  0.36970411401E+03  0.00000000000E+00 0.  1.
        -11    1    3    3    0    0 -0.27815818856E+03  0.40237518390E+02  0.73752094930E+03  0.78925799736E+03  0.00000000000E+00 0. -1.
         22    1    1    2    0    0  0.45110921364E+03 -0.19401584051E+02  0.75257666754E+03  0.87763750183E+03  0.00000000000E+00 0. -1.
<mgrwt>
<rscale>  0 0.92152001E+03</rscale>
<asrwt>0</asrwt>
<pdfrwt beam="1">  1        2 0.29636825E+00 0.92152001E+03</pdfrwt>
<pdfrwt beam="2">  1       -2 0.16954741E-01 0.92152001E+03</pdfrwt>
<totfact> 0.21053650E+02</totfact>
</mgrwt>
</event>
<event>
 6    1  0.1780144E-005  0.3370724E+04  0.7818608E-02  0.8145129E-01
         -2   -1    0    0    0  501 -0.00000000000E+00  0.00000000000E+00  0.89067624875E+03  0.89067624875E+03  0.00000000000E+00 0.  1.
          2   -1    0    0  501    0  0.00000000000E+00 -0.00000000000E+00 -0.31890874094E+04  0.31890874094E+04  0.00000000000E+00 0. -1.
         23    2    1    2    0    0 -0.54381095657E+03 -0.15893081308E+03 -0.30695766744E+04  0.31228490279E+04  0.94317182824E+02 0.  0.
         11    1    3    3    0    0 -0.38160230729E+03 -0.69757887018E+02 -0.21747399243E+04  0.22090677269E+04  0.00000000000E+00 0.  1.
        -11    1    3    3    0    0 -0.16220864928E+03 -0.89172926058E+02 -0.89483675014E+03  0.91378130100E+03  0.00000000000E+00 0. -1.
         22    1    1    2    0    0  0.54381095657E+03  0.15893081308E+03  0.77116551382E+03  0.95691463023E+03  0.00000000000E+00 0.  1.
<mgrwt>
<rscale>  0 0.33707236E+04</rscale>
<asrwt>0</asrwt>
<pdfrwt beam="1">  1        2 0.49062884E+00 0.33707236E+04</pdfrwt>
<pdfrwt beam="2">  1       -2 0.13702711E+00 0.33707236E+04</pdfrwt>
<totfact> 0.41524081E-01</totfact>
</mgrwt>
</event>
<event>
 6    1  0.1780144E-005  0.1798147E+04  0.7818608E-02  0.8707285E-01
         -1   -1    0    0    0  501 -0.00000000000E+00  0.00000000000E+00  0.15992905409E+04  0.15992905409E+04  0.00000000000E+00 0.  1.
          1   -1    0    0  501    0  0.00000000000E+00 -0.00000000000E+00 -0.50543252317E+03  0.50543252317E+03  0.00000000000E+00 0. -1.
         23    2    1    2    0    0 -0.76602934728E+03  0.25501706744E+03  0.91406596871E+02  0.81757757239E+03  0.90792374888E+02 0.  0.
         13    1    3    3    0    0 -0.35253725136E+03  0.16100748719E+03  0.62256962157E+02  0.39253261503E+03  0.00000000000E+00 0. -1.
        -13    1    3    3    0    0 -0.41349209592E+03  0.94009580247E+02  0.29149634715E+02  0.42504495735E+03  0.00000000000E+00 0.  1.
         22    1    1    2    0    0  0.76602934728E+03 -0.25501706744E+03  0.10024514209E+04  0.12871454917E+04  0.00000000000E+00 0.  1.
<mgrwt>
<rscale>  0 0.17981473E+04</rscale>
<asrwt>0</asrwt>
<pdfrwt beam="1">  1        1 0.77758850E-01 0.17981473E+04</pdfrwt>
<pdfrwt beam="2">  1       -1 0.24604470E+00 0.17981473E+04</pdfrwt>
<totfact> 0.30495885E+00</totfact>
</mgrwt>
</event>
<event>
 6    1  0.1780144E-005  0.1127306E+04  0.7818608E-02  0.9178979E-01
         -1   -1    0    0    0  501 -0.00000000000E+00  0.00000000000E+00  0.42392151210E+03  0.42392151210E+03  0.00000000000E+00 0.  1.
          1   -1    0    0  501    0  0.00000000000E+00 -0.00000000000E+00 -0.74944244855E+03  0.74944244855E+03  0.00000000000E+00 0. -1.
         23    2    1    2    0    0  0.50205932479E+03  0.24674460657E+03 -0.13555581425E+03  0.58257363055E+03  0.89834234848E+02 0.  0.
         13    1    3    3    0    0  0.84554875510E+02  0.64332636255E+02 -0.55881677449E+02  0.12004572851E+03  0.00000000000E+00 0.  1.
        -13    1    3    3    0    0  0.41750444928E+03  0.18241197032E+03 -0.79674136800E+02  0.46252790203E+03  0.00000000000E+00 0. -1.
         22    1    1    2    0    0 -0.50205932479E+03 -0.24674460657E+03 -0.18996512221E+03  0.59079033010E+03  0.00000000000E+00 0. -1.
<mgrwt>
<rscale>  0 0.11273061E+04</rscale>
<asrwt>0</asrwt>
<pdfrwt beam="1">  1        1 0.11529884E+00 0.11273061E+04</pdfrwt>
<pdfrwt beam="2">  1       -1 0.65218695E-01 0.11273061E+04</pdfrwt>
<totfact> 0.58148670E+01</totfact>
</mgrwt>
</event>
<event>
 6    1  0.1780144E-005  0.1890039E+04  0.7818608E-02  0.8659831E-01
          2   -1    0    0  501    0  0.00000000000E+00  0.00000000000E+00  0.15635212149E+04  0.15635212149E+04  0.00000000000E+00 0. -1.
         -2   -1    0    0    0  501 -0.00000000000E+00 -0.00000000000E+00 -0.57118629284E+03  0.57118629284E+03  0.00000000000E+00 0.  1.
         23    2    1    2    0    0 -0.51451671458E+03  0.78988549721E+03  0.46613250817E+03  0.10551078002E+04  0.85594430236E+02 0.  0.
         13    1    3    3    0    0 -0.22251326157E+03  0.42000665603E+03  0.23467382221E+03  0.53008447017E+03  0.00000000000E+00 0. -1.
        -13    1    3    3    0    0 -0.29200345301E+03  0.36987884118E+03  0.23145868596E+03  0.52502332998E+03  0.00000000000E+00 0.  1.
         22    1    1    2    0    0  0.51451671458E+03 -0.78988549721E+03  0.52620241393E+03  0.10795997076E+04  0.00000000000E+00 0. -1.
<mgrwt>
<rscale>  0 0.18900390E+04</rscale>
<asrwt>0</asrwt>
<pdfrwt beam="1">  1        2 0.24054172E+00 0.18900390E+04</pdfrwt>
<pdfrwt beam="2">  1       -2 0.87874815E-01 0.18900390E+04</pdfrwt>
<totfact> 0.12234806E+01</totfact>
</mgrwt>
</event>
<event>
 6    1  0.1780144E-005  0.1258867E+04  0.7818608E-02  0.9062835E-01
          1   -1    0    0  501    0  0.00000000000E+00  0.00000000000E+00  0.48266586557E+03  0.48266586557E+03  0.00000000000E+00 0. -1.
         -1   -1    0    0    0  501 -0.00000000000E+00 -0.00000000000E+00 -0.82082973942E+03  0.82082973942E+03  0.00000000000E+00 0.  1.
         23    2    1    2    0    0 -0.43962633261E+03  0.17965062197E+03 -0.59253228203E+03  0.76474803389E+03  0.90550493127E+02 0.  0.
         13    1    3    3    0    0 -0.32493205331E+03  0.16983796834E+03 -0.47735196047E+03  0.60190586384E+03  0.00000000000E+00 0. -1.
        -13    1    3    3    0    0 -0.11469427929E+03  0.98126536280E+01 -0.11518032155E+03  0.16284217005E+03  0.00000000000E+00 0.  1.
         22    1    1    2    0    0  0.43962633261E+03 -0.17965062197E+03  0.25436840817E+03  0.53874757110E+03  0.00000000000E+00 0. -1.
<mgrwt>
<rscale>  0 0.12588669E+04</rscale>
<asrwt>0</asrwt>
<pdfrwt beam="1">  1        1 0.74256287E-01 0.12588669E+04</pdfrwt>
<pdfrwt beam="2">  1       -1 0.12628150E+00 0.12588669E+04</pdfrwt>
<totfact> 0.25026208E+01</totfact>
</mgrwt>
</event>
<event>
 6    1  0.1780144E-005  0.1742843E+04  0.7818608E-02  0.8737300E-01
          2   -1    0    0  501    0  0.00000000000E+00  0.00000000000E+00  0.81867618577E+03  0.81867618577E+03  0.00000000000E+00 0. -1.
         -2   -1    0    0    0  501 -0.00000000000E+00 -0.00000000000E+00 -0.92756494178E+03  0.92756494178E+03  0.00000000000E+00 0.  1.
         23    2    1    2    0    0  0.16325319223E+03  0.29907520009E+03  0.74717450244E+03  0.82486070528E+03  0.77639332332E+02 0.  0.
         13    1    3    3    0    0  0.16356607167E+03  0.27820967181E+03  0.72878679167E+03  0.79704746973E+03  0.00000000000E+00 0.  1.
        -13    1    3    3    0    0 -0.31287944220E+00  0.20865528285E+02  0.18387710774E+02  0.27813235548E+02  0.00000000000E+00 0. -1.
         22    1    1    2    0    0 -0.16325319223E+03 -0.29907520009E+03 -0.85606325845E+03  0.92138042228E+03  0.00000000000E+00 0.  1.
<mgrwt>
<rscale>  0 0.17428429E+04</rscale>
<asrwt>0</asrwt>
<pdfrwt beam="1">  1        2 0.12595018E+00 0.17428429E+04</pdfrwt>
<pdfrwt beam="2">  1       -2 0.14270230E+00 0.17428429E+04</pdfrwt>
<totfact> 0.10819024E+01</totfact>
</mgrwt>
</event>
<event>
 6    1  0.1780144E-005  0.3436569E+04  0.7818608E-02  0.8128989E-01
          1   -1    0    0  501    0  0.00000000000E+00  0.00000000000E+00  0.17383545801E+04  0.17383545801E+04  0.00000000000E+00 0. -1.
         -1   -1    0    0    0  501 -0.00000000000E+00 -0.00000000000E+00 -0.16984459070E+04  0.16984459070E+04  0.00000000000E+00 0.  1.
         23    2    1    2    0    0 -0.14936682458E+04 -0.83661580093E+03  0.15172199043E+03  0.17211452056E+04  0.91380684085E+02 0.  0.
         13    1    3    3    0    0 -0.51413806898E+03 -0.24049981822E+03  0.61833379273E+02  0.57096539591E+03  0.00000000000E+00 0.  1.
        -13    1    3    3    0    0 -0.97953017687E+03 -0.59611598271E+03  0.89888611157E+02  0.11501798097E+04  0.00000000000E+00 0. -1.
         22    1    1    2    0    0  0.14936682458E+04  0.83661580093E+03 -0.11181331738E+03  0.17156552815E+04  0.00000000000E+00 0.  1.
<mgrwt>
<rscale>  0 0.34365688E+04</rscale>
<asrwt>0</asrwt>
<pdfrwt beam="1">  1        1 0.26743917E+00 0.34365688E+04</pdfrwt>
<pdfrwt beam="2">  1       -1 0.26129937E+00 0.34365688E+04</pdfrwt>
<totfact> 0.21658263E-01</totfact>
</mgrwt>
</event>
<event>
 6    1  0.1780144E-005  0.3332850E+04  0.7818608E-02  0.8154587E-01
          2   -1    0    0  501    0  0.00000000000E+00  0.00000000000E+00  0.25118545451E+04  0.25118545451E+04  0.00000000000E+00 0. -1.
         -2   -1    0    0    0  501 -0.00000000000E+00 -0.00000000000E+00 -0.11055463359E+04  0.11055463359E+04  0.00000000000E+00 0.  1.
         23    2    1    2    0    0 -0.10104776846E+04 -0.19705766072E+03  0.21241985614E+04  0.23623058924E+04  0.91502611745E+02 0.  0.
         11    1    3    3    0    0 -0.36158246764E+03 -0.10906363721E+03  0.72595832938E+03  0.81832282985E+03  0.00000000000E+00 0. -1.
        -11    1    3    3    0    0 -0.64889521697E+03 -0.87994023513E+02  0.13982402320E+04  0.15439830625E+04  0.00000000000E+00 0.  1.
         22    1    1    2    0    0  0.10104776846E+04  0.19705766072E+03 -0.71789035223E+03  0.12550949887E+04  0.00000000000E+00 0.  1.
<mgrwt>
<rscale>  0 0.33328496E+04</rscale>
<asrwt>0</asrwt>
<pdfrwt beam="1">  1        2 0.38643916E+00 0.33328496E+04</pdfrwt>
<pdfrwt beam="2">  1       -2 0.17008405E+00 0.33328496E+04</pdfrwt>
<totfact> 0.60736483E-01</totfact>
</mgrwt>
</event>
<event>
 6    1  0.1780144E-005  0.2287933E+04  0.7818608E-02  0.8482694E-01
         -1   -1    0    0    0  501 -0.00000000000E+00  0.00000000000E+00  0.23864646377E+04  0.23864646377E+04  0.00000000000E+00 0.  1.
          1   -1    0    0  501    0  0.00000000000E+00 -0.00000000000E+00 -0.54836742880E+03  0.54836742880E+03  0.00000000000E+00 0. -1.
         23    2    1    2    0    0  0.12175051303E+03 -0.11264511261E+04  0.11050884203E+04  0.15853813593E+04  0.92186283446E+02 0.  0.
         13    1    3    3    0    0  0.10610696490E+03 -0.78372905933E+03  0.82075659482E+03  0.11397944176E+04  0.00000000000E+00 0. -1.
        -13    1    3    3    0    0  0.15643548138E+02 -0.34272206678E+03  0.28433182551E+03  0.44558694174E+03  0.00000000000E+00 0.  1.
         22    1    1    2    0    0 -0.12175051303E+03  0.11264511261E+04  0.73300878855E+03  0.13494507071E+04  0.00000000000E+00 0. -1.
<mgrwt>
<rscale>  0 0.22879331E+04</rscale>
<asrwt>0</asrwt>
<pdfrwt beam="1">  1        1 0.84364221E-01 0.22879331E+04</pdfrwt>
<pdfrwt beam="2">  1       -1 0.36714840E+00 0.22879331E+04</pdfrwt>
<totfact> 0.42119471E-01</totfact>
</mgrwt>
</event>
<event>
 6    1  0.1780144E-005  0.2222867E+04  0.7818608E-02  0.8508970E-01
          1   -1    0    0  501    0  0.00000000000E+00  0.00000000000E+00  0.52568773490E+03  0.52568773490E+03  0.00000000000E+00 0. -1.
         -1   -1    0    0    0  501 -0.00000000000E+00 -0.00000000000E+00 -0.23498448681E+04  0.23498448681E+04  0.00000000000E+00 0.  1.
         23    2    1    2    0    0 -0.66997247552E+03 -0.88440016080E+03 -0.92586509455E+03  0.14479628677E+04  0.91342928975E+02 0.  0.
         13    1    3    3    0    0 -0.48160371080E+02 -0.90301515287E+02 -0.11415416117E+03  0.15331326596E+03  0.00000000000E+00 0.  1.
        -13    1    3    3    0    0 -0.62181210444E+03 -0.79409864551E+03 -0.81171093338E+03  0.12946496018E+04  0.00000000000E+00 0. -1.
         22    1    1    2    0    0  0.66997247552E+03  0.88440016080E+03 -0.89829203869E+03  0.14275697353E+04  0.00000000000E+00 0. -1.
<mgrwt>
<rscale>  0 0.22228672E+04</rscale>
<asrwt>0</asrwt>
<pdfrwt beam="1">  1        1 0.80875035E-01 0.22228672E+04</pdfrwt>
<pdfrwt beam="2">  1       -1 0.36151460E+00 0.22228672E+04</pdfrwt>
<totfact> 0.49032716E-01</totfact>
</mgrwt>
</event>
<event>
 6    1  0.1780144E-005  0.2388856E+04  0.7818608E-02  0.8443688E-01
         -1   -1    0    0    0  501 -0.00000000000E+00  0.00000000000E+00  0.75415729818E+03  0.75415729818E+03  0.00000000000E+00 0.  1.
          1   -1    0    0  501    0  0.00000000000E+00 -0.00000000000E+00 -0.18917247854E+04  0.18917247854E+04  0.00000000000E+00 0. -1.
         23    2    1    2    0    0 -0.37543485626E+03 -0.11314990584E+04 -0.52339271615E+03  0.13048182894E+04  0.85845107907E+02 0.  0.
         11    1    3    3    0    0 -0.11125631014E+03 -0.22629487215E+03 -0.11780730436E+03  0.27832696000E+03  0.00000000000E+00 0. -1.
        -11    1    3    3    0    0 -0.26417854612E+03 -0.90520418630E+03 -0.40558541179E+03  0.10264913294E+04  0.00000000000E+00 0.  1.
         22    1    1    2    0    0  0.37543485626E+03  0.11314990584E+04 -0.61417477106E+03  0.13410637941E+04  0.00000000000E+00 0.  1.
<mgrwt>
<rscale>  0 0.23888558E+04</rscale>
<asrwt>0</asrwt>
<pdfrwt beam="1">  1        1 0.29103458E+00 0.23888558E+04</pdfrwt>
<pdfrwt beam="2">  1       -1 0.11602420E+00 0.23888558E+04</pdfrwt>
<totfact> 0.21268872E+00</totfact>
</mgrwt>
</event>
<event>
 6    1  0.1780144E-005  0.3561653E+04  0.7818608E-02  0.8099332E-01
         -2   -1    0    0    0  501 -0.00000000000E+00  0.00000000000E+00  0.77058648125E+03  0.77058648125E+03  0.00000000000E+00 0.  1.
          2   -1    0    0  501    0  0.00000000000E+00 -0.00000000000E+00 -0.41154925863E+04  0.41154925863E+04  0.00000000000E+00 0. -1.
         23    2    1    2    0    0 -0.64389598794E+03  0.12313228218E+04 -0.31989923623E+04  0.34889216837E+04  0.90908999532E+02 0.  0.
         11    1    3    3    0    0 -0.44396695237E+03  0.86749618158E+03 -0.21386439233E+04  0.23502029935E+04  0.00000000000E+00 0. -1.
        -11    1    3    3    0    0 -0.19992903557E+03  0.36382664025E+03 -0.10603484390E+04  0.11387186903E+04  0.00000000000E+00 0.  1.
         22    1    1    2    0    0  0.64389598794E+03 -0.12313228218E+04 -0.14591374272E+03  0.13971573838E+04  0.00000000000E+00 0.  1.
<mgrwt>
<rscale>  0 0.35616530E+04</rscale>
<asrwt>0</asrwt>
<pdfrwt beam="1">  1        2 0.63315270E+00 0.35616530E+04</pdfrwt>
<pdfrwt beam="2">  1       -2 0.11855177E+00 0.35616530E+04</pdfrwt>
<totfact> 0.12248749E-01</totfact>
</mgrwt>
</event>
<event>
 6    1  0.1780144E-005  0.3090839E+04  0.7818608E-02  0.8218257E-01
         -1   -1    0    0    0  501 -0.00000000000E+00  0.00000000000E+00  0.15041031511E+04  0.15041031511E+04  0.00000000000E+00 0.  1.
          1   -1    0    0  501    0  0.00000000000E+00 -0.00000000000E+00 -0.15878708316E+04  0.15878708316E+04  0.00000000000E+00 0. -1.
         23    2    1    2    0    0 -0.75391337541E+03  0.37828994760E+03  0.12521699066E+04  0.15120316107E+04  0.82592098980E+02 0.  0.
         11    1    3    3    0    0 -0.62595170820E+03  0.29105827647E+03  0.10641729403E+04  0.12684614729E+04  0.00000000000E+00 0.  1.
        -11    1    3    3    0    0 -0.12796166720E+03  0.87231671129E+02  0.18799696629E+03  0.24357013786E+03  0.00000000000E+00 0. -1.
         22    1    1    2    0    0  0.75391337541E+03 -0.37828994760E+03 -0.13359375871E+04  0.15799423719E+04  0.00000000000E+00 0. -1.
<mgrwt>
<rscale>  0 0.30908391E+04</rscale>
<asrwt>0</asrwt>
<pdfrwt beam="1">  1        1 0.24428782E+00 0.30908391E+04</pdfrwt>
<pdfrwt beam="2">  1       -1 0.23140048E+00 0.30908391E+04</pdfrwt>
<totfact> 0.44385307E-01</totfact>
</mgrwt>
</event>
<event>
 6    1  0.1780144E-005  0.2072218E+04  0.7818608E-02  0.8573581E-01
          2   -1    0    0  501    0  0.00000000000E+00  0.00000000000E+00  0.12421954801E+04  0.12421954801E+04  0.00000000000E+00 0. -1.
         -2   -1    0    0    0  501 -0.00000000000E+00 -0.00000000000E+00 -0.86421322687E+03  0.86421322687E+03  0.00000000000E+00 0.  1.
         23    2    1    2    0    0 -0.12810358454E+03 -0.89929622798E+03 -0.31186053266E+03  0.96578286854E+03  0.10166279217E+03 0.  0.
         11    1    3    3    0    0 -0.44989987509E+02 -0.64244034307E+03 -0.21452992677E+03  0.67880540868E+03  0.00000000000E+00 0. -1.
        -11    1    3    3    0    0 -0.83113597034E+02 -0.25685588491E+03 -0.97330605886E+02  0.28697745986E+03  0.00000000000E+00 0.  1.
         22    1    1    2    0    0  0.12810358454E+03  0.89929622798E+03  0.68984278588E+03  0.11406258384E+04  0.00000000000E+00 0.  1.
<mgrwt>
<rscale>  0 0.20722179E+04</rscale>
<asrwt>0</asrwt>
<pdfrwt beam="1">  1        2 0.19110700E+00 0.20722179E+04</pdfrwt>
<pdfrwt beam="2">  1       -2 0.13295588E+00 0.20722179E+04</pdfrwt>
<totfact> 0.67737529E+00</totfact>
</mgrwt>
</event>
<event>
 6    1  0.1780144E-005  0.1554181E+04  0.7818608E-02  0.8849202E-01
          2   -1    0    0  501    0  0.00000000000E+00  0.00000000000E+00  0.15889034646E+04  0.15889034646E+04  0.00000000000E+00 0. -1.
         -2   -1    0    0    0  501 -0.00000000000E+00 -0.00000000000E+00 -0.38005422998E+03  0.38005422998E+03  0.00000000000E+00 0.  1.
         23    2    1    2    0    0  0.51832693259E+03  0.23777650847E+03 -0.57193441377E+02  0.58041005965E+03  0.91674808882E+02 0.  0.
         11    1    3    3    0    0  0.64377341474E+02  0.62358110886E+02 -0.23085836245E+02  0.92552319926E+02  0.00000000000E+00 0. -1.
        -11    1    3    3    0    0  0.45394959112E+03  0.17541839758E+03 -0.34107605132E+02  0.48785773973E+03  0.00000000000E+00 0.  1.
         22    1    1    2    0    0 -0.51832693259E+03 -0.23777650847E+03  0.12660426760E+04  0.13885476349E+04  0.00000000000E+00 0.  1.
<mgrwt>
<rscale>  0 0.15541808E+04</rscale>
<asrwt>0</asrwt>
<pdfrwt beam="1">  1        2 0.24444668E+00 0.15541808E+04</pdfrwt>
<pdfrwt beam="2">  1       -2 0.58469882E-01 0.15541808E+04</pdfrwt>
<totfact> 0.29770186E+01</totfact>
</mgrwt>
</event>
<event>
 6    1  0.1780144E-005  0.5981474E+03  0.7818608E-02  0.9909257E-01
          2   -1    0    0  501    0  0.00000000000E+00  0.00000000000E+00  0.84255834904E+03  0.84255834904E+03  0.00000000000E+00 0. -1.
         -2   -1    0    0    0  501 -0.00000000000E+00 -0.00000000000E+00 -0.10615891913E+03  0.10615891913E+03  0.00000000000E+00 0.  1.
         23    2    1    2    0    0  0.15046532744E+03  0.12147553898E+03  0.72342370656E+03  0.75490165803E+03  0.95595673327E+02 0.  0.
         13    1    3    3    0    0  0.12821380022E+03  0.91462670488E+02  0.40915559108E+03  0.43842045616E+03  0.00000000000E+00 0.  1.
        -13    1    3    3    0    0  0.22251527220E+02  0.30012868495E+02  0.31426811547E+03  0.31648120188E+03  0.00000000000E+00 0. -1.
         22    1    1    2    0    0 -0.15046532744E+03 -0.12147553898E+03  0.12975723349E+02  0.19381561013E+03  0.00000000000E+00 0.  1.
<mgrwt>
<rscale>  0 0.59814742E+03</rscale>
<asrwt>0</asrwt>
<pdfrwt beam="1">  1        2 0.12962436E+00 0.59814742E+03</pdfrwt>
<pdfrwt beam="2">  1       -2 0.16332142E-01 0.59814742E+03</pdfrwt>
<totfact> 0.97937841E+02</totfact>
</mgrwt>
</event>
<event>
 6    1  0.1780144E-005  0.9807808E+03  0.7818608E-02  0.9329879E-01
          2   -1    0    0  501    0  0.00000000000E+00  0.00000000000E+00  0.62750386491E+03  0.62750386491E+03  0.00000000000E+00 0.  1.
         -2   -1    0    0    0  501 -0.00000000000E+00 -0.00000000000E+00 -0.38323705495E+03  0.38323705495E+03  0.00000000000E+00 0. -1.
         23    2    1    2    0    0  0.48040424485E+02 -0.22121407754E+03 -0.32013142003E+03  0.40263820444E+03  0.91596108523E+02 0.  0.
         13    1    3    3    0    0 -0.17935807417E+02 -0.71177918525E+02 -0.58302065458E+02  0.93739640014E+02  0.00000000000E+00 0. -1.
        -13    1    3    3    0    0  0.65976231902E+02 -0.15003615901E+03 -0.26182935458E+03  0.30889856443E+03  0.00000000000E+00 0.  1.
         22    1    1    2    0    0 -0.48040424485E+02  0.22121407754E+03  0.56439822999E+03  0.60810271542E+03  0.00000000000E+00 0.  1.
<mgrwt>
<rscale>  0 0.98078078E+03</rscale>
<asrwt>0</asrwt>
<pdfrwt beam="1">  1        2 0.96539056E-01 0.98078078E+03</pdfrwt>
<pdfrwt beam="2">  1       -2 0.58959547E-01 0.98078078E+03</pdfrwt>
<totfact> 0.12619236E+02</totfact>
</mgrwt>
</event>
<event>
 6    1  0.1780144E-005  0.4045005E+03  0.7818608E-02  0.1042232E+00
         -4   -1    0    0    0  501 -0.00000000000E+00  0.00000000000E+00  0.92825092488E+02  0.92825092488E+02  0.00000000000E+00 0.  1.
          4   -1    0    0  501    0  0.00000000000E+00 -0.00000000000E+00 -0.44066914391E+03  0.44066914391E+03  0.00000000000E+00 0. -1.
         23    2    1    2    0    0 -0.15580144763E+03 -0.11137358605E+03 -0.20107819580E+03  0.29220937751E+03  0.90970944388E+02 0.  0.
         13    1    3    3    0    0 -0.89590681858E+02 -0.11432161284E+03 -0.14722662705E+03  0.20681296176E+03  0.00000000000E+00 0.  1.
        -13    1    3    3    0    0 -0.66210765772E+02  0.29480267872E+01 -0.53851568749E+02  0.85396415749E+02  0.00000000000E+00 0. -1.
         22    1    1    2    0    0  0.15580144763E+03  0.11137358605E+03 -0.14676585562E+03  0.24128485889E+03  0.00000000000E+00 0.  1.
<mgrwt>
<rscale>  0 0.40450045E+03</rscale>
<asrwt>0</asrwt>
<pdfrwt beam="1">  1        4 0.67795252E-01 0.40450045E+03</pdfrwt>
<pdfrwt beam="2">  1       -4 0.14280784E-01 0.40450045E+03</pdfrwt>
<totfact> 0.16286247E+02</totfact>
</mgrwt>
</event>
<event>
 6    1  0.1780144E-005  0.2257606E+04  0.7818608E-02  0.8494827E-01
         -1   -1    0    0    0  501 -0.00000000000E+00  0.00000000000E+00  0.52799768291E+03  0.52799768291E+03  0.00000000000E+00 0.  1.
          1   -1    0    0  501    0  0.00000000000E+00 -0.00000000000E+00 -0.24132600921E+04  0.24132600921E+04  0.00000000000E+00 0. -1.
         23    2    1    2    0    0  0.48520966949E+03  0.99603927029E+03 -0.67526355116E+03  0.13006420711E+04  0.90367485201E+02 0.  0.
         11    1    3    3    0    0  0.23432050665E+03  0.42370803466E+03 -0.25153829004E+03  0.54562451359E+03  0.00000000000E+00 0. -1.
        -11    1    3    3    0    0  0.25088916284E+03  0.57233123563E+03 -0.42372526112E+03  0.75501755756E+03  0.00000000000E+00 0.  1.
         22    1    1    2    0    0 -0.48520966949E+03 -0.99603927029E+03 -0.12099988580E+04  0.16406157039E+04  0.00000000000E+00 0. -1.
<mgrwt>
<rscale>  0 0.22576056E+04</rscale>
<asrwt>0</asrwt>
<pdfrwt beam="1">  1        1 0.37127078E+00 0.22576056E+04</pdfrwt>
<pdfrwt beam="2">  1       -1 0.81230414E-01 0.22576056E+04</pdfrwt>
<totfact> 0.21304345E+00</totfact>
</mgrwt>
</event>
<event>
 6    1  0.1780144E-005  0.1806103E+04  0.7818608E-02  0.8703060E-01
         -1   -1    0    0    0  501 -0.00000000000E+00  0.00000000000E+00  0.11005902048E+04  0.11005902048E+04  0.00000000000E+00 0.  1.
          1   -1    0    0  501    0  0.00000000000E+00 -0.00000000000E+00 -0.74096829595E+03  0.74096829595E+03  0.00000000000E+00 0. -1.
         23    2    1    2    0    0 -0.57192792437E+03 -0.49541145982E+03  0.67853564316E+03  0.10204372947E+04  0.91365136344E+02 0.  0.
         11    1    3    3    0    0 -0.29305391462E+03 -0.20893927872E+03  0.28076326294E+03  0.45646930771E+03  0.00000000000E+00 0.  1.
        -11    1    3    3    0    0 -0.27887400975E+03 -0.28647218110E+03  0.39777238022E+03  0.56396798697E+03  0.00000000000E+00 0. -1.
         22    1    1    2    0    0  0.57192792437E+03  0.49541145982E+03 -0.31891373427E+03  0.82112120610E+03  0.00000000000E+00 0. -1.
<mgrwt>
<rscale>  0 0.18061035E+04</rscale>
<asrwt>0</asrwt>
<pdfrwt beam="1">  1        1 0.11399512E+00 0.18061035E+04</pdfrwt>
<pdfrwt beam="2">  1       -1 0.16932157E+00 0.18061035E+04</pdfrwt>
<totfact> 0.58592057E+00</totfact>
</mgrwt>
</event>
<event>
 6    1  0.1780144E-005  0.4120043E+04  0.7818608E-02  0.7980758E-01
         -1   -1    0    0    0  501 -0.00000000000E+00  0.00000000000E+00  0.20027569041E+04  0.20027569041E+04  0.00000000000E+00 0.  1.
          1   -1    0    0  501    0  0.00000000000E+00 -0.00000000000E+00 -0.21189233540E+04  0.21189233540E+04  0.00000000000E+00 0. -1.
         23    2    1    2    0    0 -0.14543412813E+04  0.70362708981E+03 -0.13351802452E+04  0.20977745594E+04  0.88046412986E+02 0.  0.
         13    1    3    3    0    0 -0.61274313095E+03  0.34198677205E+03 -0.59858697025E+03  0.92234237556E+03  0.00000000000E+00 0.  1.
        -13    1    3    3    0    0 -0.84159815035E+03  0.36164031777E+03 -0.73659327497E+03  0.11754321839E+04  0.00000000000E+00 0. -1.
         22    1    1    2    0    0  0.14543412813E+04 -0.70362708981E+03  0.12190137953E+04  0.20239056987E+04  0.00000000000E+00 0.  1.
<mgrwt>
<rscale>  0 0.41200429E+04</rscale>
<asrwt>0</asrwt>
<pdfrwt beam="1">  1        1 0.32598821E+00 0.41200429E+04</pdfrwt>
<pdfrwt beam="2">  1       -1 0.30811645E+00 0.41200429E+04</pdfrwt>
<totfact> 0.56083739E-02</totfact>
</mgrwt>
</event>
<event>
 6    1  0.1780144E-005  0.8224522E+03  0.7818608E-02  0.9528075E-01
         -3   -1    0    0    0  501 -0.00000000000E+00  0.00000000000E+00  0.10138896522E+04  0.10138896522E+04  0.00000000000E+00 0.  1.
          3   -1    0    0  501    0  0.00000000000E+00 -0.00000000000E+00 -0.16679022751E+03  0.16679022751E+03  0.00000000000E+00 0. -1.
         23    2    1    2    0    0 -0.31356006368E+03 -0.87428744860E+02  0.80028936955E+02  0.34739671529E+03  0.91192916858E+02 0.  0.
         13    1    3    3    0    0 -0.21180899513E+03 -0.97491117012E+02  0.35426519172E+02  0.23584445419E+03  0.00000000000E+00 0.  1.
        -13    1    3    3    0    0 -0.10175106855E+03  0.10062372152E+02  0.44602417783E+02  0.11155226110E+03  0.00000000000E+00 0. -1.
         22    1    1    2    0    0  0.31356006368E+03  0.87428744860E+02  0.76707048775E+03  0.83328316444E+03  0.00000000000E+00 0.  1.
<mgrwt>
<rscale>  0 0.82245215E+03</rscale>
<asrwt>0</asrwt>
<pdfrwt beam="1">  1        3 0.25660036E-01 0.82245215E+03</pdfrwt>
<pdfrwt beam="2">  1       -3 0.15598302E+00 0.82245215E+03</pdfrwt>
<totfact> 0.11169245E+01</totfact>
</mgrwt>
</event>
<event>
 6    1  0.1780144E-005  0.3189352E+04  0.7818608E-02  0.8191635E-01
          2   -1    0    0  501    0  0.00000000000E+00  0.00000000000E+00  0.15436578700E+04  0.15436578700E+04  0.00000000000E+00 0.  1.
         -2   -1    0    0    0  501 -0.00000000000E+00 -0.00000000000E+00 -0.16473802592E+04  0.16473802592E+04  0.00000000000E+00 0. -1.
         23    2    1    2    0    0 -0.15650675859E+04 -0.29407790106E+03  0.22435814595E+01  0.15950596998E+04  0.91060704833E+02 0.  0.
         11    1    3    3    0    0 -0.24166580822E+03 -0.73638096330E+02 -0.17942223353E+02  0.25327229512E+03  0.00000000000E+00 0. -1.
        -11    1    3    3    0    0 -0.13234017777E+04 -0.22043980473E+03  0.20185804813E+02  0.13417874047E+04  0.00000000000E+00 0.  1.
         22    1    1    2    0    0  0.15650675859E+04  0.29407790106E+03 -0.10596597067E+03  0.15959784295E+04  0.00000000000E+00 0.  1.
<mgrwt>
<rscale>  0 0.31893520E+04</rscale>
<asrwt>0</asrwt>
<pdfrwt beam="1">  1        2 0.23748583E+00 0.31893520E+04</pdfrwt>
<pdfrwt beam="2">  1       -2 0.25344312E+00 0.31893520E+04</pdfrwt>
<totfact> 0.61871021E-01</totfact>
</mgrwt>
</event>
<event>
 6    1  0.1780144E-005  0.1053855E+04  0.7818608E-02  0.9251373E-01
          3   -1    0    0  501    0  0.00000000000E+00  0.00000000000E+00  0.67345241756E+03  0.67345241756E+03  0.00000000000E+00 0. -1.
         -3   -1    0    0    0  501 -0.00000000000E+00 -0.00000000000E+00 -0.41228219366E+03  0.41228219366E+03  0.00000000000E+00 0.  1.
         23    2    1    2    0    0 -0.25738979562E+03 -0.40263333128E+03 -0.87025053859E+02  0.49446220548E+03  0.92500844894E+02 0.  0.
         13    1    3    3    0    0 -0.10921549301E+03 -0.15318447220E+03  0.10358567359E+02  0.18841657665E+03  0.00000000000E+00 0. -1.
        -13    1    3    3    0    0 -0.14817430261E+03 -0.24944885908E+03 -0.97383621218E+02  0.30604562883E+03  0.00000000000E+00 0.  1.
         22    1    1    2    0    0  0.25738979562E+03  0.40263333128E+03  0.34819527775E+03  0.59127240574E+03  0.00000000000E+00 0. -1.
<mgrwt>
<rscale>  0 0.10538547E+04</rscale>
<asrwt>0</asrwt>
<pdfrwt beam="1">  1        3 0.10360806E+00 0.10538547E+04</pdfrwt>
<pdfrwt beam="2">  1       -3 0.63428030E-01 0.10538547E+04</pdfrwt>
<totfact> 0.50687186E+00</totfact>
</mgrwt>
</event>
<event>
 6    1  0.1780144E-005  0.2735286E+04  0.7818608E-02  0.8323646E-01
         -2   -1    0    0    0  501 -0.00000000000E+00  0.00000000000E+00  0.17792283844E+04  0.17792283844E+04  0.00000000000E+00 0.  1.
          2   -1    0    0  501    0  0.00000000000E+00 -0.00000000000E+00 -0.10512687516E+04  0.10512687516E+04  0.00000000000E+00 0. -1.
         23    2    1    2    0    0  0.10547780762E+04 -0.83806966093E+03  0.12970601834E+03  0.13564466166E+04  0.90588221622E+02 0.  0.
         11    1    3    3    0    0  0.43747290175E+03 -0.34258992761E+03  0.98177137774E+02  0.56425982371E+03  0.00000000000E+00 0.  1.
        -11    1    3    3    0    0  0.61730517441E+03 -0.49547973332E+03  0.31528880567E+02  0.79218679287E+03  0.00000000000E+00 0. -1.
         22    1    1    2    0    0 -0.10547780762E+04  0.83806966093E+03  0.59825361444E+03  0.14740505194E+04  0.00000000000E+00 0. -1.
<mgrwt>
<rscale>  0 0.27352859E+04</rscale>
<asrwt>0</asrwt>
<pdfrwt beam="1">  1        2 0.16173365E+00 0.27352859E+04</pdfrwt>
<pdfrwt beam="2">  1       -2 0.27372744E+00 0.27352859E+04</pdfrwt>
<totfact> 0.94002040E-01</totfact>
</mgrwt>
</event>
<event>
 6    1  0.1780144E-005  0.1340909E+04  0.7818608E-02  0.8997738E-01
         -3   -1    0    0    0  501 -0.00000000000E+00  0.00000000000E+00  0.11521482803E+04  0.11521482803E+04  0.00000000000E+00 0. -1.
          3   -1    0    0  501    0  0.00000000000E+00 -0.00000000000E+00 -0.39014888668E+03  0.39014888668E+03  0.00000000000E+00 0.  1.
         23    2    1    2    0    0  0.32132418120E+02 -0.40942454508E+03 -0.22239170182E+03  0.47567315676E+03  0.90254820453E+02 0.  0.
         13    1    3    3    0    0 -0.21583627772E+02 -0.22665874634E+03 -0.14574221148E+03  0.27033466756E+03  0.00000000000E+00 0. -1.
        -13    1    3    3    0    0  0.53716045892E+02 -0.18276579874E+03 -0.76649490337E+02  0.20533848919E+03  0.00000000000E+00 0.  1.
         22    1    1    2    0    0 -0.32132418120E+02  0.40942454508E+03  0.98439109544E+03  0.10666240102E+04  0.00000000000E+00 0. -1.
<mgrwt>
<rscale>  0 0.13409092E+04</rscale>
<asrwt>0</asrwt>
<pdfrwt beam="1">  1        3 0.60022906E-01 0.13409092E+04</pdfrwt>
<pdfrwt beam="2">  1       -3 0.17725358E+00 0.13409092E+04</pdfrwt>
<totfact> 0.14336940E+00</totfact>
</mgrwt>
</event>
<event>
 6    1  0.1780144E-005  0.1365588E+04  0.7818608E-02  0.8979111E-01
         -1   -1    0    0    0  501 -0.00000000000E+00  0.00000000000E+00  0.27272943219E+03  0.27272943219E+03  0.00000000000E+00 0.  1.
          1   -1    0    0  501    0  0.00000000000E+00 -0.00000000000E+00 -0.17094147349E+04  0.17094147349E+04  0.00000000000E+00 0. -1.
         23    2    1    2    0    0  0.68049661221E+02 -0.59486154084E+03 -0.25475466107E+03  0.65720980991E+03  0.92378502632E+02 0.  0.
         11    1    3    3    0    0  0.42229825343E+02 -0.25312929942E+03 -0.15696256708E+03  0.30082394824E+03  0.00000000000E+00 0. -1.
        -11    1    3    3    0    0  0.25819835879E+02 -0.34173224142E+03 -0.97792093989E+02  0.35638586167E+03  0.00000000000E+00 0.  1.
         22    1    1    2    0    0 -0.68049661221E+02  0.59486154084E+03 -0.11819306417E+04  0.13249343572E+04  0.00000000000E+00 0. -1.
<mgrwt>
<rscale>  0 0.13655881E+04</rscale>
<asrwt>0</asrwt>
<pdfrwt beam="1">  1        1 0.26298688E+00 0.13655881E+04</pdfrwt>
<pdfrwt beam="2">  1       -1 0.41958374E-01 0.13655881E+04</pdfrwt>
<totfact> 0.25613127E+01</totfact>
</mgrwt>
</event>
<event>
 6    1  0.1780144E-005  0.1301415E+04  0.7818608E-02  0.9028444E-01
          1   -1    0    0  501    0  0.00000000000E+00  0.00000000000E+00  0.22960765571E+03  0.22960765571E+03  0.00000000000E+00 0. -1.
         -1   -1    0    0    0  501 -0.00000000000E+00 -0.00000000000E+00 -0.18441026763E+04  0.18441026763E+04  0.00000000000E+00 0.  1.
         23    2    1    2    0    0 -0.61640624276E+03  0.13237351633E+02 -0.49624351587E+03  0.79675367205E+03  0.91798166000E+02 0.  0.
         11    1    3    3    0    0 -0.15409347587E+03 -0.65668517254E+01 -0.17595838820E+03  0.23398563465E+03  0.00000000000E+00 0. -1.
        -11    1    3    3    0    0 -0.46231276689E+03  0.19804203358E+02 -0.32028512768E+03  0.56276803740E+03  0.00000000000E+00 0.  1.
         22    1    1    2    0    0  0.61640624276E+03 -0.13237351633E+02 -0.11182515047E+04  0.12769566599E+04  0.00000000000E+00 0.  1.
<mgrwt>
<rscale>  0 0.13014148E+04</rscale>
<asrwt>0</asrwt>
<pdfrwt beam="1">  1        1 0.35324256E-01 0.13014148E+04</pdfrwt>
<pdfrwt beam="2">  1       -1 0.28370810E+00 0.13014148E+04</pdfrwt>
<totfact> 0.51590072E+00</totfact>
</mgrwt>
</event>
<event>
 6    1  0.1780144E-005  0.3148469E+04  0.7818608E-02  0.8202560E-01
         -1   -1    0    0    0  501 -0.00000000000E+00  0.00000000000E+00  0.27115332947E+04  0.27115332947E+04  0.00000000000E+00 0.  1.
          1   -1    0    0  501    0  0.00000000000E+00 -0.00000000000E+00 -0.91395335954E+03  0.91395335954E+03  0.00000000000E+00 0. -1.
         23    2    1    2    0    0 -0.37626759925E+03  0.27275931214E+03  0.26298850750E+04  0.26722255178E+04  0.92297137524E+02 0.  0.
         11    1    3    3    0    0 -0.13558695191E+03  0.46239850232E+02  0.81139641082E+03  0.82394543555E+03  0.00000000000E+00 0. -1.
        -11    1    3    3    0    0 -0.24068064734E+03  0.22651946191E+03  0.18184886642E+04  0.18482800822E+04  0.00000000000E+00 0.  1.
         22    1    1    2    0    0  0.37626759925E+03 -0.27275931214E+03 -0.83230513980E+03  0.95326113649E+03  0.00000000000E+00 0. -1.
<mgrwt>
<rscale>  0 0.31484694E+04</rscale>
<asrwt>0</asrwt>
<pdfrwt beam="1">  1        1 0.14060821E+00 0.31484694E+04</pdfrwt>
<pdfrwt beam="2">  1       -1 0.41715896E+00 0.31484694E+04</pdfrwt>
<totfact> 0.81163346E-02</totfact>
</mgrwt>
</event>
<event>
 6    1  0.1780144E-005  0.2799878E+04  0.7818608E-02  0.8303306E-01
         -1   -1    0    0    0  501 -0.00000000000E+00  0.00000000000E+00  0.12370495571E+04  0.12370495571E+04  0.00000000000E+00 0.  1.
          1   -1    0    0  501    0  0.00000000000E+00 -0.00000000000E+00 -0.15842771642E+04  0.15842771642E+04  0.00000000000E+00 0. -1.
         23    2    1    2    0    0  0.97345143372E+03  0.26451869218E+03 -0.11496210738E+04  0.15323685732E+04  0.94588574108E+02 0.  0.
         11    1    3    3    0    0  0.69051163275E+03  0.20401152091E+03 -0.75806749341E+03  0.10455110426E+04  0.00000000000E+00 0. -1.
        -11    1    3    3    0    0  0.28293980097E+03  0.60507171275E+02 -0.39155358038E+03  0.48685753056E+03  0.00000000000E+00 0.  1.
         22    1    1    2    0    0 -0.97345143372E+03 -0.26451869218E+03  0.80239346668E+03  0.12889581481E+04  0.00000000000E+00 0.  1.
<mgrwt>
<rscale>  0 0.27998781E+04</rscale>
<asrwt>0</asrwt>
<pdfrwt beam="1">  1        1 0.24373495E+00 0.27998781E+04</pdfrwt>
<pdfrwt beam="2">  1       -1 0.19031532E+00 0.27998781E+04</pdfrwt>
<totfact> 0.87073235E-01</totfact>
</mgrwt>
</event>
<event>
 6    1  0.1780144E-005  0.3676736E+04  0.7818608E-02  0.8073137E-01
          1   -1    0    0  501    0  0.00000000000E+00  0.00000000000E+00  0.18160757854E+04  0.18160757854E+04  0.00000000000E+00 0. -1.
         -1   -1    0    0    0  501 -0.00000000000E+00 -0.00000000000E+00 -0.18609343339E+04  0.18609343339E+04  0.00000000000E+00 0.  1.
         23    2    1    2    0    0 -0.16121276898E+04 -0.31717539642E+03  0.79971564868E+03  0.18296169574E+04  0.91636083618E+02 0.  0.
         11    1    3    3    0    0 -0.42439981189E+03 -0.11248715129E+03  0.24594843850E+03  0.50324864027E+03  0.00000000000E+00 0.  1.
        -11    1    3    3    0    0 -0.11877278779E+04 -0.20468824514E+03  0.55376721018E+03  0.13263683171E+04  0.00000000000E+00 0. -1.
         22    1    1    2    0    0  0.16121276898E+04  0.31717539642E+03 -0.84457419716E+03  0.18473931619E+04  0.00000000000E+00 0.  1.
<mgrwt>
<rscale>  0 0.36767365E+04</rscale>
<asrwt>0</asrwt>
<pdfrwt beam="1">  1        1 0.27939628E+00 0.36767365E+04</pdfrwt>
<pdfrwt beam="2">  1       -1 0.28629759E+00 0.36767365E+04</pdfrwt>
<totfact> 0.12939691E-01</totfact>
</mgrwt>
</event>
<event>
 6    1  0.1780144E-005  0.3725341E+04  0.7818608E-02  0.8062369E-01
          2   -1    0    0  501    0  0.00000000000E+00  0.00000000000E+00  0.36638377276E+04  0.36638377276E+04  0.00000000000E+00 0. -1.
         -2   -1    0    0    0  501 -0.00000000000E+00 -0.00000000000E+00 -0.94696899821E+03  0.94696899821E+03  0.00000000000E+00 0.  1.
         23    2    1    2    0    0 -0.11515636168E+04  0.12528216757E+04  0.22934647538E+04  0.28572583686E+04  0.91015895203E+02 0.  0.
         13    1    3    3    0    0 -0.12739919269E+03  0.16759030848E+03  0.24697647100E+03  0.32452186833E+03  0.00000000000E+00 0. -1.
        -13    1    3    3    0    0 -0.10241644241E+04  0.10852313672E+04  0.20464882828E+04  0.25327365002E+04  0.00000000000E+00 0.  1.
         22    1    1    2    0    0  0.11515636168E+04 -0.12528216757E+04  0.42340397560E+03  0.17535483573E+04  0.00000000000E+00 0.  1.
<mgrwt>
<rscale>  0 0.37253407E+04</rscale>
<asrwt>0</asrwt>
<pdfrwt beam="1">  1        2 0.56366734E+00 0.37253407E+04</pdfrwt>
<pdfrwt beam="2">  1       -2 0.14568754E+00 0.37253407E+04</pdfrwt>
<totfact> 0.16166335E-01</totfact>
</mgrwt>
</event>
<event>
 6    1  0.1780144E-005  0.2610363E+04  0.7818608E-02  0.8364690E-01
          2   -1    0    0  501    0  0.00000000000E+00  0.00000000000E+00  0.31820067661E+04  0.31820067661E+04  0.00000000000E+00 0. -1.
         -2   -1    0    0    0  501 -0.00000000000E+00 -0.00000000000E+00 -0.53535371139E+03  0.53535371139E+03  0.00000000000E+00 0.  1.
         23    2    1    2    0    0  0.11750704986E+04 -0.56352759894E+03  0.12788018023E+04  0.18280825519E+04  0.90541345877E+02 0.  0.
         13    1    3    3    0    0  0.88223080170E+03 -0.39072017410E+03  0.98264303983E+03  0.13771640373E+04  0.00000000000E+00 0. -1.
        -13    1    3    3    0    0  0.29283969694E+03 -0.17280742483E+03  0.29615876248E+03  0.45091851456E+03  0.00000000000E+00 0.  1.
         22    1    1    2    0    0 -0.11750704986E+04  0.56352759894E+03  0.13678512524E+04  0.18892779256E+04  0.00000000000E+00 0. -1.
<mgrwt>
<rscale>  0 0.26103633E+04</rscale>
<asrwt>0</asrwt>
<pdfrwt beam="1">  1        2 0.48953949E+00 0.26103633E+04</pdfrwt>
<pdfrwt beam="2">  1       -2 0.82362112E-01 0.26103633E+04</pdfrwt>
<totfact> 0.15242116E+00</totfact>
</mgrwt>
</event>
<event>
 6    1  0.1780144E-005  0.3093817E+04  0.7818608E-02  0.8217437E-01
         -2   -1    0    0    0  501 -0.00000000000E+00  0.00000000000E+00  0.94014916621E+03  0.94014916621E+03  0.00000000000E+00 0.  1.
          2   -1    0    0  501    0  0.00000000000E+00 -0.00000000000E+00 -0.25452618247E+04  0.25452618247E+04  0.00000000000E+00 0. -1.
         23    2    1    2    0    0  0.17806733971E+02 -0.85724963066E+03  0.64551099624E+03  0.10769880953E+04  0.89581817466E+02 0.  0.
         11    1    3    3    0    0  0.45065803547E+02 -0.55836926854E+03  0.38679658275E+03  0.68074867839E+03  0.00000000000E+00 0. -1.
        -11    1    3    3    0    0 -0.27259069575E+02 -0.29888036212E+03  0.25871441349E+03  0.39623941687E+03  0.00000000000E+00 0.  1.
         22    1    1    2    0    0 -0.17806733971E+02  0.85724963066E+03 -0.22506236547E+04  0.24084228956E+04  0.00000000000E+00 0. -1.
<mgrwt>
<rscale>  0 0.30938169E+04</rscale>
<asrwt>0</asrwt>
<pdfrwt beam="1">  1        2 0.39157874E+00 0.30938169E+04</pdfrwt>
<pdfrwt beam="2">  1       -2 0.14463833E+00 0.30938169E+04</pdfrwt>
<totfact> 0.91772705E-01</totfact>
</mgrwt>
</event>
<event>
 6    1  0.1780144E-005  0.2799612E+04  0.7818608E-02  0.8303389E-01
         -2   -1    0    0    0  501 -0.00000000000E+00  0.00000000000E+00  0.19622280635E+04  0.19622280635E+04  0.00000000000E+00 0.  1.
          2   -1    0    0  501    0  0.00000000000E+00 -0.00000000000E+00 -0.99858799935E+03  0.99858799935E+03  0.00000000000E+00 0. -1.
         23    2    1    2    0    0  0.82606617966E+02  0.19880998427E+03  0.19435221208E+04  0.19575623023E+04  0.91775104875E+02 0.  0.
         13    1    3    3    0    0 -0.81552567812E+00  0.88162316871E+02  0.53219055706E+03  0.53944420306E+03  0.00000000000E+00 0. -1.
        -13    1    3    3    0    0  0.83422143645E+02  0.11064766740E+03  0.14113315638E+04  0.14181180992E+04  0.00000000000E+00 0.  1.
         22    1    1    2    0    0 -0.82606617966E+02 -0.19880998427E+03 -0.97988205667E+03  0.10032537606E+04  0.00000000000E+00 0. -1.
<mgrwt>
<rscale>  0 0.27996124E+04</rscale>
<asrwt>0</asrwt>
<pdfrwt beam="1">  1        2 0.15362892E+00 0.27996124E+04</pdfrwt>
<pdfrwt beam="2">  1       -2 0.30188124E+00 0.27996124E+04</pdfrwt>
<totfact> 0.67982843E-01</totfact>
</mgrwt>
</event>
<event>
 6    1  0.1780144E-005  0.3766084E+04  0.7818608E-02  0.8053473E-01
         -2   -1    0    0    0  501 -0.00000000000E+00  0.00000000000E+00  0.18418880538E+04  0.18418880538E+04  0.00000000000E+00 0. -1.
          2   -1    0    0  501    0  0.00000000000E+00 -0.00000000000E+00 -0.19251149703E+04  0.19251149703E+04  0.00000000000E+00 0.  1.
         23    2    1    2    0    0 -0.76090054121E+03  0.14753141396E+04  0.84531740662E+03  0.18649735807E+04  0.89685532000E+02 0.  0.
         13    1    3    3    0    0 -0.58738469420E+03  0.12033443287E+04  0.65897248054E+03  0.14924151844E+04  0.00000000000E+00 0.  1.
        -13    1    3    3    0    0 -0.17351584701E+03  0.27196981083E+03  0.18634492607E+03  0.37255839628E+03  0.00000000000E+00 0. -1.
         22    1    1    2    0    0  0.76090054121E+03 -0.14753141396E+04 -0.92854432305E+03  0.19020294435E+04  0.00000000000E+00 0.  1.
<mgrwt>
<rscale>  0 0.37660835E+04</rscale>
<asrwt>0</asrwt>
<pdfrwt beam="1">  1        2 0.29617153E+00 0.37660835E+04</pdfrwt>
<pdfrwt beam="2">  1       -2 0.28336740E+00 0.37660835E+04</pdfrwt>
<totfact> 0.23749513E-01</totfact>
</mgrwt>
</event>
<event>
 6    1  0.1780144E-005  0.2896059E+04  0.7818608E-02  0.8274051E-01
         -2   -1    0    0    0  501 -0.00000000000E+00  0.00000000000E+00  0.21052520434E+04  0.21052520434E+04  0.00000000000E+00 0.  1.
          2   -1    0    0  501    0  0.00000000000E+00 -0.00000000000E+00 -0.99597997323E+03  0.99597997323E+03  0.00000000000E+00 0. -1.
         23    2    1    2    0    0  0.18966253369E+03 -0.86919852808E+03  0.17766868191E+04  0.19890627827E+04  0.90976604295E+02 0.  0.
         11    1    3    3    0    0  0.11077389870E+03 -0.60206931324E+03  0.13009259954E+04  0.14377645010E+04  0.00000000000E+00 0. -1.
        -11    1    3    3    0    0  0.78888634995E+02 -0.26712921483E+03  0.47576082365E+03  0.55129828176E+03  0.00000000000E+00 0.  1.
         22    1    1    2    0    0 -0.18966253369E+03  0.86919852808E+03 -0.66741474889E+03  0.11121692339E+04  0.00000000000E+00 0. -1.
<mgrwt>
<rscale>  0 0.28960586E+04</rscale>
<asrwt>0</asrwt>
<pdfrwt beam="1">  1        2 0.15322769E+00 0.28960586E+04</pdfrwt>
<pdfrwt beam="2">  1       -2 0.32388493E+00 0.28960586E+04</pdfrwt>
<totfact> 0.49556136E-01</totfact>
</mgrwt>
</event>
<event>
 6    1  0.1780144E-005  0.4598842E+04  0.7818608E-02  0.7893557E-01
          2   -1    0    0  501    0  0.00000000000E+00  0.00000000000E+00  0.27513617347E+04  0.27513617347E+04  0.00000000000E+00 0. -1.
         -2   -1    0    0    0  501 -0.00000000000E+00 -0.00000000000E+00 -0.19217164988E+04  0.19217164988E+04  0.00000000000E+00 0.  1.
         23    2    1    2    0    0  0.13515073891E+04 -0.43541995695E+03  0.22516247157E+04  0.26635538115E+04  0.92424483167E+02 0.  0.
         11    1    3    3    0    0  0.47314029346E+03 -0.17227709371E+03  0.87412800702E+03  0.10087818927E+04  0.00000000000E+00 0.  1.
        -11    1    3    3    0    0  0.87836709565E+03 -0.26314286324E+03  0.13774967086E+04  0.16547719189E+04  0.00000000000E+00 0. -1.
         22    1    1    2    0    0 -0.13515073891E+04  0.43541995695E+03 -0.14219794797E+04  0.20095244220E+04  0.00000000000E+00 0.  1.
<mgrwt>
<rscale>  0 0.45988421E+04</rscale>
<asrwt>0</asrwt>
<pdfrwt beam="1">  1        2 0.42328642E+00 0.45988421E+04</pdfrwt>
<pdfrwt beam="2">  1       -2 0.29564869E+00 0.45988421E+04</pdfrwt>
<totfact> 0.62835695E-02</totfact>
</mgrwt>
</event>
<event>
 6    1  0.1780144E-005  0.3000583E+04  0.7818608E-02  0.8243564E-01
          2   -1    0    0  501    0  0.00000000000E+00  0.00000000000E+00  0.39378280281E+04  0.39378280281E+04  0.00000000000E+00 0. -1.
         -2   -1    0    0    0  501 -0.00000000000E+00 -0.00000000000E+00 -0.57160305122E+03  0.57160305122E+03  0.00000000000E+00 0.  1.
         23    2    1    2    0    0 -0.42692076267E+03  0.32599719376E+02  0.38434029144E+04  0.38683204310E+04  0.93983587607E+02 0.  0.
         11    1    3    3    0    0 -0.17341122250E+03  0.55603485535E+02  0.14375928194E+04  0.14490811965E+04  0.00000000000E+00 0. -1.
        -11    1    3    3    0    0 -0.25350954017E+03 -0.23003766159E+02  0.24058100950E+04  0.24192392345E+04  0.00000000000E+00 0.  1.
         22    1    1    2    0    0  0.42692076267E+03 -0.32599719376E+02 -0.47717793757E+03  0.64111064833E+03  0.00000000000E+00 0.  1.
<mgrwt>
<rscale>  0 0.30005830E+04</rscale>
<asrwt>0</asrwt>
<pdfrwt beam="1">  1        2 0.60581968E+00 0.30005830E+04</pdfrwt>
<pdfrwt beam="2">  1       -2 0.87938933E-01 0.30005830E+04</pdfrwt>
<totfact> 0.36594188E-01</totfact>
</mgrwt>
</event>
<event>
 6    1  0.1780144E-005  0.2314888E+04  0.7818608E-02  0.8472074E-01
          1   -1    0    0  501    0  0.00000000000E+00  0.00000000000E+00  0.12070496574E+04  0.12070496574E+04  0.00000000000E+00 0. -1.
         -1   -1    0    0    0  501 -0.00000000000E+00 -0.00000000000E+00 -0.11098769901E+04  0.11098769901E+04  0.00000000000E+00 0.  1.
         23    2    1    2    0    0 -0.10296385442E+04 -0.15746890541E+03 -0.45246486952E+03  0.11391943308E+04  0.89929291064E+02 0.  0.
         11    1    3    3    0    0 -0.18438369773E+03 -0.61797250607E+02 -0.72506829983E+02  0.20754153455E+03  0.00000000000E+00 0. -1.
        -11    1    3    3    0    0 -0.84525484647E+03 -0.95671654800E+02 -0.37995803954E+03  0.93165279628E+03  0.00000000000E+00 0.  1.
         22    1    1    2    0    0  0.10296385442E+04  0.15746890541E+03  0.54963753683E+03  0.11777323167E+04  0.00000000000E+00 0. -1.
<mgrwt>
<rscale>  0 0.23148880E+04</rscale>
<asrwt>0</asrwt>
<pdfrwt beam="1">  1        1 0.18569995E+00 0.23148880E+04</pdfrwt>
<pdfrwt beam="2">  1       -1 0.17075031E+00 0.23148880E+04</pdfrwt>
<totfact> 0.23161069E+00</totfact>
</mgrwt>
</event>
<event>
 6    1  0.1780144E-005  0.2556768E+04  0.7818608E-02  0.8383036E-01
         -2   -1    0    0    0  501 -0.00000000000E+00  0.00000000000E+00  0.94964503203E+03  0.94964503203E+03  0.00000000000E+00 0.  1.
          2   -1    0    0  501    0  0.00000000000E+00 -0.00000000000E+00 -0.17209228504E+04  0.17209228504E+04  0.00000000000E+00 0. -1.
         23    2    1    2    0    0  0.11651160231E+04 -0.44883030756E+03 -0.66444656472E+03  0.14174290597E+04  0.93123088010E+02 0.  0.
         13    1    3    3    0    0  0.84042400271E+03 -0.36043776324E+03 -0.51156455855E+03  0.10478197283E+04  0.00000000000E+00 0. -1.
        -13    1    3    3    0    0  0.32469202042E+03 -0.88392544325E+02 -0.15288200617E+03  0.36960933135E+03  0.00000000000E+00 0.  1.
         22    1    1    2    0    0 -0.11651160231E+04  0.44883030756E+03 -0.10683125367E+03  0.12531388228E+04  0.00000000000E+00 0.  1.
<mgrwt>
<rscale>  0 0.25567681E+04</rscale>
<asrwt>0</asrwt>
<pdfrwt beam="1">  1        2 0.26475736E+00 0.25567681E+04</pdfrwt>
<pdfrwt beam="2">  1       -2 0.14609924E+00 0.25567681E+04</pdfrwt>
<totfact> 0.27230107E+00</totfact>
</mgrwt>
</event>
<event>
 6    1  0.1780144E-005  0.9314616E+03  0.7818608E-02  0.9387085E-01
         -2   -1    0    0    0  501 -0.00000000000E+00  0.00000000000E+00  0.74185489490E+03  0.74185489490E+03  0.00000000000E+00 0.  1.
          2   -1    0    0  501    0  0.00000000000E+00 -0.00000000000E+00 -0.29238222229E+03  0.29238222229E+03  0.00000000000E+00 0. -1.
         23    2    1    2    0    0  0.21551104624E+03  0.25877761321E+03 -0.12292477739E+03  0.37012138562E+03  0.92024317711E+02 0.  0.
         11    1    3    3    0    0  0.70954072746E+02  0.11010440765E+03 -0.39429120715E+01  0.13104582244E+03  0.00000000000E+00 0.  1.
        -11    1    3    3    0    0  0.14455697349E+03  0.14867320555E+03 -0.11898186532E+03  0.23907556318E+03  0.00000000000E+00 0. -1.
         22    1    1    2    0    0 -0.21551104624E+03 -0.25877761321E+03  0.57239745001E+03  0.66411573157E+03  0.00000000000E+00 0.  1.
<mgrwt>
<rscale>  0 0.93146161E+03</rscale>
<asrwt>0</asrwt>
<pdfrwt beam="1">  1        2 0.44981881E-01 0.93146161E+03</pdfrwt>
<pdfrwt beam="2">  1       -2 0.11413152E+00 0.93146161E+03</pdfrwt>
<totfact> 0.67971998E+01</totfact>
</mgrwt>
</event>
<event>
 6    1  0.1780144E-005  0.4195053E+04  0.7818608E-02  0.7966314E-01
          1   -1    0    0  501    0  0.00000000000E+00  0.00000000000E+00  0.30046281614E+04  0.30046281614E+04  0.00000000000E+00 0. -1.
         -1   -1    0    0    0  501 -0.00000000000E+00 -0.00000000000E+00 -0.14642798674E+04  0.14642798674E+04  0.00000000000E+00 0.  1.
         23    2    1    2    0    0 -0.38897349219E+02 -0.66428492088E+03 -0.13478223859E+04  0.15050731251E+04  0.76370597018E+02 0.  0.
         13    1    3    3    0    0  0.21169907173E+02 -0.18625364060E+03 -0.35067421826E+03  0.39763172781E+03  0.00000000000E+00 0. -1.
        -13    1    3    3    0    0 -0.60067256392E+02 -0.47803128028E+03 -0.99714816765E+03  0.11074413973E+04  0.00000000000E+00 0.  1.
         22    1    1    2    0    0  0.38897349219E+02  0.66428492088E+03  0.28881706799E+04  0.29638349036E+04  0.00000000000E+00 0. -1.
<mgrwt>
<rscale>  0 0.41950526E+04</rscale>
<asrwt>0</asrwt>
<pdfrwt beam="1">  1        1 0.46225048E+00 0.41950526E+04</pdfrwt>
<pdfrwt beam="2">  1       -1 0.22527383E+00 0.41950526E+04</pdfrwt>
<totfact> 0.46340383E-02</totfact>
</mgrwt>
</event>
<event>
 6    1  0.1780144E-005  0.1861388E+04  0.7818608E-02  0.8674319E-01
          1   -1    0    0  501    0  0.00000000000E+00  0.00000000000E+00  0.13959941330E+04  0.13959941330E+04  0.00000000000E+00 0. -1.
         -1   -1    0    0    0  501 -0.00000000000E+00 -0.00000000000E+00 -0.62048316843E+03  0.62048316843E+03  0.00000000000E+00 0.  1.
         23    2    1    2    0    0  0.46639997558E+03 -0.58144552945E+03  0.98837110640E+03  0.12412887560E+04  0.91172863225E+02 0.  0.
         13    1    3    3    0    0  0.24386665458E+03 -0.30270732766E+03  0.43984639576E+03  0.58699874216E+03  0.00000000000E+00 0.  1.
        -13    1    3    3    0    0  0.22253332100E+03 -0.27873820180E+03  0.54852471064E+03  0.65429001389E+03  0.00000000000E+00 0. -1.
         22    1    1    2    0    0 -0.46639997558E+03  0.58144552945E+03 -0.21286014181E+03  0.77518854540E+03  0.00000000000E+00 0.  1.
<mgrwt>
<rscale>  0 0.18613875E+04</rscale>
<asrwt>0</asrwt>
<pdfrwt beam="1">  1        1 0.21476833E+00 0.18613875E+04</pdfrwt>
<pdfrwt beam="2">  1       -1 0.95458949E-01 0.18613875E+04</pdfrwt>
<totfact> 0.76885412E+00</totfact>
</mgrwt>
</event>
<event>
 6    1  0.1780144E-005  0.2448051E+04  0.7818608E-02  0.8421730E-01
          2   -1    0    0  501    0  0.00000000000E+00  0.00000000000E+00  0.14054901231E+04  0.14054901231E+04  0.00000000000E+00 0.  1.
         -2   -1    0    0    0  501 -0.00000000000E+00 -0.00000000000E+00 -0.10659904277E+04  0.10659904277E+04  0.00000000000E+00 0. -1.
         23    2    1    2    0    0 -0.12012579440E+04 -0.10340732641E+03 -0.32532587439E+02  0.12096874843E+04  0.92583568569E+02 0.  0.
         13    1    3    3    0    0 -0.99634834512E+03 -0.12031185013E+03 -0.31458095028E+02  0.10040789699E+04  0.00000000000E+00 0.  1.
        -13    1    3    3    0    0 -0.20490959890E+03  0.16904523723E+02 -0.10744924109E+01  0.20560851436E+03  0.00000000000E+00 0. -1.
         22    1    1    2    0    0  0.12012579440E+04  0.10340732641E+03  0.37203228286E+03  0.12617930665E+04  0.00000000000E+00 0.  1.
<mgrwt>
<rscale>  0 0.24480515E+04</rscale>
<asrwt>0</asrwt>
<pdfrwt beam="1">  1        2 0.21622925E+00 0.24480515E+04</pdfrwt>
<pdfrwt beam="2">  1       -2 0.16399853E+00 0.24480515E+04</pdfrwt>
<totfact> 0.30298860E+00</totfact>
</mgrwt>
</event>
<event>
 6    1  0.1780144E-005  0.2742413E+04  0.7818608E-02  0.8321373E-01
         -2   -1    0    0    0  501 -0.00000000000E+00  0.00000000000E+00  0.54188602277E+03  0.54188602277E+03  0.00000000000E+00 0.  1.
          2   -1    0    0  501    0  0.00000000000E+00 -0.00000000000E+00 -0.34697475583E+04  0.34697475583E+04  0.00000000000E+00 0. -1.
         23    2    1    2    0    0 -0.26745657822E+03 -0.12895650077E+02 -0.34304514328E+04  0.34421637190E+04  0.93780149097E+02 0.  0.
         13    1    3    3    0    0 -0.69098317950E+02  0.60613938150E+01 -0.14640228090E+04  0.14656650721E+04  0.00000000000E+00 0.  1.
        -13    1    3    3    0    0 -0.19835826027E+03 -0.18957043892E+02 -0.19664286238E+04  0.19764986470E+04  0.00000000000E+00 0. -1.
         22    1    1    2    0    0  0.26745657822E+03  0.12895650077E+02  0.50258989726E+03  0.56946986211E+03  0.00000000000E+00 0.  1.
<mgrwt>
<rscale>  0 0.27424133E+04</rscale>
<asrwt>0</asrwt>
<pdfrwt beam="1">  1        2 0.53380733E+00 0.27424133E+04</pdfrwt>
<pdfrwt beam="2">  1       -2 0.83367079E-01 0.27424133E+04</pdfrwt>
<totfact> 0.93962376E-01</totfact>
</mgrwt>
</event>
<event>
 6    1  0.1780144E-005  0.1281082E+04  0.7818608E-02  0.9044703E-01
         -2   -1    0    0    0  501 -0.00000000000E+00  0.00000000000E+00  0.13378459929E+03  0.13378459929E+03  0.00000000000E+00 0.  1.
          2   -1    0    0  501    0  0.00000000000E+00 -0.00000000000E+00 -0.30668167981E+04  0.30668167981E+04  0.00000000000E+00 0. -1.
         23    2    1    2    0    0 -0.42213068620E+03 -0.20127508706E+03 -0.25556845416E+04  0.25996877336E+04  0.90259954233E+02 0.  0.
         13    1    3    3    0    0 -0.23683254237E+03 -0.13091115360E+03 -0.12422797350E+04  0.12714111543E+04  0.00000000000E+00 0. -1.
        -13    1    3    3    0    0 -0.18529814384E+03 -0.70363933460E+02 -0.13134048065E+04  0.13282765793E+04  0.00000000000E+00 0.  1.
         22    1    1    2    0    0  0.42213068620E+03  0.20127508706E+03 -0.37734765724E+03  0.60091366379E+03  0.00000000000E+00 0.  1.
<mgrwt>
<rscale>  0 0.12810821E+04</rscale>
<asrwt>0</asrwt>
<pdfrwt beam="1">  1        2 0.47181797E+00 0.12810821E+04</pdfrwt>
<pdfrwt beam="2">  1       -2 0.20582246E-01 0.12810821E+04</pdfrwt>
<totfact> 0.31924551E+01</totfact>
</mgrwt>
</event>
<event>
 6    1  0.1780144E-005  0.1833261E+04  0.7818608E-02  0.8688809E-01
          2   -1    0    0  501    0  0.00000000000E+00  0.00000000000E+00  0.23546526947E+04  0.23546526947E+04  0.00000000000E+00 0. -1.
         -2   -1    0    0    0  501 -0.00000000000E+00 -0.00000000000E+00 -0.35683012803E+03  0.35683012803E+03  0.00000000000E+00 0.  1.
         23    2    1    2    0    0 -0.57336088405E+03 -0.20274348837E+03 -0.90178861634E+01  0.61451924924E+03  0.87777901473E+02 0.  0.
         13    1    3    3    0    0 -0.13782099007E+03 -0.86743131739E+02 -0.16952653937E+02  0.16372656682E+03  0.00000000000E+00 0. -1.
        -13    1    3    3    0    0 -0.43553989398E+03 -0.11600035663E+03  0.79347677732E+01  0.45079268243E+03  0.00000000000E+00 0.  1.
         22    1    1    2    0    0  0.57336088405E+03  0.20274348837E+03  0.20068404528E+04  0.20969635735E+04  0.00000000000E+00 0. -1.
<mgrwt>
<rscale>  0 0.18332605E+04</rscale>
<asrwt>0</asrwt>
<pdfrwt beam="1">  1        2 0.36225425E+00 0.18332605E+04</pdfrwt>
<pdfrwt beam="2">  1       -2 0.54896944E-01 0.18332605E+04</pdfrwt>
<totfact> 0.12409365E+01</totfact>
</mgrwt>
</event>
<event>
 6    1  0.1780144E-005  0.7826208E+03  0.7818608E-02  0.9585519E-01
         -2   -1    0    0    0  501 -0.00000000000E+00  0.00000000000E+00  0.41366400444E+02  0.41366400444E+02  0.00000000000E+00 0.  1.
          2   -1    0    0  501    0  0.00000000000E+00 -0.00000000000E+00 -0.37016472096E+04  0.37016472096E+04  0.00000000000E+00 0. -1.
         23    2    1    2    0    0 -0.33633984059E+03 -0.78110121454E+02 -0.26800907151E+04  0.27037839434E+04  0.91300012397E+02 0.  0.
         11    1    3    3    0    0 -0.25428476662E+03 -0.19304232673E+02 -0.20156296176E+04  0.20316978494E+04  0.00000000000E+00 0. -1.
        -11    1    3    3    0    0 -0.82055073962E+02 -0.58805888781E+02 -0.66446109746E+03  0.67208609400E+03  0.00000000000E+00 0.  1.
         22    1    1    2    0    0  0.33633984059E+03  0.78110121454E+02 -0.98019009406E+03  0.10392296666E+04  0.00000000000E+00 0.  1.
<mgrwt>
<rscale>  0 0.78262078E+03</rscale>
<asrwt>0</asrwt>
<pdfrwt beam="1">  1        2 0.56948439E+00 0.78262078E+03</pdfrwt>
<pdfrwt beam="2">  1       -2 0.63640594E-02 0.78262078E+03</pdfrwt>
<totfact> 0.89028669E+01</totfact>
</mgrwt>
</event>
<event>
 6    1  0.1780144E-005  0.2641221E+04  0.7818608E-02  0.8354333E-01
         -2   -1    0    0    0  501 -0.00000000000E+00  0.00000000000E+00  0.14514018319E+04  0.14514018319E+04  0.00000000000E+00 0. -1.
          2   -1    0    0  501    0  0.00000000000E+00 -0.00000000000E+00 -0.12016057263E+04  0.12016057263E+04  0.00000000000E+00 0.  1.
         23    2    1    2    0    0  0.37069867330E+03  0.61792755591E+02 -0.11448650274E+04  0.12085991924E+04  0.93596078633E+02 0.  0.
         13    1    3    3    0    0  0.13081968206E+03  0.52611575319E+02 -0.32397511533E+03  0.35332936819E+03  0.00000000000E+00 0. -1.
        -13    1    3    3    0    0  0.23987899124E+03  0.91811802720E+01 -0.82088991206E+03  0.85526982423E+03  0.00000000000E+00 0.  1.
         22    1    1    2    0    0 -0.37069867330E+03 -0.61792755591E+02  0.13946611330E+04  0.14444083657E+04  0.00000000000E+00 0. -1.
<mgrwt>
<rscale>  0 0.26412215E+04</rscale>
<asrwt>0</asrwt>
<pdfrwt beam="1">  1        2 0.18486242E+00 0.26412215E+04</pdfrwt>
<pdfrwt beam="2">  1       -2 0.22329259E+00 0.26412215E+04</pdfrwt>
<totfact> 0.15695169E+00</totfact>
</mgrwt>
</event>
<event>
 6    1  0.1780144E-005  0.3158536E+04  0.7818608E-02  0.8199854E-01
          2   -1    0    0  501    0  0.00000000000E+00  0.00000000000E+00  0.17798454263E+04  0.17798454263E+04  0.00000000000E+00 0. -1.
         -2   -1    0    0    0  501 -0.00000000000E+00 -0.00000000000E+00 -0.14012947566E+04  0.14012947566E+04  0.00000000000E+00 0.  1.
         23    2    1    2    0    0  0.86126418566E+03 -0.75901035423E+02 -0.11400109397E+04  0.14336945254E+04  0.91203535842E+02 0.  0.
         11    1    3    3    0    0  0.62782255156E+03 -0.95782361711E+02 -0.82789357388E+03  0.10434285729E+04  0.00000000000E+00 0. -1.
        -11    1    3    3    0    0  0.23344163410E+03  0.19881326287E+02 -0.31211736578E+03  0.39026595251E+03  0.00000000000E+00 0.  1.
         22    1    1    2    0    0 -0.86126418566E+03  0.75901035423E+02  0.15185616093E+04  0.17474456575E+04  0.00000000000E+00 0. -1.
<mgrwt>
<rscale>  0 0.31585364E+04</rscale>
<asrwt>0</asrwt>
<pdfrwt beam="1">  1        2 0.27382238E+00 0.31585364E+04</pdfrwt>
<pdfrwt beam="2">  1       -2 0.21558381E+00 0.31585364E+04</pdfrwt>
<totfact> 0.78889257E-01</totfact>
</mgrwt>
</event>
<event>
 6    1  0.1780144E-005  0.2686973E+04  0.7818608E-02  0.8339244E-01
          2   -1    0    0  501    0  0.00000000000E+00  0.00000000000E+00  0.12224886688E+04  0.12224886688E+04  0.00000000000E+00 0.  1.
         -2   -1    0    0    0  501 -0.00000000000E+00 -0.00000000000E+00 -0.14764606255E+04  0.14764606255E+04  0.00000000000E+00 0. -1.
         23    2    1    2    0    0 -0.36152865219E+02  0.10667922994E+04 -0.94405283819E+03  0.14279007262E+04  0.91169528152E+02 0.  0.
         11    1    3    3    0    0  0.24763662345E+02  0.46647502779E+03 -0.43868274058E+03  0.64082348381E+03  0.00000000000E+00 0.  1.
        -11    1    3    3    0    0 -0.60916527564E+02  0.60031727158E+03 -0.50537009761E+03  0.78707724236E+03  0.00000000000E+00 0. -1.
         22    1    1    2    0    0  0.36152865219E+02 -0.10667922994E+04  0.69008088150E+03  0.12710485682E+04  0.00000000000E+00 0.  1.
<mgrwt>
<rscale>  0 0.26869733E+04</rscale>
<asrwt>0</asrwt>
<pdfrwt beam="1">  1        2 0.18807518E+00 0.26869733E+04</pdfrwt>
<pdfrwt beam="2">  1       -2 0.22714779E+00 0.26869733E+04</pdfrwt>
<totfact> 0.14368838E+00</totfact>
</mgrwt>
</event>
<event>
 6    1  0.1780144E-005  0.2013282E+04  0.7818608E-02  0.8600436E-01
         -1   -1    0    0    0  501 -0.00000000000E+00  0.00000000000E+00  0.49576489621E+03  0.49576489621E+03  0.00000000000E+00 0.  1.
          1   -1    0    0  501    0  0.00000000000E+00 -0.00000000000E+00 -0.20439648483E+04  0.20439648483E+04  0.00000000000E+00 0. -1.
         23    2    1    2    0    0  0.59952204519E+03 -0.79994828095E+03 -0.65107894541E+03  0.11965357766E+04  0.91924624327E+02 0.  0.
         11    1    3    3    0    0  0.38326573937E+03 -0.53987367126E+03 -0.38249595312E+03  0.76463021262E+03  0.00000000000E+00 0. -1.
        -11    1    3    3    0    0  0.21625630582E+03 -0.26007460968E+03 -0.26858299229E+03  0.43190556394E+03  0.00000000000E+00 0.  1.
         22    1    1    2    0    0 -0.59952204519E+03  0.79994828095E+03 -0.89712100663E+03  0.13431939679E+04  0.00000000000E+00 0.  1.
<mgrwt>
<rscale>  0 0.20132819E+04</rscale>
<asrwt>0</asrwt>
<pdfrwt beam="1">  1        1 0.31445613E+00 0.20132819E+04</pdfrwt>
<pdfrwt beam="2">  1       -1 0.76271523E-01 0.20132819E+04</pdfrwt>
<totfact> 0.44487292E+00</totfact>
</mgrwt>
</event>
<event>
 6    1  0.1780144E-005  0.2173509E+04  0.7818608E-02  0.8529536E-01
         -2   -1    0    0    0  501 -0.00000000000E+00  0.00000000000E+00  0.59820592289E+03  0.59820592289E+03  0.00000000000E+00 0.  1.
          2   -1    0    0  501    0  0.00000000000E+00 -0.00000000000E+00 -0.19742961296E+04  0.19742961296E+04  0.00000000000E+00 0. -1.
         23    2    1    2    0    0 -0.39691879412E+03  0.93327329060E+03 -0.11450813591E+04  0.15323536728E+04  0.91394176793E+02 0.  0.
         11    1    3    3    0    0 -0.29440435188E+03  0.58011617171E+03 -0.73260045502E+03  0.97975105092E+03  0.00000000000E+00 0.  1.
        -11    1    3    3    0    0 -0.10251444224E+03  0.35315711889E+03 -0.41248090407E+03  0.55260262188E+03  0.00000000000E+00 0. -1.
         22    1    1    2    0    0  0.39691879412E+03 -0.93327329060E+03 -0.23100884761E+03  0.10401483797E+04  0.00000000000E+00 0.  1.
<mgrwt>
<rscale>  0 0.21735093E+04</rscale>
<asrwt>0</asrwt>
<pdfrwt beam="1">  1        2 0.30373786E+00 0.21735093E+04</pdfrwt>
<pdfrwt beam="2">  1       -2 0.92031682E-01 0.21735093E+04</pdfrwt>
<totfact> 0.63471450E+00</totfact>
</mgrwt>
</event>
<event>
 6    1  0.1780144E-005  0.2611171E+04  0.7818608E-02  0.8364417E-01
         -2   -1    0    0    0  501 -0.00000000000E+00  0.00000000000E+00  0.82862816542E+03  0.82862816542E+03  0.00000000000E+00 0.  1.
          2   -1    0    0  501    0  0.00000000000E+00 -0.00000000000E+00 -0.20570786236E+04  0.20570786236E+04  0.00000000000E+00 0. -1.
         23    2    1    2    0    0 -0.11410255920E+04 -0.42428768231E+03 -0.11316066215E+04  0.16645032156E+04  0.89877526343E+02 0.  0.
         13    1    3    3    0    0 -0.16671715433E+03 -0.31141495528E+02 -0.14224938124E+03  0.22135782966E+03  0.00000000000E+00 0.  1.
        -13    1    3    3    0    0 -0.97430843771E+03 -0.39314618679E+03 -0.98935724030E+03  0.14431453859E+04  0.00000000000E+00 0. -1.
         22    1    1    2    0    0  0.11410255920E+04  0.42428768231E+03 -0.96843836616E+02  0.12212035734E+04  0.00000000000E+00 0.  1.
<mgrwt>
<rscale>  0 0.26111708E+04</rscale>
<asrwt>0</asrwt>
<pdfrwt beam="1">  1        2 0.31647363E+00 0.26111708E+04</pdfrwt>
<pdfrwt beam="2">  1       -2 0.12748126E+00 0.26111708E+04</pdfrwt>
<totfact> 0.25041064E+00</totfact>
</mgrwt>
</event>
<event>
 6    1  0.1780144E-005  0.1712901E+04  0.7818608E-02  0.8754041E-01
          2   -1    0    0  501    0  0.00000000000E+00  0.00000000000E+00  0.15545363597E+04  0.15545363597E+04  0.00000000000E+00 0. -1.
         -2   -1    0    0    0  501 -0.00000000000E+00 -0.00000000000E+00 -0.47184959847E+03  0.47184959847E+03  0.00000000000E+00 0.  1.
         23    2    1    2    0    0 -0.69862280669E+03 -0.47208357170E+03  0.38112645347E+03  0.92951605241E+03  0.88351533455E+02 0.  0.
         11    1    3    3    0    0 -0.32901886326E+03 -0.24950286583E+03  0.22807351668E+03  0.47172303467E+03  0.00000000000E+00 0. -1.
        -11    1    3    3    0    0 -0.36960394343E+03 -0.22258070587E+03  0.15305293679E+03  0.45779301774E+03  0.00000000000E+00 0.  1.
         22    1    1    2    0    0  0.69862280669E+03  0.47208357170E+03  0.70156030774E+03  0.10968699057E+04  0.00000000000E+00 0. -1.
<mgrwt>
<rscale>  0 0.17129009E+04</rscale>
<asrwt>0</asrwt>
<pdfrwt beam="1">  1        2 0.23915944E+00 0.17129009E+04</pdfrwt>
<pdfrwt beam="2">  1       -2 0.72592247E-01 0.17129009E+04</pdfrwt>
<totfact> 0.19293532E+01</totfact>
</mgrwt>
</event>
<event>
 6    1  0.1780144E-005  0.6815477E+03  0.7818608E-02  0.9749319E-01
          2   -1    0    0  501    0  0.00000000000E+00  0.00000000000E+00  0.11589225982E+04  0.11589225982E+04  0.00000000000E+00 0. -1.
         -2   -1    0    0    0  501 -0.00000000000E+00 -0.00000000000E+00 -0.10020238966E+03  0.10020238966E+03  0.00000000000E+00 0.  1.
         23    2    1    2    0    0 -0.14495113939E+03  0.27569775421E+02  0.10939104839E+04  0.11074368842E+04  0.89472790977E+02 0.  0.
         11    1    3    3    0    0 -0.40664377660E+02 -0.31285370326E+02  0.26495891943E+03  0.26988070511E+03  0.00000000000E+00 0. -1.
        -11    1    3    3    0    0 -0.10428676174E+03  0.58855145748E+02  0.82895156445E+03  0.83755617904E+03  0.00000000000E+00 0.  1.
         22    1    1    2    0    0  0.14495113939E+03 -0.27569775421E+02 -0.35190275327E+02  0.15168810371E+03  0.00000000000E+00 0.  1.
<mgrwt>
<rscale>  0 0.68154769E+03</rscale>
<asrwt>0</asrwt>
<pdfrwt beam="1">  1        2 0.17829577E+00 0.68154769E+03</pdfrwt>
<pdfrwt beam="2">  1       -2 0.15415753E-01 0.68154769E+03</pdfrwt>
<totfact> 0.67693302E+02</totfact>
</mgrwt>
</event>
<event>
 6    1  0.1780144E-005  0.2397426E+04  0.7818608E-02  0.8440468E-01
          2   -1    0    0  501    0  0.00000000000E+00  0.00000000000E+00  0.20349471618E+04  0.20349471618E+04  0.00000000000E+00 0. -1.
         -2   -1    0    0    0  501 -0.00000000000E+00 -0.00000000000E+00 -0.70611831197E+03  0.70611831197E+03  0.00000000000E+00 0.  1.
         23    2    1    2    0    0 -0.17713114300E+03 -0.10468494642E+04  0.33387206736E+02  0.10661212081E+04  0.90722005952E+02 0.  0.
         13    1    3    3    0    0 -0.96413971401E+02 -0.76355163342E+03 -0.42302038844E+00  0.76961479308E+03  0.00000000000E+00 0. -1.
        -13    1    3    3    0    0 -0.80717171603E+02 -0.28329783074E+03  0.33810227124E+02  0.29650641503E+03  0.00000000000E+00 0.  1.
         22    1    1    2    0    0  0.17713114300E+03  0.10468494642E+04  0.12954416431E+04  0.16749442657E+04  0.00000000000E+00 0. -1.
<mgrwt>
<rscale>  0 0.23974265E+04</rscale>
<asrwt>0</asrwt>
<pdfrwt beam="1">  1        2 0.31306879E+00 0.23974265E+04</pdfrwt>
<pdfrwt beam="2">  1       -2 0.10863359E+00 0.23974265E+04</pdfrwt>
<totfact> 0.38908999E+00</totfact>
</mgrwt>
</event>
<event>
 6    1  0.1780144E-005  0.1690042E+04  0.7818608E-02  0.8767064E-01
          1   -1    0    0  501    0  0.00000000000E+00  0.00000000000E+00  0.14949546368E+04  0.14949546368E+04  0.00000000000E+00 0. -1.
         -1   -1    0    0    0  501 -0.00000000000E+00 -0.00000000000E+00 -0.47764678311E+03  0.47764678311E+03  0.00000000000E+00 0.  1.
         23    2    1    2    0    0  0.26882417222E+03 -0.38244569066E+03  0.13285661620E+04  0.14109851128E+04  0.85204458790E+02 0.  0.
         13    1    3    3    0    0  0.13154976491E+03 -0.13003205781E+03  0.59776646561E+03  0.62573031261E+03  0.00000000000E+00 0. -1.
        -13    1    3    3    0    0  0.13727440731E+03 -0.25241363285E+03  0.73079969640E+03  0.78525480019E+03  0.00000000000E+00 0.  1.
         22    1    1    2    0    0 -0.26882417222E+03  0.38244569066E+03 -0.31125830834E+03  0.56161630709E+03  0.00000000000E+00 0.  1.
<mgrwt>
<rscale>  0 0.16900417E+04</rscale>
<asrwt>0</asrwt>
<pdfrwt beam="1">  1        1 0.22999302E+00 0.16900417E+04</pdfrwt>
<pdfrwt beam="2">  1       -1 0.73484121E-01 0.16900417E+04</pdfrwt>
<totfact> 0.11718360E+01</totfact>
</mgrwt>
</event>
<event>
 6    1  0.1780144E-005  0.2815842E+04  0.7818608E-02  0.8298367E-01
         -1   -1    0    0    0  501 -0.00000000000E+00  0.00000000000E+00  0.13426824999E+04  0.13426824999E+04  0.00000000000E+00 0.  1.
          1   -1    0    0  501    0  0.00000000000E+00 -0.00000000000E+00 -0.14763292771E+04  0.14763292771E+04  0.00000000000E+00 0. -1.
         23    2    1    2    0    0  0.86979439876E+02  0.11595156947E+04  0.72522158652E+03  0.13734333683E+04  0.91273207238E+02 0.  0.
         11    1    3    3    0    0  0.62184183335E+00  0.26693130594E+02  0.35251173882E+02  0.44221659492E+02  0.00000000000E+00 0.  1.
        -11    1    3    3    0    0  0.86357598043E+02  0.11328225641E+04  0.68997041264E+03  0.13292117088E+04  0.00000000000E+00 0. -1.
         22    1    1    2    0    0 -0.86979439876E+02 -0.11595156947E+04 -0.85886836372E+03  0.14455784086E+04  0.00000000000E+00 0. -1.
<mgrwt>
<rscale>  0 0.28158420E+04</rscale>
<asrwt>0</asrwt>
<pdfrwt beam="1">  1        1 0.22712758E+00 0.28158420E+04</pdfrwt>
<pdfrwt beam="2">  1       -1 0.20656654E+00 0.28158420E+04</pdfrwt>
<totfact> 0.79693655E-01</totfact>
</mgrwt>
</event>
<event>
 6    1  0.1780144E-005  0.4927482E+04  0.7818608E-02  0.7839792E-01
          2   -1    0    0  501    0  0.00000000000E+00  0.00000000000E+00  0.26028809760E+04  0.26028809760E+04  0.00000000000E+00 0.  1.
         -2   -1    0    0    0  501 -0.00000000000E+00 -0.00000000000E+00 -0.23320387777E+04  0.23320387777E+04  0.00000000000E+00 0. -1.
         23    2    1    2    0    0 -0.14548227788E+04 -0.94913036205E+03  0.18840920035E+04  0.25642800308E+04  0.91496649950E+02 0.  0.
         13    1    3    3    0    0 -0.28414504962E+03 -0.14349454143E+03  0.35124400904E+03  0.47402684158E+03  0.00000000000E+00 0.  1.
        -13    1    3    3    0    0 -0.11706777292E+04 -0.80563582062E+03  0.15328479944E+04  0.20902531893E+04  0.00000000000E+00 0. -1.
         22    1    1    2    0    0  0.14548227788E+04  0.94913036205E+03 -0.16132498052E+04  0.23706397229E+04  0.00000000000E+00 0. -1.
<mgrwt>
<rscale>  0 0.49274819E+04</rscale>
<asrwt>0</asrwt>
<pdfrwt beam="1">  1        2 0.40044323E+00 0.49274819E+04</pdfrwt>
<pdfrwt beam="2">  1       -2 0.35877520E+00 0.49274819E+04</pdfrwt>
<totfact> 0.30391435E-02</totfact>
</mgrwt>
</event>
<event>
 6    1  0.1780144E-005  0.3995520E+04  0.7818608E-02  0.8005451E-01
         -2   -1    0    0    0  501 -0.00000000000E+00  0.00000000000E+00  0.15471216255E+04  0.15471216255E+04  0.00000000000E+00 0.  1.
          2   -1    0    0  501    0  0.00000000000E+00 -0.00000000000E+00 -0.25796576282E+04  0.25796576282E+04  0.00000000000E+00 0. -1.
         23    2    1    2    0    0  0.71346328685E+03  0.14605824512E+04 -0.17141378784E+04  0.23641357630E+04  0.92402821534E+02 0.  0.
         11    1    3    3    0    0  0.50555587275E+03  0.10727336850E+04 -0.13037056063E+04  0.17623826507E+04  0.00000000000E+00 0.  1.
        -11    1    3    3    0    0  0.20790741410E+03  0.38784876618E+03 -0.41043227210E+03  0.60175311237E+03  0.00000000000E+00 0. -1.
         22    1    1    2    0    0 -0.71346328685E+03 -0.14605824512E+04  0.68160187559E+03  0.17626434907E+04  0.00000000000E+00 0.  1.
<mgrwt>
<rscale>  0 0.39955195E+04</rscale>
<asrwt>0</asrwt>
<pdfrwt beam="1">  1        2 0.39687040E+00 0.39955195E+04</pdfrwt>
<pdfrwt beam="2">  1       -2 0.23801871E+00 0.39955195E+04</pdfrwt>
<totfact> 0.18809711E-01</totfact>
</mgrwt>
</event>
<event>
 6    1  0.1780144E-005  0.3427451E+04  0.7818608E-02  0.8131202E-01
         -1   -1    0    0    0  501 -0.00000000000E+00  0.00000000000E+00  0.96289156735E+03  0.96289156735E+03  0.00000000000E+00 0.  1.
          1   -1    0    0  501    0  0.00000000000E+00 -0.00000000000E+00 -0.30500374616E+04  0.30500374616E+04  0.00000000000E+00 0. -1.
         23    2    1    2    0    0 -0.14628459530E+04  0.88525230106E+03 -0.11437805812E+04  0.20601033756E+04  0.11046257994E+03 0.  0.
         13    1    3    3    0    0 -0.70421324313E+03  0.40538972727E+03 -0.60632947663E+03  0.10138503622E+04  0.00000000000E+00 0. -1.
        -13    1    3    3    0    0 -0.75863270982E+03  0.47986257379E+03 -0.53745110454E+03  0.10462530133E+04  0.00000000000E+00 0.  1.
         22    1    1    2    0    0  0.14628459530E+04 -0.88525230106E+03 -0.94336531311E+03  0.19528256534E+04  0.00000000000E+00 0.  1.
<mgrwt>
<rscale>  0 0.34274512E+04</rscale>
<asrwt>0</asrwt>
<pdfrwt beam="1">  1        1 0.46923654E+00 0.34274512E+04</pdfrwt>
<pdfrwt beam="2">  1       -1 0.14813716E+00 0.34274512E+04</pdfrwt>
<totfact> 0.16256797E-01</totfact>
</mgrwt>
</event>
<event>
 6    1  0.1780144E-005  0.6075128E+04  0.7818608E-02  0.7681156E-01
         -3   -1    0    0    0  501 -0.00000000000E+00  0.00000000000E+00  0.23145486063E+04  0.23145486063E+04  0.00000000000E+00 0.  1.
          3   -1    0    0  501    0  0.00000000000E+00 -0.00000000000E+00 -0.39864342075E+04  0.39864342075E+04  0.00000000000E+00 0. -1.
         23    2    1    2    0    0 -0.13191971681E+04 -0.15550522774E+04  0.14980085898E+04  0.25318054585E+04  0.86835422459E+02 0.  0.
         11    1    3    3    0    0 -0.11680269088E+04 -0.14151520962E+04  0.13364392028E+04  0.22700246823E+04  0.00000000000E+00 0.  1.
        -11    1    3    3    0    0 -0.15117025929E+03 -0.13990018116E+03  0.16156938699E+03  0.26178077621E+03  0.00000000000E+00 0. -1.
         22    1    1    2    0    0  0.13191971681E+04  0.15550522774E+04 -0.31698941910E+04  0.37691773554E+04  0.00000000000E+00 0. -1.
<mgrwt>
<rscale>  0 0.60751282E+04</rscale>
<asrwt>0</asrwt>
<pdfrwt beam="1">  1        3 0.61329757E+00 0.60751282E+04</pdfrwt>
<pdfrwt beam="2">  1       -3 0.35608440E+00 0.60751282E+04</pdfrwt>
<totfact> 0.30750743E-05</totfact>
</mgrwt>
</event>
<event>
 6    1  0.1780144E-005  0.5985651E+03  0.7818608E-02  0.9908388E-01
         -1   -1    0    0    0  501 -0.00000000000E+00  0.00000000000E+00  0.20922731552E+03  0.20922731552E+03  0.00000000000E+00 0. -1.
          1   -1    0    0  501    0  0.00000000000E+00 -0.00000000000E+00 -0.42809913585E+03  0.42809913585E+03  0.00000000000E+00 0.  1.
         23    2    1    2    0    0  0.65629292743E+02 -0.26680037161E+03 -0.21852775073E+03  0.36257245096E+03  0.90635324226E+02 0.  0.
         11    1    3    3    0    0 -0.10515393914E+01 -0.17697837666E+03 -0.14385996530E+03  0.22807485867E+03  0.00000000000E+00 0.  1.
        -11    1    3    3    0    0  0.66680832134E+02 -0.89821994954E+02 -0.74667785428E+02  0.13449759229E+03  0.00000000000E+00 0. -1.
         22    1    1    2    0    0 -0.65629292743E+02  0.26680037161E+03 -0.34406960002E+00  0.27475400041E+03  0.00000000000E+00 0. -1.
<mgrwt>
<rscale>  0 0.59856506E+03</rscale>
<asrwt>0</asrwt>
<pdfrwt beam="1">  1        1 0.65861405E-01 0.59856506E+03</pdfrwt>
<pdfrwt beam="2">  1       -1 0.32188818E-01 0.59856506E+03</pdfrwt>
<totfact> 0.49885981E+02</totfact>
</mgrwt>
</event>
<event>
 6    1  0.1780144E-005  0.2084896E+04  0.7818608E-02  0.8567926E-01
         -2   -1    0    0    0  501 -0.00000000000E+00  0.00000000000E+00  0.88882818073E+03  0.88882818073E+03  0.00000000000E+00 0.  1.
          2   -1    0    0  501    0  0.00000000000E+00 -0.00000000000E+00 -0.12226186656E+04  0.12226186656E+04  0.00000000000E+00 0. -1.
         23    2    1    2    0    0  0.16061854672E+03 -0.57539990039E+03 -0.10299175730E+04  0.11941266810E+04  0.91241220749E+02 0.  0.
         13    1    3    3    0    0  0.81452128594E+02 -0.18983084735E+03 -0.42304457312E+03  0.47078329484E+03  0.00000000000E+00 0.  1.
        -13    1    3    3    0    0  0.79166418130E+02 -0.38556905304E+03 -0.60687299985E+03  0.72334338620E+03  0.00000000000E+00 0. -1.
         22    1    1    2    0    0 -0.16061854672E+03  0.57539990039E+03  0.69612708807E+03  0.91732016530E+03  0.00000000000E+00 0.  1.
<mgrwt>
<rscale>  0 0.20848961E+04</rscale>
<asrwt>0</asrwt>
<pdfrwt beam="1">  1        2 0.18809518E+00 0.20848961E+04</pdfrwt>
<pdfrwt beam="2">  1       -2 0.13674280E+00 0.20848961E+04</pdfrwt>
<totfact> 0.64684667E+00</totfact>
</mgrwt>
</event>
<event>
 6    1  0.1780144E-005  0.7540380E+03  0.7818608E-02  0.9629037E-01
          1   -1    0    0  501    0  0.00000000000E+00  0.00000000000E+00  0.37462249347E+03  0.37462249347E+03  0.00000000000E+00 0. -1.
         -1   -1    0    0    0  501 -0.00000000000E+00 -0.00000000000E+00 -0.37943085884E+03  0.37943085884E+03  0.00000000000E+00 0.  1.
         23    2    1    2    0    0  0.32043167910E+02 -0.13706639493E+03 -0.34660859308E+03  0.38440303526E+03  0.88398051416E+02 0.  0.
         13    1    3    3    0    0  0.59215835387E+02 -0.85370207240E+02 -0.17972080611E+03  0.20759131868E+03  0.00000000000E+00 0. -1.
        -13    1    3    3    0    0 -0.27172667477E+02 -0.51696187691E+02 -0.16688778697E+03  0.17681171658E+03  0.00000000000E+00 0.  1.
         22    1    1    2    0    0 -0.32043167910E+02  0.13706639493E+03  0.34180022772E+03  0.36965031705E+03  0.00000000000E+00 0. -1.
<mgrwt>
<rscale>  0 0.75403802E+03</rscale>
<asrwt>0</asrwt>
<pdfrwt beam="1">  1        1 0.57634230E-01 0.75403802E+03</pdfrwt>
<pdfrwt beam="2">  1       -1 0.58373978E-01 0.75403802E+03</pdfrwt>
<totfact> 0.19725091E+02</totfact>
</mgrwt>
</event>
<event>
 6    1  0.1780144E-005  0.1917827E+04  0.7818608E-02  0.8646034E-01
         -3   -1    0    0    0  501 -0.00000000000E+00  0.00000000000E+00  0.57044315744E+03  0.57044315744E+03  0.00000000000E+00 0.  1.
          3   -1    0    0  501    0  0.00000000000E+00 -0.00000000000E+00 -0.16119304231E+04  0.16119304231E+04  0.00000000000E+00 0. -1.
         23    2    1    2    0    0 -0.79179413889E+03 -0.53624848015E+03 -0.48618057252E+03  0.10765409014E+04  0.89824119197E+02 0.  0.
         11    1    3    3    0    0 -0.33594645029E+03 -0.18478905858E+03 -0.16521262768E+03  0.41749518078E+03  0.00000000000E+00 0.  1.
        -11    1    3    3    0    0 -0.45584768861E+03 -0.35145942156E+03 -0.32096794484E+03  0.65904572059E+03  0.00000000000E+00 0. -1.
         22    1    1    2    0    0  0.79179413889E+03  0.53624848015E+03 -0.55530669310E+03  0.11058326791E+04  0.00000000000E+00 0.  1.
<mgrwt>
<rscale>  0 0.19178266E+04</rscale>
<asrwt>0</asrwt>
<pdfrwt beam="1">  1        3 0.24798929E+00 0.19178266E+04</pdfrwt>
<pdfrwt beam="2">  1       -3 0.87760487E-01 0.19178266E+04</pdfrwt>
<totfact> 0.21912878E-01</totfact>
</mgrwt>
</event>
<event>
 6    1  0.1780144E-005  0.1433100E+04  0.7818608E-02  0.8930202E-01
          2   -1    0    0  501    0  0.00000000000E+00  0.00000000000E+00  0.19494604736E+04  0.19494604736E+04  0.00000000000E+00 0.  1.
         -2   -1    0    0    0  501 -0.00000000000E+00 -0.00000000000E+00 -0.26337742666E+03  0.26337742666E+03  0.00000000000E+00 0. -1.
         23    2    1    2    0    0 -0.67701166734E+03  0.16180049491E+01  0.11949770960E+04  0.13764573226E+04  0.91198055631E+02 0.  0.
         11    1    3    3    0    0 -0.69305879963E+02  0.51906801689E+01  0.75178013420E+02  0.10238155039E+03  0.00000000000E+00 0. -1.
        -11    1    3    3    0    0 -0.60770578738E+03 -0.35726752198E+01  0.11197990826E+04  0.12740757722E+04  0.00000000000E+00 0.  1.
         22    1    1    2    0    0  0.67701166734E+03 -0.16180049491E+01  0.49110595099E+03  0.83638057770E+03  0.00000000000E+00 0. -1.
<mgrwt>
<rscale>  0 0.14331000E+04</rscale>
<asrwt>0</asrwt>
<pdfrwt beam="1">  1        2 0.29991699E+00 0.14331000E+04</pdfrwt>
<pdfrwt beam="2">  1       -2 0.40519605E-01 0.14331000E+04</pdfrwt>
<totfact> 0.39923801E+01</totfact>
</mgrwt>
</event>
<event>
 6    1  0.1780144E-005  0.6633997E+03  0.7818608E-02  0.9781955E-01
          1   -1    0    0  501    0  0.00000000000E+00  0.00000000000E+00  0.17086893250E+04  0.17086893250E+04  0.00000000000E+00 0. -1.
         -1   -1    0    0    0  501 -0.00000000000E+00 -0.00000000000E+00 -0.64391335458E+02  0.64391335458E+02  0.00000000000E+00 0.  1.
         23    2    1    2    0    0 -0.20493884954E+03  0.23733749775E+03  0.61549238005E+03  0.69754823323E+03  0.97023955268E+02 0.  0.
         13    1    3    3    0    0 -0.96767888438E+02  0.12278010765E+03  0.40865813643E+03  0.43753908573E+03  0.00000000000E+00 0. -1.
        -13    1    3    3    0    0 -0.10817096110E+03  0.11455739010E+03  0.20683424362E+03  0.26000914750E+03  0.00000000000E+00 0.  1.
         22    1    1    2    0    0  0.20493884954E+03 -0.23733749775E+03  0.10288056095E+04  0.10755324272E+04  0.00000000000E+00 0. -1.
<mgrwt>
<rscale>  0 0.66339969E+03</rscale>
<asrwt>0</asrwt>
<pdfrwt beam="1">  1        1 0.26287525E+00 0.66339969E+03</pdfrwt>
<pdfrwt beam="2">  1       -1 0.99063606E-02 0.66339969E+03</pdfrwt>
<totfact> 0.30974278E+02</totfact>
</mgrwt>
</event>
<event>
 6    1  0.1780144E-005  0.1840557E+04  0.7818608E-02  0.8685024E-01
          1   -1    0    0  501    0  0.00000000000E+00  0.00000000000E+00  0.37272946659E+03  0.37272946659E+03  0.00000000000E+00 0. -1.
         -1   -1    0    0    0  501 -0.00000000000E+00 -0.00000000000E+00 -0.22721907596E+04  0.22721907596E+04  0.00000000000E+00 0.  1.
         23    2    1    2    0    0  0.58263797065E+03  0.58827099869E+03 -0.15204645826E+04  0.17343334488E+04  0.10281143797E+03 0.  0.
         13    1    3    3    0    0  0.34899051948E+03  0.34025382596E+03 -0.78919521364E+03  0.92757540609E+03  0.00000000000E+00 0. -1.
        -13    1    3    3    0    0  0.23364745117E+03  0.24801717273E+03 -0.73126936897E+03  0.80675804266E+03  0.00000000000E+00 0.  1.
         22    1    1    2    0    0 -0.58263797065E+03 -0.58827099869E+03 -0.37899671041E+03  0.91058677744E+03  0.00000000000E+00 0. -1.
<mgrwt>
<rscale>  0 0.18405569E+04</rscale>
<asrwt>0</asrwt>
<pdfrwt beam="1">  1        1 0.57342995E-01 0.18405569E+04</pdfrwt>
<pdfrwt beam="2">  1       -1 0.34956781E+00 0.18405569E+04</pdfrwt>
<totfact> 0.97145267E-01</totfact>
</mgrwt>
</event>
<event>
 6    1  0.1780144E-005  0.1864332E+04  0.7818608E-02  0.8672817E-01
         -2   -1    0    0    0  501 -0.00000000000E+00  0.00000000000E+00  0.31041543377E+03  0.31041543377E+03  0.00000000000E+00 0.  1.
          2   -1    0    0  501    0  0.00000000000E+00 -0.00000000000E+00 -0.27992592150E+04  0.27992592150E+04  0.00000000000E+00 0. -1.
         23    2    1    2    0    0  0.59850367731E+03 -0.50348364915E+03 -0.40880762597E+03  0.88745664778E+03  0.93558483956E+02 0.  0.
         11    1    3    3    0    0  0.28222647423E+03 -0.20050493059E+03 -0.13913675167E+03  0.37311264467E+03  0.00000000000E+00 0.  1.
        -11    1    3    3    0    0  0.31627720308E+03 -0.30297871856E+03 -0.26967087430E+03  0.51434400311E+03  0.00000000000E+00 0. -1.
         22    1    1    2    0    0 -0.59850367731E+03  0.50348364915E+03 -0.20800361552E+04  0.22222180010E+04  0.00000000000E+00 0. -1.
<mgrwt>
<rscale>  0 0.18643318E+04</rscale>
<asrwt>0</asrwt>
<pdfrwt beam="1">  1        2 0.43065525E+00 0.18643318E+04</pdfrwt>
<pdfrwt beam="2">  1       -2 0.47756223E-01 0.18643318E+04</pdfrwt>
<totfact> 0.90527337E+00</totfact>
</mgrwt>
</event>
<event>
 6    1  0.1780144E-005  0.3509219E+04  0.7818608E-02  0.8111609E-01
          2   -1    0    0  501    0  0.00000000000E+00  0.00000000000E+00  0.18129757410E+04  0.18129757410E+04  0.00000000000E+00 0. -1.
         -2   -1    0    0    0  501 -0.00000000000E+00 -0.00000000000E+00 -0.16981227432E+04  0.16981227432E+04  0.00000000000E+00 0.  1.
         23    2    1    2    0    0  0.12895376908E+04  0.11351865219E+04  0.40815195769E+03  0.17682329772E+04  0.92216840267E+02 0.  0.
         13    1    3    3    0    0  0.34776042914E+03  0.25815245818E+03  0.84908284830E+02  0.44134954919E+03  0.00000000000E+00 0. -1.
        -13    1    3    3    0    0  0.94177726171E+03  0.87703406372E+03  0.32324367286E+03  0.13268834281E+04  0.00000000000E+00 0.  1.
         22    1    1    2    0    0 -0.12895376908E+04 -0.11351865219E+04 -0.29329895986E+03  0.17428655070E+04  0.00000000000E+00 0.  1.
<mgrwt>
<rscale>  0 0.35092195E+04</rscale>
<asrwt>0</asrwt>
<pdfrwt beam="1">  1        2 0.27891934E+00 0.35092195E+04</pdfrwt>
<pdfrwt beam="2">  1       -2 0.26124965E+00 0.35092195E+04</pdfrwt>
<totfact> 0.38202175E-01</totfact>
</mgrwt>
</event>
<event>
 6    1  0.1780144E-005  0.1477197E+04  0.7818608E-02  0.8899760E-01
          1   -1    0    0  501    0  0.00000000000E+00  0.00000000000E+00  0.17940039517E+03  0.17940039517E+03  0.00000000000E+00 0. -1.
         -1   -1    0    0    0  501 -0.00000000000E+00 -0.00000000000E+00 -0.30408372610E+04  0.30408372610E+04  0.00000000000E+00 0.  1.
         23    2    1    2    0    0  0.44389103093E+03  0.44767494805E+03 -0.60983663575E+03  0.88204268941E+03  0.92986435541E+02 0.  0.
         13    1    3    3    0    0  0.28757177629E+03  0.31453751050E+03 -0.46505900956E+03  0.63080207229E+03  0.00000000000E+00 0.  1.
        -13    1    3    3    0    0  0.15631925464E+03  0.13313743755E+03 -0.14477762619E+03  0.25124061713E+03  0.00000000000E+00 0. -1.
         22    1    1    2    0    0 -0.44389103093E+03 -0.44767494805E+03 -0.22516002301E+04  0.23381949667E+04  0.00000000000E+00 0.  1.
<mgrwt>
<rscale>  0 0.14771965E+04</rscale>
<asrwt>0</asrwt>
<pdfrwt beam="1">  1        1 0.27600064E-01 0.14771965E+04</pdfrwt>
<pdfrwt beam="2">  1       -1 0.46782107E+00 0.14771965E+04</pdfrwt>
<totfact> 0.40814011E-01</totfact>
</mgrwt>
</event>
<event>
 6    1  0.1780144E-005  0.9052584E+03  0.7818608E-02  0.9419032E-01
         -3   -1    0    0    0  501 -0.00000000000E+00  0.00000000000E+00  0.14405165073E+03  0.14405165073E+03  0.00000000000E+00 0.  1.
          3   -1    0    0  501    0  0.00000000000E+00 -0.00000000000E+00 -0.14222204852E+04  0.14222204852E+04  0.00000000000E+00 0. -1.
         23    2    1    2    0    0  0.41431143525E+03  0.10760878736E+03 -0.87402466758E+03  0.97757346588E+03  0.92179960765E+02 0.  0.
         11    1    3    3    0    0  0.59864094757E+02  0.51193878017E+02 -0.16869930584E+03  0.18618264897E+03  0.00000000000E+00 0.  1.
        -11    1    3    3    0    0  0.35444734050E+03  0.56414909344E+02 -0.70532536174E+03  0.79139081691E+03  0.00000000000E+00 0. -1.
         22    1    1    2    0    0 -0.41431143525E+03 -0.10760878736E+03 -0.40414416694E+03  0.58869867009E+03  0.00000000000E+00 0.  1.
<mgrwt>
<rscale>  0 0.90525844E+03</rscale>
<asrwt>0</asrwt>
<pdfrwt beam="1">  1        3 0.21880315E+00 0.90525844E+03</pdfrwt>
<pdfrwt beam="2">  1       -3 0.22161793E-01 0.90525844E+03</pdfrwt>
<totfact> 0.56854700E+00</totfact>
</mgrwt>
</event>
<event>
 6    1  0.1780144E-005  0.1719750E+04  0.7818608E-02  0.8750180E-01
          2   -1    0    0  501    0  0.00000000000E+00  0.00000000000E+00  0.37786465108E+04  0.37786465108E+04  0.00000000000E+00 0. -1.
         -2   -1    0    0    0  501 -0.00000000000E+00 -0.00000000000E+00 -0.19567449189E+03  0.19567449189E+03  0.00000000000E+00 0.  1.
         23    2    1    2    0    0  0.81301232231E+03  0.25254001674E+03  0.20318009004E+04  0.22048868177E+04  0.92441784580E+02 0.  0.
         11    1    3    3    0    0  0.13778172513E+03  0.76553100827E+02  0.33596834484E+03  0.37110498482E+03  0.00000000000E+00 0. -1.
        -11    1    3    3    0    0  0.67523059719E+03  0.17598691591E+03  0.16958325556E+04  0.18337818328E+04  0.00000000000E+00 0.  1.
         22    1    1    2    0    0 -0.81301232231E+03 -0.25254001674E+03  0.15511711185E+04  0.17694341850E+04  0.00000000000E+00 0. -1.
<mgrwt>
<rscale>  0 0.17197497E+04</rscale>
<asrwt>0</asrwt>
<pdfrwt beam="1">  1        2 0.58133018E+00 0.17197497E+04</pdfrwt>
<pdfrwt beam="2">  1       -2 0.30103771E-01 0.17197497E+04</pdfrwt>
<totfact> 0.50007124E+00</totfact>
</mgrwt>
</event>
<event>
 6    1  0.1780144E-005  0.1647100E+04  0.7818608E-02  0.8792124E-01
         -1   -1    0    0    0  501 -0.00000000000E+00  0.00000000000E+00  0.46870453384E+03  0.46870453384E+03  0.00000000000E+00 0.  1.
          1   -1    0    0  501    0  0.00000000000E+00 -0.00000000000E+00 -0.14470399657E+04  0.14470399657E+04  0.00000000000E+00 0. -1.
         23    2    1    2    0    0  0.78319426982E+03  0.15193965234E+03 -0.71585014070E+03  0.10758769801E+04  0.92687270266E+02 0.  0.
         13    1    3    3    0    0  0.47457544539E+03  0.53099095865E+02 -0.45913885812E+03  0.66245743892E+03  0.00000000000E+00 0.  1.
        -13    1    3    3    0    0  0.30861882444E+03  0.98840556472E+02 -0.25671128257E+03  0.41341954115E+03  0.00000000000E+00 0. -1.
         22    1    1    2    0    0 -0.78319426982E+03 -0.15193965234E+03 -0.26248529120E+03  0.83986751952E+03  0.00000000000E+00 0.  1.
<mgrwt>
<rscale>  0 0.16470995E+04</rscale>
<asrwt>0</asrwt>
<pdfrwt beam="1">  1        1 0.22262153E+00 0.16470995E+04</pdfrwt>
<pdfrwt beam="2">  1       -1 0.72108390E-01 0.16470995E+04</pdfrwt>
<totfact> 0.13208347E+01</totfact>
</mgrwt>
</event>
<event>
 6    1  0.1780144E-005  0.4143253E+04  0.7818608E-02  0.7976255E-01
         -1   -1    0    0    0  501 -0.00000000000E+00  0.00000000000E+00  0.20344571584E+04  0.20344571584E+04  0.00000000000E+00 0.  1.
          1   -1    0    0  501    0  0.00000000000E+00 -0.00000000000E+00 -0.21094747702E+04  0.21094747702E+04  0.00000000000E+00 0. -1.
         23    2    1    2    0    0  0.17325962126E+04 -0.91922868752E+03 -0.70122570734E+03  0.20850468919E+04  0.93978895005E+02 0.  0.
         13    1    3    3    0    0  0.23320396418E+02 -0.15313567703E+02 -0.22408227899E+02  0.35783724268E+02  0.00000000000E+00 0. -1.
        -13    1    3    3    0    0  0.17092758162E+04 -0.90391511981E+03 -0.67881747944E+03  0.20492631676E+04  0.00000000000E+00 0.  1.
         22    1    1    2    0    0 -0.17325962126E+04  0.91922868752E+03  0.62620809556E+03  0.20588850368E+04  0.00000000000E+00 0.  1.
<mgrwt>
<rscale>  0 0.41432529E+04</rscale>
<asrwt>0</asrwt>
<pdfrwt beam="1">  1        1 0.32453458E+00 0.41432529E+04</pdfrwt>
<pdfrwt beam="2">  1       -1 0.31299341E+00 0.41432529E+04</pdfrwt>
<totfact> 0.52808550E-02</totfact>
</mgrwt>
</event>
<event>
 6    1  0.1780144E-005  0.2892993E+04  0.7818608E-02  0.8274965E-01
         -1   -1    0    0    0  501 -0.00000000000E+00  0.00000000000E+00  0.56867067480E+03  0.56867067480E+03  0.00000000000E+00 0.  1.
          1   -1    0    0  501    0  0.00000000000E+00 -0.00000000000E+00 -0.36793737499E+04  0.36793737499E+04  0.00000000000E+00 0. -1.
         23    2    1    2    0    0 -0.71201149371E+03  0.40539114268E+03  0.19064942345E+03  0.84654024781E+03  0.94767308475E+02 0.  0.
         13    1    3    3    0    0 -0.50652615585E+03  0.24114039277E+03  0.11309977668E+03  0.57228401609E+03  0.00000000000E+00 0.  1.
        -13    1    3    3    0    0 -0.20548533786E+03  0.16425074991E+03  0.77549646773E+02  0.27425623172E+03  0.00000000000E+00 0. -1.
         22    1    1    2    0    0  0.71201149371E+03 -0.40539114268E+03 -0.33013524985E+04  0.34015041769E+04  0.00000000000E+00 0. -1.
<mgrwt>
<rscale>  0 0.28929929E+04</rscale>
<asrwt>0</asrwt>
<pdfrwt beam="1">  1        1 0.56605749E+00 0.28929929E+04</pdfrwt>
<pdfrwt beam="2">  1       -1 0.87487797E-01 0.28929929E+04</pdfrwt>
<totfact> 0.19796268E-01</totfact>
</mgrwt>
</event>
<event>
 6    1  0.1780144E-005  0.1447022E+04  0.7818608E-02  0.8920468E-01
          1   -1    0    0  501    0  0.00000000000E+00  0.00000000000E+00  0.11550463581E+04  0.11550463581E+04  0.00000000000E+00 0. -1.
         -1   -1    0    0    0  501 -0.00000000000E+00 -0.00000000000E+00 -0.45320103478E+03  0.45320103478E+03  0.00000000000E+00 0.  1.
         23    2    1    2    0    0  0.12401286391E+03  0.70162719727E+03  0.23259861754E+03  0.75510474054E+03  0.91766758377E+02 0.  0.
         13    1    3    3    0    0  0.85651340507E+02  0.60424595238E+03  0.22396559202E+03  0.65008454028E+03  0.00000000000E+00 0. -1.
        -13    1    3    3    0    0  0.38361523402E+02  0.97381244889E+02  0.86330255209E+01  0.10502020026E+03  0.00000000000E+00 0.  1.
         22    1    1    2    0    0 -0.12401286391E+03 -0.70162719727E+03  0.46924670581E+03  0.85314265236E+03  0.00000000000E+00 0.  1.
<mgrwt>
<rscale>  0 0.14470221E+04</rscale>
<asrwt>0</asrwt>
<pdfrwt beam="1">  1        1 0.17769944E+00 0.14470221E+04</pdfrwt>
<pdfrwt beam="2">  1       -1 0.69723237E-01 0.14470221E+04</pdfrwt>
<totfact> 0.23305883E+01</totfact>
</mgrwt>
</event>
<event>
 6    1  0.1780144E-005  0.1801892E+04  0.7818608E-02  0.8705294E-01
          1   -1    0    0  501    0  0.00000000000E+00  0.00000000000E+00  0.75089956772E+03  0.75089956772E+03  0.00000000000E+00 0. -1.
         -1   -1    0    0    0  501 -0.00000000000E+00 -0.00000000000E+00 -0.10809752635E+04  0.10809752635E+04  0.00000000000E+00 0.  1.
         23    2    1    2    0    0  0.26585170030E+03  0.96162814961E+02 -0.10327772476E+04  0.10744358011E+04  0.88651192274E+02 0.  0.
         13    1    3    3    0    0  0.11627845539E+03  0.69532962306E+02 -0.61888971767E+03  0.63354557427E+03  0.00000000000E+00 0.  1.
        -13    1    3    3    0    0  0.14957324491E+03  0.26629852654E+02 -0.41388752995E+03  0.44089022680E+03  0.00000000000E+00 0. -1.
         22    1    1    2    0    0 -0.26585170030E+03 -0.96162814961E+02  0.70270155181E+03  0.75743903018E+03  0.00000000000E+00 0. -1.
<mgrwt>
<rscale>  0 0.18018922E+04</rscale>
<asrwt>0</asrwt>
<pdfrwt beam="1">  1        1 0.11552301E+00 0.18018922E+04</pdfrwt>
<pdfrwt beam="2">  1       -1 0.16630389E+00 0.18018922E+04</pdfrwt>
<totfact> 0.60440660E+00</totfact>
</mgrwt>
</event>
<event>
 6    1  0.1780144E-005  0.3751813E+04  0.7818608E-02  0.8056575E-01
          1   -1    0    0  501    0  0.00000000000E+00  0.00000000000E+00  0.23097164609E+04  0.23097164609E+04  0.00000000000E+00 0. -1.
         -1   -1    0    0    0  501 -0.00000000000E+00 -0.00000000000E+00 -0.15235744164E+04  0.15235744164E+04  0.00000000000E+00 0.  1.
         23    2    1    2    0    0  0.93939976762E+03 -0.14177324090E+04 -0.41270407144E+03  0.17525051804E+04  0.92264022826E+02 0.  0.
         13    1    3    3    0    0  0.30353322556E+03 -0.52556036968E+03 -0.17160277597E+03  0.63070883450E+03  0.00000000000E+00 0. -1.
        -13    1    3    3    0    0  0.63586654206E+03 -0.89217203930E+03 -0.24110129547E+03  0.11217963459E+04  0.00000000000E+00 0.  1.
         22    1    1    2    0    0 -0.93939976762E+03  0.14177324090E+04  0.11988461159E+04  0.20807856969E+04  0.00000000000E+00 0.  1.
<mgrwt>
<rscale>  0 0.37518128E+04</rscale>
<asrwt>0</asrwt>
<pdfrwt beam="1">  1        1 0.35534099E+00 0.37518128E+04</pdfrwt>
<pdfrwt beam="2">  1       -1 0.23439607E+00 0.37518128E+04</pdfrwt>
<totfact> 0.12925294E-01</totfact>
</mgrwt>
</event>
<event>
 6    1  0.1780144E-005  0.5532728E+04  0.7818608E-02  0.7751202E-01
         -1   -1    0    0    0  501 -0.00000000000E+00  0.00000000000E+00  0.26886354397E+04  0.26886354397E+04  0.00000000000E+00 0.  1.
          1   -1    0    0  501    0  0.00000000000E+00 -0.00000000000E+00 -0.28463392647E+04  0.28463392647E+04  0.00000000000E+00 0. -1.
         23    2    1    2    0    0  0.96128740095E+03  0.38984885436E+03  0.24858735925E+04  0.26951583091E+04  0.90858113242E+02 0.  0.
         11    1    3    3    0    0  0.38899132049E+03  0.20028233139E+03  0.99032882058E+03  0.10826718952E+04  0.00000000000E+00 0. -1.
        -11    1    3    3    0    0  0.57229608046E+03  0.18956652298E+03  0.14955447719E+04  0.16124864139E+04  0.00000000000E+00 0.  1.
         22    1    1    2    0    0 -0.96128740095E+03 -0.38984885436E+03 -0.26435774175E+04  0.28398163953E+04  0.00000000000E+00 0. -1.
<mgrwt>
<rscale>  0 0.55327276E+04</rscale>
<asrwt>0</asrwt>
<pdfrwt beam="1">  1        1 0.43789835E+00 0.55327276E+04</pdfrwt>
<pdfrwt beam="2">  1       -1 0.41363622E+00 0.55327276E+04</pdfrwt>
<totfact> 0.30872998E-03</totfact>
</mgrwt>
</event>
<event>
 6    1  0.1780144E-005  0.2816246E+04  0.7818608E-02  0.8298242E-01
         -1   -1    0    0    0  501 -0.00000000000E+00  0.00000000000E+00  0.94928239000E+03  0.94928239000E+03  0.00000000000E+00 0.  1.
          1   -1    0    0  501    0  0.00000000000E+00 -0.00000000000E+00 -0.20887459269E+04  0.20887459269E+04  0.00000000000E+00 0. -1.
         23    2    1    2    0    0 -0.13714987883E+04  0.29310565537E+03 -0.45277360066E+03  0.14764704665E+04  0.89673036077E+02 0.  0.
         13    1    3    3    0    0 -0.11551671125E+04  0.27606432417E+03 -0.39873154995E+03  0.12528405397E+04  0.00000000000E+00 0. -1.
        -13    1    3    3    0    0 -0.21633167582E+03  0.17041331199E+02 -0.54042050714E+02  0.22362992684E+03  0.00000000000E+00 0.  1.
         22    1    1    2    0    0  0.13714987883E+04 -0.29310565537E+03 -0.68668993625E+03  0.15615578504E+04  0.00000000000E+00 0.  1.
<mgrwt>
<rscale>  0 0.28162455E+04</rscale>
<asrwt>0</asrwt>
<pdfrwt beam="1">  1        1 0.32134552E+00 0.28162455E+04</pdfrwt>
<pdfrwt beam="2">  1       -1 0.14604345E+00 0.28162455E+04</pdfrwt>
<totfact> 0.84043146E-01</totfact>
</mgrwt>
</event>
<event>
 6    1  0.1780144E-005  0.2337870E+04  0.7818608E-02  0.8463137E-01
         -2   -1    0    0    0  501 -0.00000000000E+00  0.00000000000E+00  0.26361219457E+04  0.26361219457E+04  0.00000000000E+00 0.  1.
          2   -1    0    0  501    0  0.00000000000E+00 -0.00000000000E+00 -0.51834069454E+03  0.51834069454E+03  0.00000000000E+00 0. -1.
         23    2    1    2    0    0  0.74357983818E+03  0.47594638843E+03  0.20906109947E+04  0.22711879586E+04  0.90578537914E+02 0.  0.
         13    1    3    3    0    0  0.60968549066E+03  0.40409234225E+03  0.16421776170E+04  0.17977080809E+04  0.00000000000E+00 0. -1.
        -13    1    3    3    0    0  0.13389434753E+03  0.71854046180E+02  0.44843337774E+03  0.47347987763E+03  0.00000000000E+00 0.  1.
         22    1    1    2    0    0 -0.74357983818E+03 -0.47594638843E+03  0.27170256435E+02  0.88327468165E+03  0.00000000000E+00 0. -1.
<mgrwt>
<rscale>  0 0.23378702E+04</rscale>
<asrwt>0</asrwt>
<pdfrwt beam="1">  1        2 0.79744724E-01 0.23378702E+04</pdfrwt>
<pdfrwt beam="2">  1       -2 0.40555721E+00 0.23378702E+04</pdfrwt>
<totfact> 0.36453599E-01</totfact>
</mgrwt>
</event>
<event>
 6    1  0.1780144E-005  0.2961056E+04  0.7818608E-02  0.8254940E-01
         -1   -1    0    0    0  501 -0.00000000000E+00  0.00000000000E+00  0.14450250542E+04  0.14450250542E+04  0.00000000000E+00 0.  1.
          1   -1    0    0  501    0  0.00000000000E+00 -0.00000000000E+00 -0.15169032125E+04  0.15169032125E+04  0.00000000000E+00 0. -1.
         23    2    1    2    0    0 -0.12351920569E+04  0.24725836038E+03  0.73958201655E+03  0.14634945079E+04  0.89434339935E+02 0.  0.
         11    1    3    3    0    0 -0.11165897547E+04  0.22947617169E+03  0.63796536908E+03  0.13063046374E+04  0.00000000000E+00 0. -1.
        -11    1    3    3    0    0 -0.11860230223E+03  0.17782188683E+02  0.10161664746E+03  0.15718987044E+03  0.00000000000E+00 0.  1.
         22    1    1    2    0    0  0.12351920569E+04 -0.24725836038E+03 -0.81146017491E+03  0.14984337588E+04  0.00000000000E+00 0. -1.
<mgrwt>
<rscale>  0 0.29610560E+04</rscale>
<asrwt>0</asrwt>
<pdfrwt beam="1">  1        1 0.23336973E+00 0.29610560E+04</pdfrwt>
<pdfrwt beam="2">  1       -1 0.22231155E+00 0.29610560E+04</pdfrwt>
<totfact> 0.57743832E-01</totfact>
</mgrwt>
</event>
<event>
 6    1  0.1780144E-005  0.1347361E+04  0.7818608E-02  0.8992828E-01
         -1   -1    0    0    0  501 -0.00000000000E+00  0.00000000000E+00  0.33412795318E+03  0.33412795318E+03  0.00000000000E+00 0.  1.
          1   -1    0    0  501    0  0.00000000000E+00 -0.00000000000E+00 -0.13582976999E+04  0.13582976999E+04  0.00000000000E+00 0. -1.
         23    2    1    2    0    0 -0.28778564367E+03 -0.21183779333E+03  0.19819541287E+03  0.41889810696E+03  0.92186631055E+02 0.  0.
         11    1    3    3    0    0 -0.93869464009E+02 -0.74855672991E+02  0.19250273235E+02  0.12159531682E+03  0.00000000000E+00 0.  1.
        -11    1    3    3    0    0 -0.19391617966E+03 -0.13698212034E+03  0.17894513963E+03  0.29730279014E+03  0.00000000000E+00 0. -1.
         22    1    1    2    0    0  0.28778564367E+03  0.21183779333E+03 -0.12223651596E+04  0.12735275461E+04  0.00000000000E+00 0. -1.
<mgrwt>
<rscale>  0 0.13473607E+04</rscale>
<asrwt>0</asrwt>
<pdfrwt beam="1">  1        1 0.20896887E+00 0.13473607E+04</pdfrwt>
<pdfrwt beam="2">  1       -1 0.51404301E-01 0.13473607E+04</pdfrwt>
<totfact> 0.30636416E+01</totfact>
</mgrwt>
</event>
<event>
 6    1  0.1780144E-005  0.2360761E+04  0.7818608E-02  0.8454342E-01
         -2   -1    0    0    0  501 -0.00000000000E+00  0.00000000000E+00  0.68858181085E+03  0.68858181085E+03  0.00000000000E+00 0.  1.
          2   -1    0    0  501    0  0.00000000000E+00 -0.00000000000E+00 -0.20234313749E+04  0.20234313749E+04  0.00000000000E+00 0. -1.
         23    2    1    2    0    0  0.24479317501E+03  0.10116004680E+04 -0.13043133901E+04  0.16707679393E+04  0.83503784682E+02 0.  0.
         13    1    3    3    0    0  0.15549068612E+03  0.68188388583E+03 -0.81395977202E+03  0.10731605181E+04  0.00000000000E+00 0.  1.
        -13    1    3    3    0    0  0.89302488889E+02  0.32971658216E+03 -0.49035361806E+03  0.59760742115E+03  0.00000000000E+00 0. -1.
         22    1    1    2    0    0 -0.24479317501E+03 -0.10116004680E+04 -0.30536173963E+02  0.10412452465E+04  0.00000000000E+00 0.  1.
<mgrwt>
<rscale>  0 0.23607609E+04</rscale>
<asrwt>0</asrwt>
<pdfrwt beam="1">  1        2 0.31129713E+00 0.23607609E+04</pdfrwt>
<pdfrwt beam="2">  1       -2 0.10593566E+00 0.23607609E+04</pdfrwt>
<totfact> 0.42084309E+00</totfact>
</mgrwt>
</event>
<event>
 6    1  0.1780144E-005  0.1408671E+04  0.7818608E-02  0.8947566E-01
          3   -1    0    0  501    0  0.00000000000E+00  0.00000000000E+00  0.12382772112E+04  0.12382772112E+04  0.00000000000E+00 0. -1.
         -3   -1    0    0    0  501 -0.00000000000E+00 -0.00000000000E+00 -0.40062816692E+03  0.40062816692E+03  0.00000000000E+00 0.  1.
         23    2    1    2    0    0  0.45172434858E+03  0.38512778608E+03  0.85487773265E+03  0.10450408091E+04  0.94424870232E+02 0.  0.
         13    1    3    3    0    0  0.21408348212E+03  0.21212663716E+03  0.50480524519E+03  0.58792668172E+03  0.00000000000E+00 0. -1.
        -13    1    3    3    0    0  0.23764086646E+03  0.17300114892E+03  0.35007248746E+03  0.45711412735E+03  0.00000000000E+00 0.  1.
         22    1    1    2    0    0 -0.45172434858E+03 -0.38512778608E+03 -0.17228688336E+02  0.59386456908E+03  0.00000000000E+00 0.  1.
<mgrwt>
<rscale>  0 0.14086713E+04</rscale>
<asrwt>0</asrwt>
<pdfrwt beam="1">  1        3 0.19050418E+00 0.14086713E+04</pdfrwt>
<pdfrwt beam="2">  1       -3 0.61635103E-01 0.14086713E+04</pdfrwt>
<totfact> 0.11077702E+00</totfact>
</mgrwt>
</event>
<event>
 6    1  0.1780144E-005  0.1596829E+04  0.7818608E-02  0.8822499E-01
         -1   -1    0    0    0  501 -0.00000000000E+00  0.00000000000E+00  0.43938474366E+03  0.43938474366E+03  0.00000000000E+00 0.  1.
          1   -1    0    0  501    0  0.00000000000E+00 -0.00000000000E+00 -0.14508139159E+04  0.14508139159E+04  0.00000000000E+00 0. -1.
         23    2    1    2    0    0 -0.14224656983E+02  0.55996699413E+03  0.16196144405E+03  0.58996371396E+03  0.89779168270E+02 0.  0.
         13    1    3    3    0    0 -0.68444275738E+01  0.18199603595E+03  0.96153761785E+01  0.18237833959E+03  0.00000000000E+00 0. -1.
        -13    1    3    3    0    0 -0.73802294093E+01  0.37797095818E+03  0.15234606787E+03  0.40758537438E+03  0.00000000000E+00 0.  1.
         22    1    1    2    0    0  0.14224656983E+02 -0.55996699413E+03 -0.11733906163E+04  0.13002349456E+04  0.00000000000E+00 0. -1.
<mgrwt>
<rscale>  0 0.15968287E+04</rscale>
<asrwt>0</asrwt>
<pdfrwt beam="1">  1        1 0.22320214E+00 0.15968287E+04</pdfrwt>
<pdfrwt beam="2">  1       -1 0.67597652E-01 0.15968287E+04</pdfrwt>
<totfact> 0.15055341E+01</totfact>
</mgrwt>
</event>
<event>
 6    1  0.1780144E-005  0.3409106E+04  0.7818608E-02  0.8135675E-01
         -1   -1    0    0    0  501 -0.00000000000E+00  0.00000000000E+00  0.11069491785E+04  0.11069491785E+04  0.00000000000E+00 0.  1.
          1   -1    0    0  501    0  0.00000000000E+00 -0.00000000000E+00 -0.26247821965E+04  0.26247821965E+04  0.00000000000E+00 0. -1.
         23    2    1    2    0    0 -0.45127095168E+02 -0.54997810878E+03  0.10044332814E+04  0.11498058030E+04  0.93031140165E+02 0.  0.
         11    1    3    3    0    0  0.18830451967E+02 -0.32521304865E+03  0.59871470451E+03  0.68159915663E+03  0.00000000000E+00 0.  1.
        -11    1    3    3    0    0 -0.63957547135E+02 -0.22476506013E+03  0.40571857685E+03  0.46820664636E+03  0.00000000000E+00 0. -1.
         22    1    1    2    0    0  0.45127095168E+02  0.54997810878E+03 -0.25222662994E+04  0.25819255721E+04  0.00000000000E+00 0. -1.
<mgrwt>
<rscale>  0 0.34091057E+04</rscale>
<asrwt>0</asrwt>
<pdfrwt beam="1">  1        1 0.40381264E+00 0.34091057E+04</pdfrwt>
<pdfrwt beam="2">  1       -1 0.17029988E+00 0.34091057E+04</pdfrwt>
<totfact> 0.22304109E-01</totfact>
</mgrwt>
</event>
<event>
 6    1  0.1780144E-005  0.2040614E+04  0.7818608E-02  0.8587864E-01
          2   -1    0    0  501    0  0.00000000000E+00  0.00000000000E+00  0.19679736800E+04  0.19679736800E+04  0.00000000000E+00 0. -1.
         -2   -1    0    0    0  501 -0.00000000000E+00 -0.00000000000E+00 -0.52898370760E+03  0.52898370760E+03  0.00000000000E+00 0.  1.
         23    2    1    2    0    0  0.64929370221E+03 -0.16533328123E+03  0.16592196775E+04  0.17916783446E+04  0.90465168159E+02 0.  0.
         13    1    3    3    0    0  0.19446356481E+03 -0.59986117366E+02  0.61624088345E+03  0.64897398927E+03  0.00000000000E+00 0. -1.
        -13    1    3    3    0    0  0.45483013740E+03 -0.10534716386E+03  0.10429787940E+04  0.11427043553E+04  0.00000000000E+00 0.  1.
         22    1    1    2    0    0 -0.64929370221E+03  0.16533328123E+03 -0.22022970503E+03  0.70527904307E+03  0.00000000000E+00 0.  1.
<mgrwt>
<rscale>  0 0.20406136E+04</rscale>
<asrwt>0</asrwt>
<pdfrwt beam="1">  1        2 0.30276518E+00 0.20406136E+04</pdfrwt>
<pdfrwt beam="2">  1       -2 0.81382110E-01 0.20406136E+04</pdfrwt>
<totfact> 0.85718418E+00</totfact>
</mgrwt>
</event>
<event>
 6    1  0.1780144E-005  0.3270958E+04  0.7818608E-02  0.8170325E-01
          1   -1    0    0  501    0  0.00000000000E+00  0.00000000000E+00  0.30550343697E+04  0.30550343697E+04  0.00000000000E+00 0. -1.
         -1   -1    0    0    0  501 -0.00000000000E+00 -0.00000000000E+00 -0.87553554944E+03  0.87553554944E+03  0.00000000000E+00 0.  1.
         23    2    1    2    0    0  0.72647198967E+03  0.77560720505E+03 -0.40117723296E+03  0.11396530483E+04  0.92400270101E+02 0.  0.
         13    1    3    3    0    0  0.92686927684E+02  0.13829819140E+03 -0.41690084415E+02  0.17162552097E+03  0.00000000000E+00 0. -1.
        -13    1    3    3    0    0  0.63378506199E+03  0.63730901365E+03 -0.35948714855E+03  0.96802752732E+03  0.00000000000E+00 0.  1.
         22    1    1    2    0    0 -0.72647198967E+03 -0.77560720505E+03  0.25806760532E+04  0.27909168708E+04  0.00000000000E+00 0. -1.
<mgrwt>
<rscale>  0 0.32709578E+04</rscale>
<asrwt>0</asrwt>
<pdfrwt beam="1">  1        1 0.47000528E+00 0.32709578E+04</pdfrwt>
<pdfrwt beam="2">  1       -1 0.13469778E+00 0.32709578E+04</pdfrwt>
<totfact> 0.20969430E-01</totfact>
</mgrwt>
</event>
<event>
 6    1  0.1780144E-005  0.1410543E+04  0.7818608E-02  0.8946222E-01
         -2   -1    0    0    0  501 -0.00000000000E+00  0.00000000000E+00  0.29359799621E+03  0.29359799621E+03  0.00000000000E+00 0.  1.
          2   -1    0    0  501    0  0.00000000000E+00 -0.00000000000E+00 -0.16941800031E+04  0.16941800031E+04  0.00000000000E+00 0. -1.
         23    2    1    2    0    0  0.34076048117E+03  0.63383714888E+02 -0.15640339119E+04  0.16045656220E+04  0.91068967950E+02 0.  0.
         13    1    3    3    0    0  0.10498793431E+03  0.57773278305E+02 -0.43784198503E+03  0.45394473440E+03  0.00000000000E+00 0. -1.
        -13    1    3    3    0    0  0.23577254686E+03  0.56104365833E+01 -0.11261919269E+04  0.11506208876E+04  0.00000000000E+00 0.  1.
         22    1    1    2    0    0 -0.34076048117E+03 -0.63383714888E+02  0.16345190503E+03  0.38321237728E+03  0.00000000000E+00 0.  1.
<mgrwt>
<rscale>  0 0.14105430E+04</rscale>
<asrwt>0</asrwt>
<pdfrwt beam="1">  1        2 0.26064308E+00 0.14105430E+04</pdfrwt>
<pdfrwt beam="2">  1       -2 0.45168922E-01 0.14105430E+04</pdfrwt>
<totfact> 0.44659733E+01</totfact>
</mgrwt>
</event>
<event>
 6    1  0.1780144E-005  0.7523632E+03  0.7818608E-02  0.9631650E-01
         -2   -1    0    0    0  501 -0.00000000000E+00  0.00000000000E+00  0.67179049206E+03  0.67179049206E+03  0.00000000000E+00 0.  1.
          2   -1    0    0  501    0  0.00000000000E+00 -0.00000000000E+00 -0.21064991051E+03  0.21064991051E+03  0.00000000000E+00 0. -1.
         23    2    1    2    0    0  0.29967982900E+03  0.16053268725E+03  0.40669159402E+03  0.53813902903E+03  0.92826819059E+02 0.  0.
         11    1    3    3    0    0  0.92600441842E+02  0.74755248468E+02  0.20277142420E+03  0.23511580014E+03  0.00000000000E+00 0.  1.
        -11    1    3    3    0    0  0.20707938715E+03  0.85777438781E+02  0.20392016982E+03  0.30302322889E+03  0.00000000000E+00 0. -1.
         22    1    1    2    0    0 -0.29967982900E+03 -0.16053268725E+03  0.54448987526E+02  0.34430137355E+03  0.00000000000E+00 0. -1.
<mgrwt>
<rscale>  0 0.75236323E+03</rscale>
<asrwt>0</asrwt>
<pdfrwt beam="1">  1        2 0.32407679E-01 0.75236323E+03</pdfrwt>
<pdfrwt beam="2">  1       -2 0.10335238E+00 0.75236323E+03</pdfrwt>
<totfact> 0.12563480E+02</totfact>
</mgrwt>
</event>
<event>
 6    1  0.1780144E-005  0.1304136E+04  0.7818608E-02  0.9026292E-01
         -2   -1    0    0    0  501 -0.00000000000E+00  0.00000000000E+00  0.11744364853E+04  0.11744364853E+04  0.00000000000E+00 0.  1.
          2   -1    0    0  501    0  0.00000000000E+00 -0.00000000000E+00 -0.36203971389E+03  0.36203971389E+03  0.00000000000E+00 0. -1.
         23    2    1    2    0    0 -0.18337551090E+03  0.18293016466E+03  0.11091235712E+04  0.11426020861E+04  0.91073639361E+02 0.  0.
         11    1    3    3    0    0 -0.14059551737E+03  0.14054058632E+03  0.98219381863E+03  0.10021095016E+04  0.00000000000E+00 0.  1.
        -11    1    3    3    0    0 -0.42779993531E+02  0.42389578341E+02  0.12692975261E+03  0.14049258448E+03  0.00000000000E+00 0. -1.
         22    1    1    2    0    0  0.18337551090E+03 -0.18293016466E+03 -0.29672679988E+03  0.39387411302E+03  0.00000000000E+00 0. -1.
<mgrwt>
<rscale>  0 0.13041360E+04</rscale>
<asrwt>0</asrwt>
<pdfrwt beam="1">  1        2 0.55698418E-01 0.13041360E+04</pdfrwt>
<pdfrwt beam="2">  1       -2 0.18068253E+00 0.13041360E+04</pdfrwt>
<totfact> 0.15619036E+01</totfact>
</mgrwt>
</event>
<event>
 6    1  0.1780144E-005  0.2270626E+04  0.7818608E-02  0.8489594E-01
         -2   -1    0    0    0  501 -0.00000000000E+00  0.00000000000E+00  0.81333411717E+03  0.81333411717E+03  0.00000000000E+00 0.  1.
          2   -1    0    0  501    0  0.00000000000E+00 -0.00000000000E+00 -0.15847551750E+04  0.15847551750E+04  0.00000000000E+00 0. -1.
         23    2    1    2    0    0 -0.47159204896E+03  0.60633289719E+03 -0.12664485257E+04  0.14842562457E+04  0.95320993179E+02 0.  0.
         13    1    3    3    0    0 -0.27963517709E+03  0.42602555462E+03 -0.79739978799E+03  0.94632976670E+03  0.00000000000E+00 0. -1.
        -13    1    3    3    0    0 -0.19195687187E+03  0.18030734258E+03 -0.46904873773E+03  0.53792647900E+03  0.00000000000E+00 0.  1.
         22    1    1    2    0    0  0.47159204896E+03 -0.60633289719E+03  0.49502746788E+03  0.91383304647E+03  0.00000000000E+00 0.  1.
<mgrwt>
<rscale>  0 0.22706259E+04</rscale>
<asrwt>0</asrwt>
<pdfrwt beam="1">  1        2 0.24380849E+00 0.22706259E+04</pdfrwt>
<pdfrwt beam="2">  1       -2 0.12512833E+00 0.22706259E+04</pdfrwt>
<totfact> 0.49439378E+00</totfact>
</mgrwt>
</event>
<event>
 6    1  0.1780144E-005  0.4333992E+03  0.7818608E-02  0.1032792E+00
          2   -1    0    0  501    0  0.00000000000E+00  0.00000000000E+00  0.17964965115E+04  0.17964965115E+04  0.00000000000E+00 0. -1.
         -2   -1    0    0    0  501 -0.00000000000E+00 -0.00000000000E+00 -0.26139053755E+02  0.26139053755E+02  0.00000000000E+00 0.  1.
         23    2    1    2    0    0  0.63967828633E+02 -0.88254720564E+02  0.16651797805E+04  0.16711656917E+04  0.89946033740E+02 0.  0.
         13    1    3    3    0    0  0.57784154373E+02 -0.91654321260E+01  0.53059934574E+03  0.53381521085E+03  0.00000000000E+00 0.  1.
        -13    1    3    3    0    0  0.61836742591E+01 -0.79089288438E+02  0.11345804347E+04  0.11373504808E+04  0.00000000000E+00 0. -1.
         22    1    1    2    0    0 -0.63967828633E+02  0.88254720564E+02  0.10517767728E+03  0.15146987357E+03  0.00000000000E+00 0.  1.
<mgrwt>
<rscale>  0 0.43339921E+03</rscale>
<asrwt>0</asrwt>
<pdfrwt beam="1">  1        2 0.27638398E+00 0.43339921E+03</pdfrwt>
<pdfrwt beam="2">  1       -2 0.40213943E-02 0.43339921E+03</pdfrwt>
<totfact> 0.25778518E+03</totfact>
</mgrwt>
</event>
<event>
 6    1  0.1780144E-005  0.2154714E+04  0.7818608E-02  0.8537517E-01
          2   -1    0    0  501    0  0.00000000000E+00  0.00000000000E+00  0.16023342230E+04  0.16023342230E+04  0.00000000000E+00 0. -1.
         -2   -1    0    0    0  501 -0.00000000000E+00 -0.00000000000E+00 -0.72437948767E+03  0.72437948767E+03  0.00000000000E+00 0.  1.
         23    2    1    2    0    0  0.55589218191E+03 -0.82623512804E+03  0.17837748363E+01  0.10003064743E+04  0.94494740111E+02 0.  0.
         11    1    3    3    0    0  0.15182507157E+03 -0.30449913928E+03  0.87052045917E+01  0.34036209948E+03  0.00000000000E+00 0. -1.
        -11    1    3    3    0    0  0.40406711035E+03 -0.52173598876E+03 -0.69214297554E+01  0.65994437479E+03  0.00000000000E+00 0.  1.
         22    1    1    2    0    0 -0.55589218191E+03  0.82623512804E+03  0.87617096045E+03  0.13264072363E+04  0.00000000000E+00 0. -1.
<mgrwt>
<rscale>  0 0.21547139E+04</rscale>
<asrwt>0</asrwt>
<pdfrwt beam="1">  1        2 0.24651296E+00 0.21547139E+04</pdfrwt>
<pdfrwt beam="2">  1       -2 0.11144300E+00 0.21547139E+04</pdfrwt>
<totfact> 0.64940141E+00</totfact>
</mgrwt>
</event>
<event>
 6    1  0.1780144E-005  0.2210190E+04  0.7818608E-02  0.8514199E-01
          2   -1    0    0  501    0  0.00000000000E+00  0.00000000000E+00  0.26668498323E+04  0.26668498323E+04  0.00000000000E+00 0. -1.
         -2   -1    0    0    0  501 -0.00000000000E+00 -0.00000000000E+00 -0.45793160311E+03  0.45793160311E+03  0.00000000000E+00 0.  1.
         23    2    1    2    0    0 -0.81663874867E+03 -0.29495913173E+03  0.14539969219E+03  0.88602988872E+03  0.10004078172E+03 0.  0.
         13    1    3    3    0    0 -0.19441773516E+03 -0.42231012477E+02  0.32799378718E+00  0.19895180758E+03  0.00000000000E+00 0.  1.
        -13    1    3    3    0    0 -0.62222101351E+03 -0.25272811925E+03  0.14507169840E+03  0.68707808115E+03  0.00000000000E+00 0. -1.
         22    1    1    2    0    0  0.81663874867E+03  0.29495913173E+03  0.20635185371E+04  0.22387515467E+04  0.00000000000E+00 0. -1.
<mgrwt>
<rscale>  0 0.22101899E+04</rscale>
<asrwt>0</asrwt>
<pdfrwt beam="1">  1        2 0.41028458E+00 0.22101899E+04</pdfrwt>
<pdfrwt beam="2">  1       -2 0.70451017E-01 0.22101899E+04</pdfrwt>
<totfact> 0.46533807E+00</totfact>
</mgrwt>
</event>
<event>
 6    1  0.1780144E-005  0.2756054E+04  0.7818608E-02  0.8317043E-01
         -1   -1    0    0    0  501 -0.00000000000E+00  0.00000000000E+00  0.10670250407E+04  0.10670250407E+04  0.00000000000E+00 0.  1.
          1   -1    0    0  501    0  0.00000000000E+00 -0.00000000000E+00 -0.17796761482E+04  0.17796761482E+04  0.00000000000E+00 0. -1.
         23    2    1    2    0    0 -0.79495010049E+03  0.22257503322E+03 -0.14943904399E+04  0.17097747658E+04  0.92960502840E+02 0.  0.
         13    1    3    3    0    0 -0.63190280651E+03  0.14310014274E+03 -0.12078398513E+04  0.13706406948E+04  0.00000000000E+00 0.  1.
        -13    1    3    3    0    0 -0.16304729398E+03  0.79474890478E+02 -0.28655058859E+03  0.33913407100E+03  0.00000000000E+00 0. -1.
         22    1    1    2    0    0  0.79495010049E+03 -0.22257503322E+03  0.78173933244E+03  0.11369264231E+04  0.00000000000E+00 0.  1.
<mgrwt>
<rscale>  0 0.27560544E+04</rscale>
<asrwt>0</asrwt>
<pdfrwt beam="1">  1        1 0.27379633E+00 0.27560544E+04</pdfrwt>
<pdfrwt beam="2">  1       -1 0.16415770E+00 0.27560544E+04</pdfrwt>
<totfact> 0.99373839E-01</totfact>
</mgrwt>
</event>
<event>
 6    1  0.1780144E-005  0.2894048E+04  0.7818608E-02  0.8274651E-01
         -1   -1    0    0    0  501 -0.00000000000E+00  0.00000000000E+00  0.83086062516E+03  0.83086062516E+03  0.00000000000E+00 0.  1.
          1   -1    0    0  501    0  0.00000000000E+00 -0.00000000000E+00 -0.25201319595E+04  0.25201319595E+04  0.00000000000E+00 0. -1.
         23    2    1    2    0    0  0.93856996864E+03  0.22497577266E+03 -0.20915916250E+04  0.23053400130E+04  0.91155722285E+02 0.  0.
         13    1    3    3    0    0  0.69321917271E+03  0.19242125185E+03 -0.14809938806E+04  0.16464876659E+04  0.00000000000E+00 0.  1.
        -13    1    3    3    0    0  0.24535079592E+03  0.32554520806E+02 -0.61059774439E+03  0.65885234715E+03  0.00000000000E+00 0. -1.
         22    1    1    2    0    0 -0.93856996864E+03 -0.22497577266E+03  0.40232029064E+03  0.10456525716E+04  0.00000000000E+00 0.  1.
<mgrwt>
<rscale>  0 0.28940480E+04</rscale>
<asrwt>0</asrwt>
<pdfrwt beam="1">  1        1 0.38771261E+00 0.28940480E+04</pdfrwt>
<pdfrwt beam="2">  1       -1 0.12782471E+00 0.28940480E+04</pdfrwt>
<totfact> 0.59590485E-01</totfact>
</mgrwt>
</event>
<event>
 6    1  0.1780144E-005  0.2237796E+04  0.7818608E-02  0.8502859E-01
          2   -1    0    0  501    0  0.00000000000E+00  0.00000000000E+00  0.23024326688E+04  0.23024326688E+04  0.00000000000E+00 0.  1.
         -2   -1    0    0    0  501 -0.00000000000E+00 -0.00000000000E+00 -0.54374353798E+03  0.54374353798E+03  0.00000000000E+00 0. -1.
         23    2    1    2    0    0 -0.77600104437E+03  0.71929539658E+03  0.13380117972E+04  0.17075222174E+04  0.76112187763E+02 0.  0.
         11    1    3    3    0    0 -0.37350269936E+03  0.36356076547E+03  0.71669823972E+03  0.88619245282E+03  0.00000000000E+00 0. -1.
        -11    1    3    3    0    0 -0.40249834501E+03  0.35573463111E+03  0.62131355750E+03  0.82132976462E+03  0.00000000000E+00 0.  1.
         22    1    1    2    0    0  0.77600104437E+03 -0.71929539658E+03  0.42067733358E+03  0.11386539893E+04  0.00000000000E+00 0. -1.
<mgrwt>
<rscale>  0 0.22377961E+04</rscale>
<asrwt>0</asrwt>
<pdfrwt beam="1">  1        2 0.35422040E+00 0.22377961E+04</pdfrwt>
<pdfrwt beam="2">  1       -2 0.83652854E-01 0.22377961E+04</pdfrwt>
<totfact> 0.51449516E+00</totfact>
</mgrwt>
</event>
<event>
 6    1  0.1780144E-005  0.2240466E+04  0.7818608E-02  0.8501772E-01
         -1   -1    0    0    0  501 -0.00000000000E+00  0.00000000000E+00  0.59480476051E+03  0.59480476051E+03  0.00000000000E+00 0.  1.
          1   -1    0    0  501    0  0.00000000000E+00 -0.00000000000E+00 -0.21098041395E+04  0.21098041395E+04  0.00000000000E+00 0. -1.
         23    2    1    2    0    0  0.10429916953E+04  0.88646832648E+02 -0.28367368111E+03  0.10884860979E+04  0.92958542496E+02 0.  0.
         11    1    3    3    0    0  0.83526051913E+03  0.38781262517E+02 -0.20591019668E+03  0.86114059841E+03  0.00000000000E+00 0. -1.
        -11    1    3    3    0    0  0.20773117613E+03  0.49865570131E+02 -0.77763484430E+02  0.22734549947E+03  0.00000000000E+00 0.  1.
         22    1    1    2    0    0 -0.10429916953E+04 -0.88646832648E+02 -0.12313256979E+04  0.16161228021E+04  0.00000000000E+00 0. -1.
<mgrwt>
<rscale>  0 0.22404656E+04</rscale>
<asrwt>0</asrwt>
<pdfrwt beam="1">  1        1 0.32458525E+00 0.22404656E+04</pdfrwt>
<pdfrwt beam="2">  1       -1 0.91508424E-01 0.22404656E+04</pdfrwt>
<totfact> 0.26540769E+00</totfact>
</mgrwt>
</event>
<event>
 6    1  0.1780144E-005  0.4864084E+04  0.7818608E-02  0.7849822E-01
          2   -1    0    0  501    0  0.00000000000E+00  0.00000000000E+00  0.39782013779E+04  0.39782013779E+04  0.00000000000E+00 0. -1.
         -2   -1    0    0    0  501 -0.00000000000E+00 -0.00000000000E+00 -0.14868097824E+04  0.14868097824E+04  0.00000000000E+00 0.  1.
         23    2    1    2    0    0  0.23586918199E+04 -0.58110557013E+03  0.13580197096E+04  0.27844062628E+04  0.87120147369E+02 0.  0.
         13    1    3    3    0    0  0.33428638786E+03 -0.11240552571E+03  0.18628145245E+03  0.39885231709E+03  0.00000000000E+00 0. -1.
        -13    1    3    3    0    0  0.20244054320E+04 -0.46870004441E+03  0.11717382571E+04  0.23855539457E+04  0.00000000000E+00 0.  1.
         22    1    1    2    0    0 -0.23586918199E+04  0.58110557013E+03  0.11333718859E+04  0.26806048975E+04  0.00000000000E+00 0. -1.
<mgrwt>
<rscale>  0 0.48640842E+04</rscale>
<asrwt>0</asrwt>
<pdfrwt beam="1">  1        2 0.61203098E+00 0.48640842E+04</pdfrwt>
<pdfrwt beam="2">  1       -2 0.22873997E+00 0.48640842E+04</pdfrwt>
<totfact> 0.22727686E-02</totfact>
</mgrwt>
</event>
<event>
 6    1  0.1780144E-005  0.1983108E+04  0.7818608E-02  0.8614559E-01
         -1   -1    0    0    0  501 -0.00000000000E+00  0.00000000000E+00  0.12174897923E+04  0.12174897923E+04  0.00000000000E+00 0.  1.
          1   -1    0    0  501    0  0.00000000000E+00 -0.00000000000E+00 -0.80754663210E+03  0.80754663210E+03  0.00000000000E+00 0. -1.
         23    2    1    2    0    0 -0.29473122889E+02 -0.63982387312E+03  0.97555465280E+03  0.11705426479E+04  0.90663974592E+02 0.  0.
         11    1    3    3    0    0 -0.47300882690E+02 -0.54970813852E+03  0.87421370787E+03  0.10337630377E+04  0.00000000000E+00 0.  1.
        -11    1    3    3    0    0  0.17827759800E+02 -0.90115734600E+02  0.10134094493E+03  0.13677961018E+03  0.00000000000E+00 0. -1.
         22    1    1    2    0    0  0.29473122889E+02  0.63982387312E+03 -0.56561149260E+03  0.85449377654E+03  0.00000000000E+00 0. -1.
<mgrwt>
<rscale>  0 0.19831085E+04</rscale>
<asrwt>0</asrwt>
<pdfrwt beam="1">  1        1 0.12423794E+00 0.19831085E+04</pdfrwt>
<pdfrwt beam="2">  1       -1 0.18730612E+00 0.19831085E+04</pdfrwt>
<totfact> 0.37342300E+00</totfact>
</mgrwt>
</event>
<event>
 6    1  0.1780144E-005  0.5531574E+04  0.7818608E-02  0.7751359E-01
         -1   -1    0    0    0  501 -0.00000000000E+00  0.00000000000E+00  0.29390906223E+04  0.29390906223E+04  0.00000000000E+00 0.  1.
          1   -1    0    0  501    0  0.00000000000E+00 -0.00000000000E+00 -0.26027026632E+04  0.26027026632E+04  0.00000000000E+00 0. -1.
         23    2    1    2    0    0  0.42494282895E+03  0.15755611298E+04 -0.20680595290E+04  0.26358791429E+04  0.89550874048E+02 0.  0.
         11    1    3    3    0    0  0.16943896138E+03  0.79728780532E+03 -0.10182917582E+04  0.13043371922E+04  0.00000000000E+00 0. -1.
        -11    1    3    3    0    0  0.25550386757E+03  0.77827332446E+03 -0.10497677708E+04  0.13315419507E+04  0.00000000000E+00 0.  1.
         22    1    1    2    0    0 -0.42494282895E+03 -0.15755611298E+04  0.24044474881E+04  0.29059141427E+04  0.00000000000E+00 0.  1.
<mgrwt>
<rscale>  0 0.55315745E+04</rscale>
<asrwt>0</asrwt>
<pdfrwt beam="1">  1        1 0.40041580E+00 0.55315745E+04</pdfrwt>
<pdfrwt beam="2">  1       -1 0.45216779E+00 0.55315745E+04</pdfrwt>
<totfact> 0.24959885E-03</totfact>
</mgrwt>
</event>
<event>
 6    1  0.1780144E-005  0.1578025E+04  0.7818608E-02  0.8834163E-01
          2   -1    0    0  501    0  0.00000000000E+00  0.00000000000E+00  0.19059381705E+04  0.19059381705E+04  0.00000000000E+00 0. -1.
         -2   -1    0    0    0  501 -0.00000000000E+00 -0.00000000000E+00 -0.32663197506E+03  0.32663197506E+03  0.00000000000E+00 0.  1.
         23    2    1    2    0    0  0.27025888305E+03 -0.70287253741E+03  0.47230366266E+03  0.89371829592E+03  0.92692906865E+02 0.  0.
         13    1    3    3    0    0  0.49262080897E+02 -0.18695421153E+03  0.81541374483E+02  0.20982760918E+03  0.00000000000E+00 0.  1.
        -13    1    3    3    0    0  0.22099680216E+03 -0.51591832588E+03  0.39076228818E+03  0.68389068674E+03  0.00000000000E+00 0. -1.
         22    1    1    2    0    0 -0.27025888305E+03  0.70287253741E+03  0.11070025327E+04  0.13388518496E+04  0.00000000000E+00 0. -1.
<mgrwt>
<rscale>  0 0.15780245E+04</rscale>
<asrwt>0</asrwt>
<pdfrwt beam="1">  1        2 0.29322125E+00 0.15780245E+04</pdfrwt>
<pdfrwt beam="2">  1       -2 0.50251074E-01 0.15780245E+04</pdfrwt>
<totfact> 0.27115853E+01</totfact>
</mgrwt>
</event>
<event>
 6    1  0.1780144E-005  0.8246005E+03  0.7818608E-02  0.9525076E-01
          2   -1    0    0  501    0  0.00000000000E+00  0.00000000000E+00  0.26071611628E+03  0.26071611628E+03  0.00000000000E+00 0. -1.
         -2   -1    0    0    0  501 -0.00000000000E+00 -0.00000000000E+00 -0.65201754509E+03  0.65201754509E+03  0.00000000000E+00 0.  1.
         23    2    1    2    0    0  0.40308890412E+03  0.54147895092E+02 -0.17564773237E+03  0.45238686170E+03  0.91591962448E+02 0.  0.
         13    1    3    3    0    0  0.49492434764E+02 -0.23347535163E+02 -0.18589205633E+02  0.57794178453E+02  0.00000000000E+00 0.  1.
        -13    1    3    3    0    0  0.35359646936E+03  0.77495430255E+02 -0.15705852674E+03  0.39459268325E+03  0.00000000000E+00 0. -1.
         22    1    1    2    0    0 -0.40308890412E+03 -0.54147895092E+02 -0.21565369644E+03  0.46034679966E+03  0.00000000000E+00 0.  1.
<mgrwt>
<rscale>  0 0.82460047E+03</rscale>
<asrwt>0</asrwt>
<pdfrwt beam="1">  1        2 0.40110172E-01 0.82460047E+03</pdfrwt>
<pdfrwt beam="2">  1       -2 0.10031039E+00 0.82460047E+03</pdfrwt>
<totfact> 0.10595449E+02</totfact>
</mgrwt>
</event>
<event>
 6    1  0.1780144E-005  0.3484846E+04  0.7818608E-02  0.8117391E-01
          2   -1    0    0  501    0  0.00000000000E+00  0.00000000000E+00  0.22147277160E+04  0.22147277160E+04  0.00000000000E+00 0. -1.
         -2   -1    0    0    0  501 -0.00000000000E+00 -0.00000000000E+00 -0.13708404207E+04  0.13708404207E+04  0.00000000000E+00 0.  1.
         23    2    1    2    0    0  0.14761576344E+04 -0.56035489624E+03  0.11774906866E+04  0.19717744095E+04  0.91493352467E+02 0.  0.
         11    1    3    3    0    0  0.13522918130E+04 -0.51461060013E+03  0.10457227549E+04  0.17852320010E+04  0.00000000000E+00 0. -1.
        -11    1    3    3    0    0  0.12386582138E+03 -0.45744296111E+02  0.13176793175E+03  0.18654240850E+03  0.00000000000E+00 0.  1.
         22    1    1    2    0    0 -0.14761576344E+04  0.56035489624E+03 -0.33360339139E+03  0.16137937272E+04  0.00000000000E+00 0.  1.
<mgrwt>
<rscale>  0 0.34848462E+04</rscale>
<asrwt>0</asrwt>
<pdfrwt beam="1">  1        2 0.34072734E+00 0.34848462E+04</pdfrwt>
<pdfrwt beam="2">  1       -2 0.21089853E+00 0.34848462E+04</pdfrwt>
<totfact> 0.47097415E-01</totfact>
</mgrwt>
</event>
<event>
 6    1  0.1780144E-005  0.1627290E+04  0.7818608E-02  0.8803956E-01
          2   -1    0    0  501    0  0.00000000000E+00  0.00000000000E+00  0.55715192897E+03  0.55715192897E+03  0.00000000000E+00 0. -1.
         -2   -1    0    0    0  501 -0.00000000000E+00 -0.00000000000E+00 -0.11882177833E+04  0.11882177833E+04  0.00000000000E+00 0.  1.
         23    2    1    2    0    0  0.11996658651E+03 -0.37127769089E+03  0.44620542588E+03  0.59961558648E+03  0.90556412423E+02 0.  0.
         13    1    3    3    0    0  0.98579702544E+02 -0.24032025436E+03  0.23554089640E+03  0.35064411629E+03  0.00000000000E+00 0.  1.
        -13    1    3    3    0    0  0.21386883962E+02 -0.13095743653E+03  0.21066452948E+03  0.24897147019E+03  0.00000000000E+00 0. -1.
         22    1    1    2    0    0 -0.11996658651E+03  0.37127769089E+03 -0.10772712802E+04  0.11457541258E+04  0.00000000000E+00 0.  1.
<mgrwt>
<rscale>  0 0.16272896E+04</rscale>
<asrwt>0</asrwt>
<pdfrwt beam="1">  1        2 0.85715682E-01 0.16272896E+04</pdfrwt>
<pdfrwt beam="2">  1       -2 0.18280273E+00 0.16272896E+04</pdfrwt>
<totfact> 0.89890538E+00</totfact>
</mgrwt>
</event>
<event>
 6    1  0.1780144E-005  0.5624493E+03  0.7818608E-02  0.9986528E-01
         -2   -1    0    0    0  501 -0.00000000000E+00  0.00000000000E+00  0.15750033389E+03  0.15750033389E+03  0.00000000000E+00 0.  1.
          2   -1    0    0  501    0  0.00000000000E+00 -0.00000000000E+00 -0.50214057617E+03  0.50214057617E+03  0.00000000000E+00 0. -1.
         23    2    1    2    0    0  0.17501242020E+03  0.12235379159E+03  0.24504947062E+02  0.23318110146E+03  0.90405398647E+02 0.  0.
         11    1    3    3    0    0  0.10747952228E+03  0.74323010927E+02  0.59051403111E+02  0.14339744026E+03  0.00000000000E+00 0.  1.
        -11    1    3    3    0    0  0.67532897924E+02  0.48030780664E+02 -0.34546456050E+02  0.89783661201E+02  0.00000000000E+00 0. -1.
         22    1    1    2    0    0 -0.17501242020E+03 -0.12235379159E+03 -0.36914518935E+03  0.42645980861E+03  0.00000000000E+00 0.  1.
<mgrwt>
<rscale>  0 0.56244932E+03</rscale>
<asrwt>0</asrwt>
<pdfrwt beam="1">  1        2 0.77252395E-01 0.56244932E+03</pdfrwt>
<pdfrwt beam="2">  1       -2 0.24230821E-01 0.56244932E+03</pdfrwt>
<totfact> 0.93255405E+02</totfact>
</mgrwt>
</event>
<event>
 6    1  0.1780144E-005  0.3598524E+04  0.7818608E-02  0.8090830E-01
         -2   -1    0    0    0  501 -0.00000000000E+00  0.00000000000E+00  0.14550408400E+04  0.14550408400E+04  0.00000000000E+00 0.  1.
          2   -1    0    0  501    0  0.00000000000E+00 -0.00000000000E+00 -0.22249161285E+04  0.22249161285E+04  0.00000000000E+00 0. -1.
         23    2    1    2    0    0  0.17866009784E+04 -0.92270295904E+02 -0.20021335026E+03  0.18024661995E+04  0.91335376671E+02 0.  0.
         11    1    3    3    0    0  0.14944406514E+03 -0.31513309602E+02 -0.79209335891E+01  0.15293579855E+03  0.00000000000E+00 0. -1.
        -11    1    3    3    0    0  0.16371569133E+04 -0.60756986302E+02 -0.19229241667E+03  0.16495304009E+04  0.00000000000E+00 0.  1.
         22    1    1    2    0    0 -0.17866009784E+04  0.92270295904E+02 -0.56966193826E+03  0.18774907690E+04  0.00000000000E+00 0. -1.
<mgrwt>
<rscale>  0 0.35985240E+04</rscale>
<asrwt>0</asrwt>
<pdfrwt beam="1">  1        2 0.34229479E+00 0.35985240E+04</pdfrwt>
<pdfrwt beam="2">  1       -2 0.22385244E+00 0.35985240E+04</pdfrwt>
<totfact> 0.38083330E-01</totfact>
</mgrwt>
</event>
<event>
 6    1  0.1780144E-005  0.2909480E+04  0.7818608E-02  0.8270062E-01
          2   -1    0    0  501    0  0.00000000000E+00  0.00000000000E+00  0.41798971368E+04  0.41798971368E+04  0.00000000000E+00 0. -1.
         -2   -1    0    0    0  501 -0.00000000000E+00 -0.00000000000E+00 -0.50629682622E+03  0.50629682622E+03  0.00000000000E+00 0.  1.
         23    2    1    2    0    0 -0.59677043519E+03  0.71517209650E+03  0.36354425425E+04  0.37539589630E+04  0.90329043388E+02 0.  0.
         11    1    3    3    0    0 -0.39823611241E+03  0.41332469300E+03  0.21663326364E+04  0.22410770613E+04  0.00000000000E+00 0. -1.
        -11    1    3    3    0    0 -0.19853432278E+03  0.30184740350E+03  0.14691099061E+04  0.15128819017E+04  0.00000000000E+00 0.  1.
         22    1    1    2    0    0  0.59677043519E+03 -0.71517209650E+03  0.38157768037E+02  0.93223499998E+03  0.00000000000E+00 0.  1.
<mgrwt>
<rscale>  0 0.29094801E+04</rscale>
<asrwt>0</asrwt>
<pdfrwt beam="1">  1        2 0.64306108E+00 0.29094801E+04</pdfrwt>
<pdfrwt beam="2">  1       -2 0.77891822E-01 0.29094801E+04</pdfrwt>
<totfact> 0.30638133E-01</totfact>
</mgrwt>
</event>
<event>
 6    1  0.1780144E-005  0.8530726E+03  0.7818608E-02  0.9486222E-01
         -2   -1    0    0    0  501 -0.00000000000E+00  0.00000000000E+00  0.65533965598E+02  0.65533965598E+02  0.00000000000E+00 0.  1.
          2   -1    0    0  501    0  0.00000000000E+00 -0.00000000000E+00 -0.27761668526E+04  0.27761668526E+04  0.00000000000E+00 0. -1.
         23    2    1    2    0    0  0.33303566465E+03  0.16971048990E+03 -0.70368070948E+03  0.80023775285E+03  0.74158720857E+02 0.  0.
         11    1    3    3    0    0  0.91731170120E+02  0.39002177075E+02 -0.12579278930E+03  0.16049798512E+03  0.00000000000E+00 0. -1.
        -11    1    3    3    0    0  0.24130449453E+03  0.13070831282E+03 -0.57788792018E+03  0.63973976773E+03  0.00000000000E+00 0.  1.
         22    1    1    2    0    0 -0.33303566465E+03 -0.16971048990E+03 -0.20069521775E+04  0.20414630653E+04  0.00000000000E+00 0. -1.
<mgrwt>
<rscale>  0 0.85307262E+03</rscale>
<asrwt>0</asrwt>
<pdfrwt beam="1">  1        2 0.42710254E+00 0.85307262E+03</pdfrwt>
<pdfrwt beam="2">  1       -2 0.10082150E-01 0.85307262E+03</pdfrwt>
<totfact> 0.16769759E+02</totfact>
</mgrwt>
</event>
<event>
 6    1  0.1780144E-005  0.1405593E+04  0.7818608E-02  0.8949780E-01
          2   -1    0    0  501    0  0.00000000000E+00  0.00000000000E+00  0.71648214035E+03  0.71648214035E+03  0.00000000000E+00 0. -1.
         -2   -1    0    0    0  501 -0.00000000000E+00 -0.00000000000E+00 -0.68937217960E+03  0.68937217960E+03  0.00000000000E+00 0.  1.
         23    2    1    2    0    0  0.20058129912E+02 -0.30546834143E+03 -0.61579471750E+03  0.69378714510E+03  0.91783617330E+02 0.  0.
         13    1    3    3    0    0  0.44152501629E+02 -0.13726112355E+03 -0.34727108874E+03  0.37601498443E+03  0.00000000000E+00 0. -1.
        -13    1    3    3    0    0 -0.24094371717E+02 -0.16820721788E+03 -0.26852362876E+03  0.31777216067E+03  0.00000000000E+00 0.  1.
         22    1    1    2    0    0 -0.20058129912E+02  0.30546834143E+03  0.64290467825E+03  0.71206717485E+03  0.00000000000E+00 0. -1.
<mgrwt>
<rscale>  0 0.14055929E+04</rscale>
<asrwt>0</asrwt>
<pdfrwt beam="1">  1        2 0.11022802E+00 0.14055929E+04</pdfrwt>
<pdfrwt beam="2">  1       -2 0.10605726E+00 0.14055929E+04</pdfrwt>
<totfact> 0.27773560E+01</totfact>
</mgrwt>
</event>
<event>
 6    1  0.1780144E-005  0.1494119E+04  0.7818608E-02  0.8888373E-01
         -2   -1    0    0    0  501 -0.00000000000E+00  0.00000000000E+00  0.17902988370E+03  0.17902988370E+03  0.00000000000E+00 0.  1.
          2   -1    0    0  501    0  0.00000000000E+00 -0.00000000000E+00 -0.31173467422E+04  0.31173467422E+04  0.00000000000E+00 0. -1.
         23    2    1    2    0    0 -0.27917537241E+03  0.36053737596E+03 -0.27723376671E+04  0.28111187769E+04  0.92771489832E+02 0.  0.
         11    1    3    3    0    0 -0.12413974190E+03  0.19229351347E+03 -0.16405032621E+04  0.16563931973E+04  0.00000000000E+00 0. -1.
        -11    1    3    3    0    0 -0.15503563050E+03  0.16824386249E+03 -0.11318344050E+04  0.11547255796E+04  0.00000000000E+00 0.  1.
         22    1    1    2    0    0  0.27917537241E+03 -0.36053737596E+03 -0.16597919135E+03  0.48525784897E+03  0.00000000000E+00 0.  1.
<mgrwt>
<rscale>  0 0.14941194E+04</rscale>
<asrwt>0</asrwt>
<pdfrwt beam="1">  1        2 0.47959179E+00 0.14941194E+04</pdfrwt>
<pdfrwt beam="2">  1       -2 0.27543060E-01 0.14941194E+04</pdfrwt>
<totfact> 0.17189106E+01</totfact>
</mgrwt>
</event>
<event>
 6    1  0.1780144E-005  0.7887282E+03  0.7818608E-02  0.9576477E-01
         -1   -1    0    0    0  501 -0.00000000000E+00  0.00000000000E+00  0.72377658495E+03  0.72377658495E+03  0.00000000000E+00 0.  1.
          1   -1    0    0  501    0  0.00000000000E+00 -0.00000000000E+00 -0.21487711510E+03  0.21487711510E+03  0.00000000000E+00 0. -1.
         23    2    1    2    0    0 -0.13463335578E+03 -0.21994459933E+03  0.60402906449E+03  0.66378753801E+03  0.96234181088E+02 0.  0.
         11    1    3    3    0    0 -0.37723167517E+02 -0.11849024030E+03  0.19412751056E+03  0.23053950805E+03  0.00000000000E+00 0. -1.
        -11    1    3    3    0    0 -0.96910188261E+02 -0.10145435902E+03  0.40990155393E+03  0.43324802996E+03  0.00000000000E+00 0.  1.
         22    1    1    2    0    0  0.13463335578E+03  0.21994459933E+03 -0.95129594639E+02  0.27486616204E+03  0.00000000000E+00 0. -1.
<mgrwt>
<rscale>  0 0.78872815E+03</rscale>
<asrwt>0</asrwt>
<pdfrwt beam="1">  1        1 0.33058018E-01 0.78872815E+03</pdfrwt>
<pdfrwt beam="2">  1       -1 0.11135024E+00 0.78872815E+03</pdfrwt>
<totfact> 0.10177977E+02</totfact>
</mgrwt>
</event>
<event>
 6    1  0.1780144E-005  0.2384035E+04  0.7818608E-02  0.8445505E-01
         -1   -1    0    0    0  501 -0.00000000000E+00  0.00000000000E+00  0.64006936985E+03  0.64006936985E+03  0.00000000000E+00 0.  1.
          1   -1    0    0  501    0  0.00000000000E+00 -0.00000000000E+00 -0.22199248886E+04  0.22199248886E+04  0.00000000000E+00 0. -1.
         23    2    1    2    0    0  0.73349909711E+03  0.69982564370E+03 -0.39972060096E+02  0.10163516892E+04  0.59967770247E+02 0.  0.
         13    1    3    3    0    0  0.40222442440E+03  0.36416353094E+03  0.49762090493E+01  0.54260881628E+03  0.00000000000E+00 0. -1.
        -13    1    3    3    0    0  0.33127467271E+03  0.33566211276E+03 -0.44948269145E+02  0.47374287289E+03  0.00000000000E+00 0.  1.
         22    1    1    2    0    0 -0.73349909711E+03 -0.69982564370E+03 -0.15398834587E+04  0.18436425693E+04  0.00000000000E+00 0.  1.
<mgrwt>
<rscale>  0 0.23840352E+04</rscale>
<asrwt>0</asrwt>
<pdfrwt beam="1">  1        1 0.34152691E+00 0.23840352E+04</pdfrwt>
<pdfrwt beam="2">  1       -1 0.98472211E-01 0.23840352E+04</pdfrwt>
<totfact> 0.18699889E+00</totfact>
</mgrwt>
</event>
<event>
 6    1  0.1780144E-005  0.3469267E+04  0.7818608E-02  0.8121112E-01
         -1   -1    0    0    0  501 -0.00000000000E+00  0.00000000000E+00  0.14958702801E+04  0.14958702801E+04  0.00000000000E+00 0.  1.
          1   -1    0    0  501    0  0.00000000000E+00 -0.00000000000E+00 -0.20115066010E+04  0.20115066010E+04  0.00000000000E+00 0. -1.
         23    2    1    2    0    0 -0.13346504826E+04 -0.24275038736E+03 -0.13489310573E+04  0.19153342375E+04  0.93115963181E+02 0.  0.
         11    1    3    3    0    0 -0.11651317925E+04 -0.21360331337E+03 -0.11318281614E+04  0.16383508344E+04  0.00000000000E+00 0.  1.
        -11    1    3    3    0    0 -0.16951869012E+03 -0.29147073985E+02 -0.21710289583E+03  0.27698340311E+03  0.00000000000E+00 0. -1.
         22    1    1    2    0    0  0.13346504826E+04  0.24275038736E+03  0.83329473637E+03  0.15920426436E+04  0.00000000000E+00 0.  1.
<mgrwt>
<rscale>  0 0.34692667E+04</rscale>
<asrwt>0</asrwt>
<pdfrwt beam="1">  1        1 0.30946255E+00 0.34692667E+04</pdfrwt>
<pdfrwt beam="2">  1       -1 0.23013389E+00 0.34692667E+04</pdfrwt>
<totfact> 0.22553182E-01</totfact>
</mgrwt>
</event>
<event>
 6    1  0.2127970E-005  0.2416262E+04  0.7818608E-02  0.8433440E-01
         -2   -1    0    0    0  501 -0.00000000000E+00  0.00000000000E+00  0.10737526381E+04  0.10737526381E+04  0.00000000000E+00 0.  1.
          2   -1    0    0  501    0  0.00000000000E+00 -0.00000000000E+00 -0.13593263305E+04  0.13593263305E+04  0.00000000000E+00 0. -1.
         23    2    1    2    0    0 -0.87036066783E+03 -0.38382603749E+03 -0.89036161442E+03  0.13058617980E+04  0.87641952796E+02 0.  0.
         13    1    3    3    0    0 -0.28955581510E+03 -0.94889506396E+02 -0.32309330706E+03  0.44411245597E+03  0.00000000000E+00 0.  1.
        -13    1    3    3    0    0 -0.58080485273E+03 -0.28893653110E+03 -0.56726830735E+03  0.86174934203E+03  0.00000000000E+00 0. -1.
         22    1    1    2    0    0  0.87036066783E+03  0.38382603749E+03  0.60478792200E+03  0.11272171706E+04  0.00000000000E+00 0.  1.
<mgrwt>
<rscale>  0 0.24162618E+04</rscale>
<asrwt>0</asrwt>
<pdfrwt beam="1">  1        2 0.20912713E+00 0.24162618E+04</pdfrwt>
<pdfrwt beam="2">  1       -2 0.16519271E+00 0.24162618E+04</pdfrwt>
<totfact> 0.31652522E+00</totfact>
</mgrwt>
</event>
<event>
 6    1  0.1780144E-005  0.4847602E+04  0.7818608E-02  0.7852456E-01
          1   -1    0    0  501    0  0.00000000000E+00  0.00000000000E+00  0.19459553299E+04  0.19459553299E+04  0.00000000000E+00 0. -1.
         -1   -1    0    0    0  501 -0.00000000000E+00 -0.00000000000E+00 -0.30189852850E+04  0.30189852850E+04  0.00000000000E+00 0.  1.
         23    2    1    2    0    0  0.36096298741E+03 -0.22820208046E+04  0.21062193956E+03  0.23218977817E+04  0.94522357948E+02 0.  0.
         13    1    3    3    0    0  0.31236006309E+03 -0.21271180468E+04  0.19207913448E+03  0.21584935459E+04  0.00000000000E+00 0. -1.
        -13    1    3    3    0    0  0.48602924320E+02 -0.15490275787E+03  0.18542805085E+02  0.16340423577E+03  0.00000000000E+00 0.  1.
         22    1    1    2    0    0 -0.36096298741E+03  0.22820208046E+04 -0.12836518946E+04  0.26430428331E+04  0.00000000000E+00 0. -1.
<mgrwt>
<rscale>  0 0.48476017E+04</rscale>
<asrwt>0</asrwt>
<pdfrwt beam="1">  1        1 0.29937774E+00 0.48476017E+04</pdfrwt>
<pdfrwt beam="2">  1       -1 0.46445927E+00 0.48476017E+04</pdfrwt>
<totfact> 0.61159831E-03</totfact>
</mgrwt>
</event>
<event>
 6    1  0.1780144E-005  0.2466743E+04  0.7818608E-02  0.8414930E-01
          1   -1    0    0  501    0  0.00000000000E+00  0.00000000000E+00  0.20120025392E+04  0.20120025392E+04  0.00000000000E+00 0. -1.
         -1   -1    0    0    0  501 -0.00000000000E+00 -0.00000000000E+00 -0.75606524755E+03  0.75606524755E+03  0.00000000000E+00 0.  1.
         23    2    1    2    0    0  0.96924229287E+03  0.46314758724E+03 -0.47780582100E+02  0.10788026790E+04  0.87154611676E+02 0.  0.
         13    1    3    3    0    0  0.27646028245E+03  0.17275435817E+03  0.15639242861E+01  0.32600122991E+03  0.00000000000E+00 0.  1.
        -13    1    3    3    0    0  0.69278201042E+03  0.29039322907E+03 -0.49344506386E+02  0.75280144909E+03  0.00000000000E+00 0. -1.
         22    1    1    2    0    0 -0.96924229287E+03 -0.46314758724E+03  0.13037178737E+04  0.16892651077E+04  0.00000000000E+00 0. -1.
<mgrwt>
<rscale>  0 0.24667430E+04</rscale>
<asrwt>0</asrwt>
<pdfrwt beam="1">  1        1 0.30953885E+00 0.24667430E+04</pdfrwt>
<pdfrwt beam="2">  1       -1 0.11631773E+00 0.24667430E+04</pdfrwt>
<totfact> 0.17398600E+00</totfact>
</mgrwt>
</event>
<event>
 6    1  0.1780144E-005  0.9270211E+03  0.7818608E-02  0.9392420E-01
          2   -1    0    0  501    0  0.00000000000E+00  0.00000000000E+00  0.16986764329E+04  0.16986764329E+04  0.00000000000E+00 0. -1.
         -2   -1    0    0    0  501 -0.00000000000E+00 -0.00000000000E+00 -0.12647613127E+03  0.12647613127E+03  0.00000000000E+00 0.  1.
         23    2    1    2    0    0  0.16004036893E+03  0.33016964338E+03  0.13384155493E+04  0.13900890935E+04  0.79790927698E+02 0.  0.
         11    1    3    3    0    0  0.11872355679E+03  0.21864858922E+03  0.10277678428E+04  0.10574541253E+04  0.00000000000E+00 0. -1.
        -11    1    3    3    0    0  0.41316812140E+02  0.11152105416E+03  0.31064770657E+03  0.33263496822E+03  0.00000000000E+00 0.  1.
         22    1    1    2    0    0 -0.16004036893E+03 -0.33016964338E+03  0.23378475232E+03  0.43506347067E+03  0.00000000000E+00 0.  1.
<mgrwt>
<rscale>  0 0.92702109E+03</rscale>
<asrwt>0</asrwt>
<pdfrwt beam="1">  1        2 0.26133482E+00 0.92702109E+03</pdfrwt>
<pdfrwt beam="2">  1       -2 0.19457868E-01 0.92702109E+03</pdfrwt>
<totfact> 0.22105097E+02</totfact>
</mgrwt>
</event>
<event>
 6    1  0.1780144E-005  0.1597003E+04  0.7818608E-02  0.8822391E-01
         -2   -1    0    0    0  501 -0.00000000000E+00  0.00000000000E+00  0.34544472384E+03  0.34544472384E+03  0.00000000000E+00 0.  1.
          2   -1    0    0  501    0  0.00000000000E+00 -0.00000000000E+00 -0.18457505532E+04  0.18457505532E+04  0.00000000000E+00 0. -1.
         23    2    1    2    0    0  0.31870274534E+03 -0.19838049242E+01 -0.17532450623E+04  0.17843124549E+04  0.91254113162E+02 0.  0.
         11    1    3    3    0    0  0.14375863044E+03  0.34179000511E+01 -0.10405874915E+04  0.10504763459E+04  0.00000000000E+00 0.  1.
        -11    1    3    3    0    0  0.17494411489E+03 -0.54017049753E+01 -0.71265757081E+03  0.73383610907E+03  0.00000000000E+00 0. -1.
         22    1    1    2    0    0 -0.31870274534E+03  0.19838049242E+01  0.25293923290E+03  0.40688282209E+03  0.00000000000E+00 0.  1.
<mgrwt>
<rscale>  0 0.15970032E+04</rscale>
<asrwt>0</asrwt>
<pdfrwt beam="1">  1        2 0.28396163E+00 0.15970032E+04</pdfrwt>
<pdfrwt beam="2">  1       -2 0.53145340E-01 0.15970032E+04</pdfrwt>
<totfact> 0.26059009E+01</totfact>
</mgrwt>
</event>
<event>
 6    1  0.1780144E-005  0.1635863E+04  0.7818608E-02  0.8798814E-01
          4   -1    0    0  501    0  0.00000000000E+00  0.00000000000E+00  0.12501369650E+04  0.12501369650E+04  0.00000000000E+00 0. -1.
         -4   -1    0    0    0  501 -0.00000000000E+00 -0.00000000000E+00 -0.53515084091E+03  0.53515084091E+03  0.00000000000E+00 0.  1.
         23    2    1    2    0    0 -0.67777824445E+03  0.44314560494E+03  0.46310657372E+03  0.93722844256E+03  0.90377425814E+02 0.  0.
         11    1    3    3    0    0 -0.33686989237E+03  0.25106746396E+03  0.19707552237E+03  0.46406352729E+03  0.00000000000E+00 0.  1.
        -11    1    3    3    0    0 -0.34090835208E+03  0.19207814098E+03  0.26603105135E+03  0.47316491527E+03  0.00000000000E+00 0. -1.
         22    1    1    2    0    0  0.67777824445E+03 -0.44314560494E+03  0.25187955034E+03  0.84805936331E+03  0.00000000000E+00 0.  1.
<mgrwt>
<rscale>  0 0.16358629E+04</rscale>
<asrwt>0</asrwt>
<pdfrwt beam="1">  1        4 0.19232876E+00 0.16358629E+04</pdfrwt>
<pdfrwt beam="2">  1       -4 0.82330899E-01 0.16358629E+04</pdfrwt>
<totfact> 0.36810388E-01</totfact>
</mgrwt>
</event>
<event>
 6    1  0.1780144E-005  0.1953965E+04  0.7818608E-02  0.8628451E-01
         -1   -1    0    0    0  501 -0.00000000000E+00  0.00000000000E+00  0.41820231925E+03  0.41820231925E+03  0.00000000000E+00 0.  1.
          1   -1    0    0  501    0  0.00000000000E+00 -0.00000000000E+00 -0.22823750292E+04  0.22823750292E+04  0.00000000000E+00 0. -1.
         23    2    1    2    0    0 -0.72113464437E+03 -0.65048187888E+03 -0.81659130812E+03  0.12720856111E+04  0.90656425746E+02 0.  0.
         11    1    3    3    0    0 -0.70418855695E+02 -0.43056410408E+02 -0.97581502554E+02  0.12780774372E+03  0.00000000000E+00 0. -1.
        -11    1    3    3    0    0 -0.65071578868E+03 -0.60742546847E+03 -0.71900980556E+03  0.11442778674E+04  0.00000000000E+00 0.  1.
         22    1    1    2    0    0  0.72113464437E+03  0.65048187888E+03 -0.10475814018E+04  0.14284917373E+04  0.00000000000E+00 0.  1.
<mgrwt>
<rscale>  0 0.19539647E+04</rscale>
<asrwt>0</asrwt>
<pdfrwt beam="1">  1        1 0.35113462E+00 0.19539647E+04</pdfrwt>
<pdfrwt beam="2">  1       -1 0.64338818E-01 0.19539647E+04</pdfrwt>
<totfact> 0.43668596E+00</totfact>
</mgrwt>
</event>
<event>
 6    1  0.1780144E-005  0.8568625E+03  0.7818608E-02  0.9481172E-01
         -2   -1    0    0    0  501 -0.00000000000E+00  0.00000000000E+00  0.17077106184E+03  0.17077106184E+03  0.00000000000E+00 0.  1.
          2   -1    0    0  501    0  0.00000000000E+00 -0.00000000000E+00 -0.10748503104E+04  0.10748503104E+04  0.00000000000E+00 0. -1.
         23    2    1    2    0    0  0.68854871150E+02  0.27410154952E+03 -0.91657658014E+03  0.96272768903E+03  0.82821031339E+02 0.  0.
         11    1    3    3    0    0  0.50883782427E+02  0.56535518992E+02 -0.24974778126E+03  0.26107351161E+03  0.00000000000E+00 0.  1.
        -11    1    3    3    0    0  0.17971088724E+02  0.21756603053E+03 -0.66682879888E+03  0.70165417742E+03  0.00000000000E+00 0. -1.
         22    1    1    2    0    0 -0.68854871150E+02 -0.27410154952E+03  0.12497331531E+02  0.28289368326E+03  0.00000000000E+00 0.  1.
<mgrwt>
<rscale>  0 0.85686248E+03</rscale>
<asrwt>0</asrwt>
<pdfrwt beam="1">  1        2 0.16536159E+00 0.85686248E+03</pdfrwt>
<pdfrwt beam="2">  1       -2 0.26272470E-01 0.85686248E+03</pdfrwt>
<totfact> 0.29666916E+02</totfact>
</mgrwt>
</event>
<event>
 6    1  0.1780144E-005  0.1281285E+04  0.7818608E-02  0.9044539E-01
          2   -1    0    0  501    0  0.00000000000E+00  0.00000000000E+00  0.87218130154E+03  0.87218130154E+03  0.00000000000E+00 0. -1.
         -2   -1    0    0    0  501 -0.00000000000E+00 -0.00000000000E+00 -0.47057073774E+03  0.47057073774E+03  0.00000000000E+00 0.  1.
         23    2    1    2    0    0 -0.61696816477E+03  0.74864370828E+02  0.35060008024E+03  0.71916847648E+03  0.89601846729E+02 0.  0.
         13    1    3    3    0    0 -0.27153458733E+03  0.62367620317E+02  0.11816959327E+03  0.30262981505E+03  0.00000000000E+00 0. -1.
        -13    1    3    3    0    0 -0.34543357744E+03  0.12496750511E+02  0.23243048696E+03  0.41653866143E+03  0.00000000000E+00 0.  1.
         22    1    1    2    0    0  0.61696816477E+03 -0.74864370828E+02  0.51010483563E+02  0.62358356280E+03  0.00000000000E+00 0.  1.
<mgrwt>
<rscale>  0 0.12812853E+04</rscale>
<asrwt>0</asrwt>
<pdfrwt beam="1">  1        2 0.13418174E+00 0.12812853E+04</pdfrwt>
<pdfrwt beam="2">  1       -2 0.72395498E-01 0.12812853E+04</pdfrwt>
<totfact> 0.51928575E+01</totfact>
</mgrwt>
</event>
<event>
 6    1  0.1780144E-005  0.3616136E+04  0.7818608E-02  0.8086805E-01
         -2   -1    0    0    0  501 -0.00000000000E+00  0.00000000000E+00  0.14193769218E+04  0.14193769218E+04  0.00000000000E+00 0.  1.
          2   -1    0    0  501    0  0.00000000000E+00 -0.00000000000E+00 -0.23032011297E+04  0.23032011297E+04  0.00000000000E+00 0. -1.
         23    2    1    2    0    0 -0.50039625163E+03 -0.59145959120E+03  0.12382717737E+04  0.14634826105E+04  0.90793771503E+02 0.  0.
         13    1    3    3    0    0 -0.45264539833E+03 -0.48891919531E+03  0.10788428958E+04  0.12680030875E+04  0.00000000000E+00 0. -1.
        -13    1    3    3    0    0 -0.47750853306E+02 -0.10254039589E+03  0.15942887786E+03  0.19547952291E+03  0.00000000000E+00 0.  1.
         22    1    1    2    0    0  0.50039625163E+03  0.59145959120E+03 -0.21220959816E+04  0.22590954410E+04  0.00000000000E+00 0. -1.
<mgrwt>
<rscale>  0 0.36161364E+04</rscale>
<asrwt>0</asrwt>
<pdfrwt beam="1">  1        2 0.35433863E+00 0.36161364E+04</pdfrwt>
<pdfrwt beam="2">  1       -2 0.21836568E+00 0.36161364E+04</pdfrwt>
<totfact> 0.37198244E-01</totfact>
</mgrwt>
</event>
<event>
 6    1  0.1780144E-005  0.1857040E+04  0.7818608E-02  0.8676541E-01
         -2   -1    0    0    0  501 -0.00000000000E+00  0.00000000000E+00  0.49238199487E+03  0.49238199487E+03  0.00000000000E+00 0.  1.
          2   -1    0    0  501    0  0.00000000000E+00 -0.00000000000E+00 -0.17509764492E+04  0.17509764492E+04  0.00000000000E+00 0. -1.
         23    2    1    2    0    0  0.27310269312E+03 -0.22138486210E+03 -0.16661160515E+04  0.17051482711E+04  0.89395701263E+02 0.  0.
         11    1    3    3    0    0  0.18323820698E+03 -0.10309305124E+03 -0.10967969635E+04  0.11167667603E+04  0.00000000000E+00 0. -1.
        -11    1    3    3    0    0  0.89864486140E+02 -0.11829181085E+03 -0.56931908794E+03  0.58838151082E+03  0.00000000000E+00 0.  1.
         22    1    1    2    0    0 -0.27310269312E+03  0.22138486210E+03  0.40752159713E+03  0.53821017296E+03  0.00000000000E+00 0.  1.
<mgrwt>
<rscale>  0 0.18570399E+04</rscale>
<asrwt>0</asrwt>
<pdfrwt beam="1">  1        2 0.26938099E+00 0.18570399E+04</pdfrwt>
<pdfrwt beam="2">  1       -2 0.75751077E-01 0.18570399E+04</pdfrwt>
<totfact> 0.13483477E+01</totfact>
</mgrwt>
</event>
<event>
 6    1  0.1780144E-005  0.2345041E+04  0.7818608E-02  0.8460371E-01
          2   -1    0    0  501    0  0.00000000000E+00  0.00000000000E+00  0.16375409980E+04  0.16375409980E+04  0.00000000000E+00 0. -1.
         -2   -1    0    0    0  501 -0.00000000000E+00 -0.00000000000E+00 -0.83955411210E+03  0.83955411210E+03  0.00000000000E+00 0.  1.
         23    2    1    2    0    0  0.57489736317E+03  0.10180000254E+04  0.46414960971E+03  0.12612504009E+04  0.92123198623E+02 0.  0.
         13    1    3    3    0    0  0.80841577777E+02  0.16488972226E+03  0.10801326216E+03  0.21305127553E+03  0.00000000000E+00 0.  1.
        -13    1    3    3    0    0  0.49405578539E+03  0.85311030314E+03  0.35613634754E+03  0.10481991254E+04  0.00000000000E+00 0. -1.
         22    1    1    2    0    0 -0.57489736317E+03 -0.10180000254E+04  0.33383727619E+03  0.12158447092E+04  0.00000000000E+00 0. -1.
<mgrwt>
<rscale>  0 0.23450410E+04</rscale>
<asrwt>0</asrwt>
<pdfrwt beam="1">  1        2 0.25192938E+00 0.23450410E+04</pdfrwt>
<pdfrwt beam="2">  1       -2 0.12916217E+00 0.23450410E+04</pdfrwt>
<totfact> 0.42378853E+00</totfact>
</mgrwt>
</event>
<event>
 6    1  0.1780144E-005  0.2338475E+04  0.7818608E-02  0.8462904E-01
          1   -1    0    0  501    0  0.00000000000E+00  0.00000000000E+00  0.31635316097E+04  0.31635316097E+04  0.00000000000E+00 0. -1.
         -1   -1    0    0    0  501 -0.00000000000E+00 -0.00000000000E+00 -0.43214878664E+03  0.43214878664E+03  0.00000000000E+00 0.  1.
         23    2    1    2    0    0 -0.82470262707E+03 -0.30604158263E+03  0.18759333352E+03  0.90408963242E+03  0.91602026555E+02 0.  0.
         11    1    3    3    0    0 -0.67255327184E+03 -0.24674546591E+03  0.11570841510E+03  0.72567187195E+03  0.00000000000E+00 0. -1.
        -11    1    3    3    0    0 -0.15214935523E+03 -0.59296116715E+02  0.71884918423E+02  0.17841776047E+03  0.00000000000E+00 0.  1.
         22    1    1    2    0    0  0.82470262707E+03  0.30604158263E+03  0.25437894896E+04  0.26915907640E+04  0.00000000000E+00 0. -1.
<mgrwt>
<rscale>  0 0.23384750E+04</rscale>
<asrwt>0</asrwt>
<pdfrwt beam="1">  1        1 0.48669716E+00 0.23384750E+04</pdfrwt>
<pdfrwt beam="2">  1       -1 0.66484431E-01 0.23384750E+04</pdfrwt>
<totfact> 0.93558294E-01</totfact>
</mgrwt>
</event>
<event>
 6    1  0.1780144E-005  0.1856148E+04  0.7818608E-02  0.8676997E-01
          1   -1    0    0  501    0  0.00000000000E+00  0.00000000000E+00  0.57520605295E+03  0.57520605295E+03  0.00000000000E+00 0. -1.
         -1   -1    0    0    0  501 -0.00000000000E+00 -0.00000000000E+00 -0.14974137548E+04  0.14974137548E+04  0.00000000000E+00 0.  1.
         23    2    1    2    0    0 -0.76614166768E+03 -0.43435866984E+03 -0.77908190596E+03  0.11803611555E+04  0.10316652663E+03 0.  0.
         11    1    3    3    0    0 -0.48375267559E+03 -0.22723470211E+03 -0.50959347290E+03  0.73846988334E+03  0.00000000000E+00 0. -1.
        -11    1    3    3    0    0 -0.28238899209E+03 -0.20712396773E+03 -0.26948843306E+03  0.44189127217E+03  0.00000000000E+00 0.  1.
         22    1    1    2    0    0  0.76614166768E+03  0.43435866984E+03 -0.14312579589E+03  0.89225865223E+03  0.00000000000E+00 0.  1.
<mgrwt>
<rscale>  0 0.18561481E+04</rscale>
<asrwt>0</asrwt>
<pdfrwt beam="1">  1        1 0.88493239E-01 0.18561481E+04</pdfrwt>
<pdfrwt beam="2">  1       -1 0.23037135E+00 0.18561481E+04</pdfrwt>
<totfact> 0.32075220E+00</totfact>
</mgrwt>
</event>
<event>
 6    1  0.1780144E-005  0.8163428E+03  0.7818608E-02  0.9536658E-01
          1   -1    0    0  501    0  0.00000000000E+00  0.00000000000E+00  0.12503214907E+03  0.12503214907E+03  0.00000000000E+00 0. -1.
         -1   -1    0    0    0  501 -0.00000000000E+00 -0.00000000000E+00 -0.13324883714E+04  0.13324883714E+04  0.00000000000E+00 0.  1.
         23    2    1    2    0    0  0.13920758390E+03 -0.24981001421E+03 -0.10326540252E+03  0.31689737447E+03  0.89310738300E+02 0.  0.
         11    1    3    3    0    0  0.86377196868E+02 -0.82963568031E+02 -0.14434681648E+02  0.12063305432E+03  0.00000000000E+00 0. -1.
        -11    1    3    3    0    0  0.52830387036E+02 -0.16684644618E+03 -0.88830720876E+02  0.19626432016E+03  0.00000000000E+00 0.  1.
         22    1    1    2    0    0 -0.13920758390E+03  0.24981001421E+03 -0.11041908198E+04  0.11406231460E+04  0.00000000000E+00 0.  1.
<mgrwt>
<rscale>  0 0.81634278E+03</rscale>
<asrwt>0</asrwt>
<pdfrwt beam="1">  1        1 0.19235715E-01 0.81634278E+03</pdfrwt>
<pdfrwt beam="2">  1       -1 0.20499822E+00 0.81634278E+03</pdfrwt>
<totfact> 0.39134861E+01</totfact>
</mgrwt>
</event>
<event>
 6    1  0.1780144E-005  0.5803160E+04  0.7818608E-02  0.7715298E-01
          2   -1    0    0  501    0  0.00000000000E+00  0.00000000000E+00  0.32632799630E+04  0.32632799630E+04  0.00000000000E+00 0. -1.
         -2   -1    0    0    0  501 -0.00000000000E+00 -0.00000000000E+00 -0.25799704998E+04  0.25799704998E+04  0.00000000000E+00 0.  1.
         23    2    1    2    0    0 -0.63954037280E+03 -0.75864297684E+03 -0.24030124899E+04  0.26013475875E+04  0.89382267845E+02 0.  0.
         13    1    3    3    0    0 -0.12877571719E+03 -0.20450839556E+03 -0.53555824196E+03  0.58756233689E+03  0.00000000000E+00 0. -1.
        -13    1    3    3    0    0 -0.51076465561E+03 -0.55413458128E+03 -0.18674542479E+04  0.20137852506E+04  0.00000000000E+00 0.  1.
         22    1    1    2    0    0  0.63954037280E+03  0.75864297684E+03  0.30863219531E+04  0.32419028753E+04  0.00000000000E+00 0. -1.
<mgrwt>
<rscale>  0 0.58031598E+04</rscale>
<asrwt>0</asrwt>
<pdfrwt beam="1">  1        2 0.50204307E+00 0.58031598E+04</pdfrwt>
<pdfrwt beam="2">  1       -2 0.39691854E+00 0.58031598E+04</pdfrwt>
<totfact> 0.62600774E-03</totfact>
</mgrwt>
</event>
<event>
 6    1  0.1780144E-005  0.2687083E+04  0.7818608E-02  0.8339208E-01
          2   -1    0    0  501    0  0.00000000000E+00  0.00000000000E+00  0.12426034506E+04  0.12426034506E+04  0.00000000000E+00 0. -1.
         -2   -1    0    0    0  501 -0.00000000000E+00 -0.00000000000E+00 -0.14526788211E+04  0.14526788211E+04  0.00000000000E+00 0.  1.
         23    2    1    2    0    0 -0.89011999984E+03  0.74681809242E+03  0.56785772211E+03  0.12969866041E+04  0.98290291182E+02 0.  0.
         13    1    3    3    0    0 -0.47021142285E+02  0.22180632691E+02  0.43618748434E+02  0.67864302128E+02  0.00000000000E+00 0. -1.
        -13    1    3    3    0    0 -0.84309885756E+03  0.72463745973E+03  0.52423897368E+03  0.12291223020E+04  0.00000000000E+00 0.  1.
         22    1    1    2    0    0  0.89011999984E+03 -0.74681809242E+03 -0.77793309264E+03  0.13982956676E+04  0.00000000000E+00 0. -1.
<mgrwt>
<rscale>  0 0.26870830E+04</rscale>
<asrwt>0</asrwt>
<pdfrwt beam="1">  1        2 0.19116976E+00 0.26870830E+04</pdfrwt>
<pdfrwt beam="2">  1       -2 0.22348905E+00 0.26870830E+04</pdfrwt>
<totfact> 0.14740064E+00</totfact>
</mgrwt>
</event>
<event>
 6    1  0.1780144E-005  0.2042854E+04  0.7818608E-02  0.8586843E-01
         -2   -1    0    0    0  501 -0.00000000000E+00  0.00000000000E+00  0.37523830160E+03  0.37523830160E+03  0.00000000000E+00 0.  1.
          2   -1    0    0  501    0  0.00000000000E+00 -0.00000000000E+00 -0.27804015565E+04  0.27804015565E+04  0.00000000000E+00 0. -1.
         23    2    1    2    0    0 -0.43992877256E+03  0.13623685135E+03 -0.26098154206E+04  0.26516752626E+04  0.90262751130E+02 0.  0.
         13    1    3    3    0    0 -0.16918185233E+03  0.94695383028E+02 -0.11876912271E+04  0.12034118853E+04  0.00000000000E+00 0. -1.
        -13    1    3    3    0    0 -0.27074692023E+03  0.41541468325E+02 -0.14221241935E+04  0.14482633773E+04  0.00000000000E+00 0.  1.
         22    1    1    2    0    0  0.43992877256E+03 -0.13623685135E+03  0.20465216568E+03  0.50396459549E+03  0.00000000000E+00 0.  1.
<mgrwt>
<rscale>  0 0.20428540E+04</rscale>
<asrwt>0</asrwt>
<pdfrwt beam="1">  1        2 0.42775408E+00 0.20428540E+04</pdfrwt>
<pdfrwt beam="2">  1       -2 0.57728971E-01 0.20428540E+04</pdfrwt>
<totfact> 0.61889949E+00</totfact>
</mgrwt>
</event>
<event>
 6    1  0.1780144E-005  0.3822037E+04  0.7818608E-02  0.8041442E-01
          2   -1    0    0  501    0  0.00000000000E+00  0.00000000000E+00  0.19700320277E+04  0.19700320277E+04  0.00000000000E+00 0.  1.
         -2   -1    0    0    0  501 -0.00000000000E+00 -0.00000000000E+00 -0.18537724040E+04  0.18537724040E+04  0.00000000000E+00 0. -1.
         23    2    1    2    0    0 -0.57933855506E+03 -0.79859886541E+03 -0.15777006283E+04  0.18634741931E+04  0.10001743202E+03 0.  0.
         13    1    3    3    0    0 -0.21218633227E+03 -0.33291138282E+03 -0.55122709039E+03  0.67801499511E+03  0.00000000000E+00 0. -1.
        -13    1    3    3    0    0 -0.36715222279E+03 -0.46568748259E+03 -0.10264735379E+04  0.11854591980E+04  0.00000000000E+00 0.  1.
         22    1    1    2    0    0  0.57933855506E+03  0.79859886541E+03  0.16939602519E+04  0.19603302386E+04  0.00000000000E+00 0.  1.
<mgrwt>
<rscale>  0 0.38220366E+04</rscale>
<asrwt>0</asrwt>
<pdfrwt beam="1">  1        2 0.30308185E+00 0.38220366E+04</pdfrwt>
<pdfrwt beam="2">  1       -2 0.28519575E+00 0.38220366E+04</pdfrwt>
<totfact> 0.21754154E-01</totfact>
</mgrwt>
</event>
<event>
 6    1  0.1780144E-005  0.4509029E+04  0.7818608E-02  0.7909058E-01
         -2   -1    0    0    0  501 -0.00000000000E+00  0.00000000000E+00  0.21315004221E+04  0.21315004221E+04  0.00000000000E+00 0.  1.
          2   -1    0    0  501    0  0.00000000000E+00 -0.00000000000E+00 -0.23846282804E+04  0.23846282804E+04  0.00000000000E+00 0. -1.
         23    2    1    2    0    0  0.23602211671E+03  0.21298820234E+04 -0.82525132750E+03  0.22981500873E+04  0.91379414746E+02 0.  0.
         11    1    3    3    0    0  0.15220865587E+03  0.10448564558E+04 -0.37654244799E+03  0.11210159247E+04  0.00000000000E+00 0. -1.
        -11    1    3    3    0    0  0.83813460840E+02  0.10850255675E+04 -0.44870887951E+03  0.11771341627E+04  0.00000000000E+00 0.  1.
         22    1    1    2    0    0 -0.23602211671E+03 -0.21298820234E+04  0.57212346921E+03  0.22179786151E+04  0.00000000000E+00 0.  1.
<mgrwt>
<rscale>  0 0.45090292E+04</rscale>
<asrwt>0</asrwt>
<pdfrwt beam="1">  1        2 0.36686589E+00 0.45090292E+04</pdfrwt>
<pdfrwt beam="2">  1       -2 0.32792314E+00 0.45090292E+04</pdfrwt>
<totfact> 0.65689206E-02</totfact>
</mgrwt>
</event>
<event>
 6    1  0.1853190E-005  0.3376660E+04  0.7818608E-02  0.8143659E-01
          2   -1    0    0  501    0  0.00000000000E+00  0.00000000000E+00  0.24506216243E+04  0.24506216243E+04  0.00000000000E+00 0.  1.
         -2   -1    0    0    0  501 -0.00000000000E+00 -0.00000000000E+00 -0.11631573866E+04  0.11631573866E+04  0.00000000000E+00 0. -1.
         23    2    1    2    0    0  0.56560787585E+03 -0.14921702257E+04  0.12299036310E+04  0.20169704829E+04  0.94988080992E+02 0.  0.
         13    1    3    3    0    0  0.21191899136E+03 -0.67762915658E+03  0.57361445163E+03  0.91275652387E+03  0.00000000000E+00 0.  1.
        -13    1    3    3    0    0  0.35368888449E+03 -0.81454106912E+03  0.65628917940E+03  0.11042139590E+04  0.00000000000E+00 0. -1.
         22    1    1    2    0    0 -0.56560787585E+03  0.14921702257E+04  0.57560606602E+02  0.15968085280E+04  0.00000000000E+00 0. -1.
<mgrwt>
<rscale>  0 0.33766603E+04</rscale>
<asrwt>0</asrwt>
<pdfrwt beam="1">  1        2 0.37701871E+00 0.33766603E+04</pdfrwt>
<pdfrwt beam="2">  1       -2 0.17894729E+00 0.33766603E+04</pdfrwt>
<totfact> 0.56894695E-01</totfact>
</mgrwt>
</event>
<event>
 6    1  0.1780144E-005  0.5121702E+04  0.7818608E-02  0.7810003E-01
          1   -1    0    0  501    0  0.00000000000E+00  0.00000000000E+00  0.15134377318E+04  0.15134377318E+04  0.00000000000E+00 0. -1.
         -1   -1    0    0    0  501 -0.00000000000E+00 -0.00000000000E+00 -0.43331535873E+04  0.43331535873E+04  0.00000000000E+00 0.  1.
         23    2    1    2    0    0  0.16706415235E+03  0.25147127040E+04 -0.89788443563E+03  0.26771865766E+04  0.97165279641E+02 0.  0.
         11    1    3    3    0    0  0.11524251540E+03  0.10352071498E+04 -0.38334519916E+03  0.11099046004E+04  0.00000000000E+00 0. -1.
        -11    1    3    3    0    0  0.51821636949E+02  0.14795055542E+04 -0.51453923647E+03  0.15672819762E+04  0.00000000000E+00 0.  1.
         22    1    1    2    0    0 -0.16706415235E+03 -0.25147127040E+04 -0.19218314200E+04  0.31694047425E+04  0.00000000000E+00 0. -1.
<mgrwt>
<rscale>  0 0.51217021E+04</rscale>
<asrwt>0</asrwt>
<pdfrwt beam="1">  1        1 0.23283657E+00 0.51217021E+04</pdfrwt>
<pdfrwt beam="2">  1       -1 0.66663902E+00 0.51217021E+04</pdfrwt>
<totfact> 0.11973286E-03</totfact>
</mgrwt>
</event>
<event>
 6    1  0.1780144E-005  0.1642174E+04  0.7818608E-02  0.8795050E-01
          1   -1    0    0  501    0  0.00000000000E+00  0.00000000000E+00  0.83237522699E+03  0.83237522699E+03  0.00000000000E+00 0. -1.
         -1   -1    0    0    0  501 -0.00000000000E+00 -0.00000000000E+00 -0.80995156762E+03  0.80995156762E+03  0.00000000000E+00 0.  1.
         23    2    1    2    0    0 -0.58744916604E+03  0.40024031381E+03  0.41700578643E+03  0.82931763939E+03  0.92655758645E+02 0.  0.
         13    1    3    3    0    0 -0.21837353674E+03  0.96558889518E+02  0.14632898173E+03  0.28004069631E+03  0.00000000000E+00 0.  1.
        -13    1    3    3    0    0 -0.36907562930E+03  0.30368142429E+03  0.27067680470E+03  0.54927694308E+03  0.00000000000E+00 0. -1.
         22    1    1    2    0    0  0.58744916604E+03 -0.40024031381E+03 -0.39458212706E+03  0.81300915522E+03  0.00000000000E+00 0.  1.
<mgrwt>
<rscale>  0 0.16421737E+04</rscale>
<asrwt>0</asrwt>
<pdfrwt beam="1">  1        1 0.12805773E+00 0.16421737E+04</pdfrwt>
<pdfrwt beam="2">  1       -1 0.12460793E+00 0.16421737E+04</pdfrwt>
<totfact> 0.11183033E+01</totfact>
</mgrwt>
</event>
<event>
 6    1  0.1780144E-005  0.2688714E+04  0.7818608E-02  0.8338676E-01
         -1   -1    0    0    0  501 -0.00000000000E+00  0.00000000000E+00  0.27429729503E+04  0.27429729503E+04  0.00000000000E+00 0.  1.
          1   -1    0    0  501    0  0.00000000000E+00 -0.00000000000E+00 -0.65888209607E+03  0.65888209607E+03  0.00000000000E+00 0. -1.
         23    2    1    2    0    0 -0.10513440858E+04  0.54929075309E+03  0.24738498529E+03  0.12154120064E+04  0.94774975895E+02 0.  0.
         13    1    3    3    0    0 -0.44190120579E+03  0.22055301910E+03  0.56317553334E+02  0.49708347058E+03  0.00000000000E+00 0.  1.
        -13    1    3    3    0    0 -0.60944288002E+03  0.32873773398E+03  0.19106743196E+03  0.71832853578E+03  0.00000000000E+00 0. -1.
         22    1    1    2    0    0  0.10513440858E+04 -0.54929075309E+03  0.18367058690E+04  0.21864430400E+04  0.00000000000E+00 0. -1.
<mgrwt>
<rscale>  0 0.26887140E+04</rscale>
<asrwt>0</asrwt>
<pdfrwt beam="1">  1        1 0.10136648E+00 0.26887140E+04</pdfrwt>
<pdfrwt beam="2">  1       -1 0.42199583E+00 0.26887140E+04</pdfrwt>
<totfact> 0.13168695E-01</totfact>
</mgrwt>
</event>
<event>
 6    1  0.1780144E-005  0.1693662E+04  0.7818608E-02  0.8764987E-01
          1   -1    0    0  501    0  0.00000000000E+00  0.00000000000E+00  0.33563412664E+04  0.33563412664E+04  0.00000000000E+00 0. -1.
         -1   -1    0    0    0  501 -0.00000000000E+00 -0.00000000000E+00 -0.21366213880E+03  0.21366213880E+03  0.00000000000E+00 0.  1.
         23    2    1    2    0    0  0.65053302678E+03 -0.13440823983E+02  0.27102306235E+04  0.27887316321E+04  0.91105481665E+02 0.  0.
         11    1    3    3    0    0  0.24174328025E+03  0.23229683177E+02  0.11549336662E+04  0.11801911730E+04  0.00000000000E+00 0. -1.
        -11    1    3    3    0    0  0.40878974653E+03 -0.36670507159E+02  0.15552969574E+04  0.16085404591E+04  0.00000000000E+00 0.  1.
         22    1    1    2    0    0 -0.65053302678E+03  0.13440823983E+02  0.43244850406E+03  0.78127177304E+03  0.00000000000E+00 0.  1.
<mgrwt>
<rscale>  0 0.16936624E+04</rscale>
<asrwt>0</asrwt>
<pdfrwt beam="1">  1        1 0.51636016E+00 0.16936624E+04</pdfrwt>
<pdfrwt beam="2">  1       -1 0.32871101E-01 0.16936624E+04</pdfrwt>
<totfact> 0.26907001E+00</totfact>
</mgrwt>
</event>
<event>
 6    1  0.1780144E-005  0.1029731E+04  0.7818608E-02  0.9276525E-01
         -1   -1    0    0    0  501 -0.00000000000E+00  0.00000000000E+00  0.22888451121E+03  0.22888451121E+03  0.00000000000E+00 0.  1.
          1   -1    0    0  501    0  0.00000000000E+00 -0.00000000000E+00 -0.11581663888E+04  0.11581663888E+04  0.00000000000E+00 0. -1.
         23    2    1    2    0    0 -0.96034757544E+02 -0.50072966625E+03 -0.51062458058E+03  0.72733368357E+03  0.91235692849E+02 0.  0.
         11    1    3    3    0    0 -0.69586123623E+02 -0.16480141647E+03 -0.20883412032E+03  0.27497895426E+03  0.00000000000E+00 0. -1.
        -11    1    3    3    0    0 -0.26448633921E+02 -0.33592824978E+03 -0.30179046025E+03  0.45235472931E+03  0.00000000000E+00 0.  1.
         22    1    1    2    0    0  0.96034757544E+02  0.50072966625E+03 -0.41865729697E+03  0.65971721641E+03  0.00000000000E+00 0.  1.
<mgrwt>
<rscale>  0 0.10297307E+04</rscale>
<asrwt>0</asrwt>
<pdfrwt beam="1">  1        1 0.17817945E+00 0.10297307E+04</pdfrwt>
<pdfrwt beam="2">  1       -1 0.35213001E-01 0.10297307E+04</pdfrwt>
<totfact> 0.88038219E+01</totfact>
</mgrwt>
</event>
<event>
 6    1  0.1780144E-005  0.1864810E+04  0.7818608E-02  0.8672574E-01
          2   -1    0    0  501    0  0.00000000000E+00  0.00000000000E+00  0.16760262730E+04  0.16760262730E+04  0.00000000000E+00 0. -1.
         -2   -1    0    0    0  501 -0.00000000000E+00 -0.00000000000E+00 -0.51871440529E+03  0.51871440529E+03  0.00000000000E+00 0.  1.
         23    2    1    2    0    0  0.64190527619E+02  0.79486588685E+03  0.16364592205E+02  0.80273030210E+03  0.90420883187E+02 0.  0.
         13    1    3    3    0    0  0.74599959922E+02  0.66276646176E+03  0.39914474974E+02  0.66814497092E+03  0.00000000000E+00 0.  1.
        -13    1    3    3    0    0 -0.10409432302E+02  0.13209942509E+03 -0.23549882769E+02  0.13458533117E+03  0.00000000000E+00 0. -1.
         22    1    1    2    0    0 -0.64190527619E+02 -0.79486588685E+03  0.11409472755E+04  0.13920103761E+04  0.00000000000E+00 0. -1.
<mgrwt>
<rscale>  0 0.18648099E+04</rscale>
<asrwt>0</asrwt>
<pdfrwt beam="1">  1        2 0.25785019E+00 0.18648099E+04</pdfrwt>
<pdfrwt beam="2">  1       -2 0.79802217E-01 0.18648099E+04</pdfrwt>
<totfact> 0.13201901E+01</totfact>
</mgrwt>
</event>
<event>
 6    1  0.1780144E-005  0.1761300E+04  0.7818608E-02  0.8727155E-01
         -1   -1    0    0    0  501 -0.00000000000E+00  0.00000000000E+00  0.81929414004E+03  0.81929414004E+03  0.00000000000E+00 0.  1.
          1   -1    0    0  501    0  0.00000000000E+00 -0.00000000000E+00 -0.94660056349E+03  0.94660056349E+03  0.00000000000E+00 0. -1.
         23    2    1    2    0    0 -0.48225190649E+02  0.67616937027E+03 -0.62350508131E+03  0.92580911600E+03  0.93985352865E+02 0.  0.
         13    1    3    3    0    0  0.19542286903E+02  0.23156811633E+03 -0.24858359867E+03  0.34029325442E+03  0.00000000000E+00 0. -1.
        -13    1    3    3    0    0 -0.67767477552E+02  0.44460125394E+03 -0.37492148264E+03  0.58551586158E+03  0.00000000000E+00 0.  1.
         22    1    1    2    0    0  0.48225190649E+02 -0.67616937027E+03  0.49619865787E+03  0.84008558753E+03  0.00000000000E+00 0.  1.
<mgrwt>
<rscale>  0 0.17612999E+04</rscale>
<asrwt>0</asrwt>
<pdfrwt beam="1">  1        1 0.14563086E+00 0.17612999E+04</pdfrwt>
<pdfrwt beam="2">  1       -1 0.12604525E+00 0.17612999E+04</pdfrwt>
<totfact> 0.86564609E+00</totfact>
</mgrwt>
</event>
<event>
 6    1  0.1780144E-005  0.1697605E+04  0.7818608E-02  0.8762731E-01
         -2   -1    0    0    0  501 -0.00000000000E+00  0.00000000000E+00  0.35865852161E+03  0.35865852161E+03  0.00000000000E+00 0.  1.
          2   -1    0    0  501    0  0.00000000000E+00 -0.00000000000E+00 -0.20087790795E+04  0.20087790795E+04  0.00000000000E+00 0. -1.
         23    2    1    2    0    0 -0.21956565697E+03 -0.10940011776E+03 -0.19570609486E+04  0.19745128412E+04  0.91847373798E+02 0.  0.
         11    1    3    3    0    0 -0.18480123683E+03 -0.58939639730E+02 -0.12703953132E+04  0.12851185277E+04  0.00000000000E+00 0.  1.
        -11    1    3    3    0    0 -0.34764420143E+02 -0.50460478029E+02 -0.68666563539E+03  0.68939431357E+03  0.00000000000E+00 0. -1.
         22    1    1    2    0    0  0.21956565697E+03  0.10940011776E+03  0.30694039072E+03  0.39292475990E+03  0.00000000000E+00 0.  1.
<mgrwt>
<rscale>  0 0.16976051E+04</rscale>
<asrwt>0</asrwt>
<pdfrwt beam="1">  1        2 0.30904293E+00 0.16976051E+04</pdfrwt>
<pdfrwt beam="2">  1       -2 0.55178234E-01 0.16976051E+04</pdfrwt>
<totfact> 0.19418909E+01</totfact>
</mgrwt>
</event>
<event>
 6    1  0.1780144E-005  0.4517838E+04  0.7818608E-02  0.7907521E-01
          1   -1    0    0  501    0  0.00000000000E+00  0.00000000000E+00  0.26455436217E+04  0.26455436217E+04  0.00000000000E+00 0. -1.
         -1   -1    0    0    0  501 -0.00000000000E+00 -0.00000000000E+00 -0.19287963827E+04  0.19287963827E+04  0.00000000000E+00 0.  1.
         23    2    1    2    0    0 -0.17416777615E+04  0.10101718491E+04 -0.67640580263E+03  0.21259192916E+04  0.90107908293E+02 0.  0.
         11    1    3    3    0    0 -0.40227597772E+03  0.20265463525E+03 -0.12340921946E+03  0.46703821994E+03  0.00000000000E+00 0. -1.
        -11    1    3    3    0    0 -0.13394017838E+04  0.80751721380E+03 -0.55299658317E+03  0.16588810717E+04  0.00000000000E+00 0.  1.
         22    1    1    2    0    0  0.17416777615E+04 -0.10101718491E+04  0.13931530416E+04  0.24484207128E+04  0.00000000000E+00 0. -1.
<mgrwt>
<rscale>  0 0.45178380E+04</rscale>
<asrwt>0</asrwt>
<pdfrwt beam="1">  1        1 0.40700671E+00 0.45178380E+04</pdfrwt>
<pdfrwt beam="2">  1       -1 0.29673791E+00 0.45178380E+04</pdfrwt>
<totfact> 0.27891960E-02</totfact>
</mgrwt>
</event>
<event>
 6    1  0.1780144E-005  0.2188212E+04  0.7818608E-02  0.8523351E-01
          2   -1    0    0  501    0  0.00000000000E+00  0.00000000000E+00  0.87146404015E+03  0.87146404015E+03  0.00000000000E+00 0. -1.
         -2   -1    0    0    0  501 -0.00000000000E+00 -0.00000000000E+00 -0.13736286623E+04  0.13736286623E+04  0.00000000000E+00 0.  1.
         23    2    1    2    0    0  0.93582257215E+03  0.33475087576E+03 -0.71604092095E+03  0.12284486612E+04  0.92463383650E+02 0.  0.
         13    1    3    3    0    0  0.53380641244E+03  0.20487789767E+03 -0.35746854647E+03  0.67432039909E+03  0.00000000000E+00 0.  1.
        -13    1    3    3    0    0  0.40201615971E+03  0.12987297809E+03 -0.35857237449E+03  0.55412826209E+03  0.00000000000E+00 0. -1.
         22    1    1    2    0    0 -0.93582257215E+03 -0.33475087576E+03  0.21387629884E+03  0.10166440412E+04  0.00000000000E+00 0. -1.
<mgrwt>
<rscale>  0 0.21882120E+04</rscale>
<asrwt>0</asrwt>
<pdfrwt beam="1">  1        2 0.13407139E+00 0.21882120E+04</pdfrwt>
<pdfrwt beam="2">  1       -2 0.21132749E+00 0.21882120E+04</pdfrwt>
<totfact> 0.31492749E+00</totfact>
</mgrwt>
</event>
<event>
 6    1  0.1780144E-005  0.1384242E+04  0.7818608E-02  0.8965304E-01
          1   -1    0    0  501    0  0.00000000000E+00  0.00000000000E+00  0.12072211370E+04  0.12072211370E+04  0.00000000000E+00 0. -1.
         -1   -1    0    0    0  501 -0.00000000000E+00 -0.00000000000E+00 -0.39680521751E+03  0.39680521751E+03  0.00000000000E+00 0.  1.
         23    2    1    2    0    0  0.55025908839E+03 -0.39371907108E+03  0.55845868953E+03  0.88202758926E+03  0.91086711531E+02 0.  0.
         13    1    3    3    0    0  0.32122558130E+03 -0.19208581239E+03  0.26432673046E+03  0.45820459822E+03  0.00000000000E+00 0. -1.
        -13    1    3    3    0    0  0.22903350709E+03 -0.20163325869E+03  0.29413195907E+03  0.42382299103E+03  0.00000000000E+00 0.  1.
         22    1    1    2    0    0 -0.55025908839E+03  0.39371907108E+03  0.25195722994E+03  0.72199876524E+03  0.00000000000E+00 0.  1.
<mgrwt>
<rscale>  0 0.13842422E+04</rscale>
<asrwt>0</asrwt>
<pdfrwt beam="1">  1        1 0.18572633E+00 0.13842422E+04</pdfrwt>
<pdfrwt beam="2">  1       -1 0.61046957E-01 0.13842422E+04</pdfrwt>
<totfact> 0.28045188E+01</totfact>
</mgrwt>
</event>
<event>
 6    1  0.1780144E-005  0.3343512E+04  0.7818608E-02  0.8151911E-01
          3   -1    0    0  501    0  0.00000000000E+00  0.00000000000E+00  0.14727605180E+04  0.14727605180E+04  0.00000000000E+00 0. -1.
         -3   -1    0    0    0  501 -0.00000000000E+00 -0.00000000000E+00 -0.18976395536E+04  0.18976395536E+04  0.00000000000E+00 0.  1.
         23    2    1    2    0    0  0.95019796455E+03  0.76038072170E+03 -0.13660046435E+04  0.18319682649E+04  0.95310145613E+02 0.  0.
         11    1    3    3    0    0  0.73694469095E+03  0.53810464143E+03 -0.10350949559E+04  0.13798788535E+04  0.00000000000E+00 0.  1.
        -11    1    3    3    0    0  0.21325327360E+03  0.22227608027E+03 -0.33090968764E+03  0.45208941144E+03  0.00000000000E+00 0. -1.
         22    1    1    2    0    0 -0.95019796455E+03 -0.76038072170E+03  0.94112560790E+03  0.15384318066E+04  0.00000000000E+00 0. -1.
<mgrwt>
<rscale>  0 0.33435123E+04</rscale>
<asrwt>0</asrwt>
<pdfrwt beam="1">  1        3 0.22657854E+00 0.33435123E+04</pdfrwt>
<pdfrwt beam="2">  1       -3 0.29194454E+00 0.33435123E+04</pdfrwt>
<totfact> 0.91916974E-03</totfact>
</mgrwt>
</event>
<event>
 6    1  0.1780144E-005  0.1020305E+04  0.7818608E-02  0.9286551E-01
         -2   -1    0    0    0  501 -0.00000000000E+00  0.00000000000E+00  0.11094042915E+03  0.11094042915E+03  0.00000000000E+00 0.  1.
          2   -1    0    0  501    0  0.00000000000E+00 -0.00000000000E+00 -0.23459015807E+04  0.23459015807E+04  0.00000000000E+00 0. -1.
         23    2    1    2    0    0 -0.28973850257E+03 -0.36672299359E+03 -0.15934598967E+04  0.16631430657E+04  0.92175164039E+02 0.  0.
         11    1    3    3    0    0 -0.27778430687E+03 -0.36223164565E+03 -0.15798671493E+04  0.16444926560E+04  0.00000000000E+00 0.  1.
        -11    1    3    3    0    0 -0.11954195699E+02 -0.44913479408E+01 -0.13592747369E+02  0.18650409705E+02  0.00000000000E+00 0. -1.
         22    1    1    2    0    0  0.28973850257E+03  0.36672299359E+03 -0.64150125488E+03  0.79369894413E+03  0.00000000000E+00 0.  1.
<mgrwt>
<rscale>  0 0.10203045E+04</rscale>
<asrwt>0</asrwt>
<pdfrwt beam="1">  1        2 0.36090792E+00 0.10203045E+04</pdfrwt>
<pdfrwt beam="2">  1       -2 0.17067759E-01 0.10203045E+04</pdfrwt>
<totfact> 0.12094719E+02</totfact>
</mgrwt>
</event>
<event>
 6    1  0.1780144E-005  0.1066892E+04  0.7818608E-02  0.9238075E-01
          2   -1    0    0  501    0  0.00000000000E+00  0.00000000000E+00  0.16173706404E+04  0.16173706404E+04  0.00000000000E+00 0. -1.
         -2   -1    0    0    0  501 -0.00000000000E+00 -0.00000000000E+00 -0.17594287186E+03  0.17594287186E+03  0.00000000000E+00 0.  1.
         23    2    1    2    0    0  0.24497763432E+03  0.36978762129E+03  0.12120793311E+04  0.12939562935E+04  0.91813171272E+02 0.  0.
         13    1    3    3    0    0  0.90812818920E+02  0.21336896085E+03  0.57046219524E+03  0.61579249568E+03  0.00000000000E+00 0. -1.
        -13    1    3    3    0    0  0.15416481540E+03  0.15641866044E+03  0.64161713586E+03  0.67816379782E+03  0.00000000000E+00 0.  1.
         22    1    1    2    0    0 -0.24497763432E+03 -0.36978762129E+03  0.22934843743E+03  0.49935721876E+03  0.00000000000E+00 0.  1.
<mgrwt>
<rscale>  0 0.10668924E+04</rscale>
<asrwt>0</asrwt>
<pdfrwt beam="1">  1        2 0.24882624E+00 0.10668924E+04</pdfrwt>
<pdfrwt beam="2">  1       -2 0.27068135E-01 0.10668924E+04</pdfrwt>
<totfact> 0.13454525E+02</totfact>
</mgrwt>
</event>
<event>
 6    1  0.1780144E-005  0.1298830E+04  0.7818608E-02  0.9030493E-01
         -2   -1    0    0    0  501 -0.00000000000E+00  0.00000000000E+00  0.56313624930E+03  0.56313624930E+03  0.00000000000E+00 0.  1.
          2   -1    0    0  501    0  0.00000000000E+00 -0.00000000000E+00 -0.74891304312E+03  0.74891304312E+03  0.00000000000E+00 0. -1.
         23    2    1    2    0    0 -0.29252275181E+03  0.28095346267E+03  0.41467637089E+03  0.58744704875E+03  0.92914659749E+02 0.  0.
         11    1    3    3    0    0 -0.26555388943E+03  0.20722707064E+03  0.32198852649E+03  0.46598126378E+03  0.00000000000E+00 0. -1.
        -11    1    3    3    0    0 -0.26968862380E+02  0.73726392033E+02  0.92687844395E+02  0.12146578497E+03  0.00000000000E+00 0.  1.
         22    1    1    2    0    0  0.29252275181E+03 -0.28095346267E+03 -0.60045316471E+03  0.72460224367E+03  0.00000000000E+00 0. -1.
<mgrwt>
<rscale>  0 0.12988304E+04</rscale>
<asrwt>0</asrwt>
<pdfrwt beam="1">  1        2 0.11521739E+00 0.12988304E+04</pdfrwt>
<pdfrwt beam="2">  1       -2 0.86636347E-01 0.12988304E+04</pdfrwt>
<totfact> 0.42501093E+01</totfact>
</mgrwt>
</event>
<event>
 6    1  0.1780144E-005  0.3055189E+04  0.7818608E-02  0.8228145E-01
          2   -1    0    0  501    0  0.00000000000E+00  0.00000000000E+00  0.30940402688E+04  0.30940402688E+04  0.00000000000E+00 0. -1.
         -2   -1    0    0    0  501 -0.00000000000E+00 -0.00000000000E+00 -0.75420653549E+03  0.75420653549E+03  0.00000000000E+00 0.  1.
         23    2    1    2    0    0 -0.71137080331E+03  0.48307741853E+03  0.27591879231E+04  0.28915492822E+04  0.92341997481E+02 0.  0.
         11    1    3    3    0    0 -0.67044509711E+03  0.42977924460E+03  0.25831162049E+04  0.27030901123E+04  0.00000000000E+00 0. -1.
        -11    1    3    3    0    0 -0.40925706195E+02  0.53298173933E+02  0.17607171821E+03  0.18845916992E+03  0.00000000000E+00 0.  1.
         22    1    1    2    0    0  0.71137080331E+03 -0.48307741853E+03 -0.41935418984E+03  0.95669752202E+03  0.00000000000E+00 0.  1.
<mgrwt>
<rscale>  0 0.30551893E+04</rscale>
<asrwt>0</asrwt>
<pdfrwt beam="1">  1        2 0.47600619E+00 0.30551893E+04</pdfrwt>
<pdfrwt beam="2">  1       -2 0.11603178E+00 0.30551893E+04</pdfrwt>
<totfact> 0.74578816E-01</totfact>
</mgrwt>
</event>
<event>
 6    1  0.1780144E-005  0.1994862E+04  0.7818608E-02  0.8609027E-01
         -1   -1    0    0    0  501 -0.00000000000E+00  0.00000000000E+00  0.63334587106E+03  0.63334587106E+03  0.00000000000E+00 0.  1.
          1   -1    0    0  501    0  0.00000000000E+00 -0.00000000000E+00 -0.15708134132E+04  0.15708134132E+04  0.00000000000E+00 0. -1.
         23    2    1    2    0    0  0.72741144665E+03  0.31553859157E+03  0.19511255010E+03  0.82161464455E+03  0.91047797518E+02 0.  0.
         13    1    3    3    0    0  0.30497744968E+03  0.84545420251E+02  0.69166078027E+02  0.32394925412E+03  0.00000000000E+00 0. -1.
        -13    1    3    3    0    0  0.42243399698E+03  0.23099317132E+03  0.12594647207E+03  0.49766539042E+03  0.00000000000E+00 0.  1.
         22    1    1    2    0    0 -0.72741144665E+03 -0.31553859157E+03 -0.11325800923E+04  0.13825446398E+04  0.00000000000E+00 0. -1.
<mgrwt>
<rscale>  0 0.19948616E+04</rscale>
<asrwt>0</asrwt>
<pdfrwt beam="1">  1        1 0.24166360E+00 0.19948616E+04</pdfrwt>
<pdfrwt beam="2">  1       -1 0.97437826E-01 0.19948616E+04</pdfrwt>
<totfact> 0.54841967E+00</totfact>
</mgrwt>
</event>
<event>
 6    1  0.1780144E-005  0.4290009E+04  0.7818608E-02  0.7948468E-01
          1   -1    0    0  501    0  0.00000000000E+00  0.00000000000E+00  0.18549440138E+04  0.18549440138E+04  0.00000000000E+00 0. -1.
         -1   -1    0    0    0  501 -0.00000000000E+00 -0.00000000000E+00 -0.24804219739E+04  0.24804219739E+04  0.00000000000E+00 0.  1.
         23    2    1    2    0    0 -0.17858777416E+04 -0.68011872830E+03  0.66953626494E+03  0.20269070568E+04  0.90291829803E+02 0.  0.
         13    1    3    3    0    0 -0.68867729236E+03 -0.30181833220E+03  0.23778567167E+03  0.78861444592E+03  0.00000000000E+00 0.  1.
        -13    1    3    3    0    0 -0.10972004492E+04 -0.37830039610E+03  0.43175059328E+03  0.12382926109E+04  0.00000000000E+00 0. -1.
         22    1    1    2    0    0  0.17858777416E+04  0.68011872830E+03 -0.12950142250E+04  0.23084589309E+04  0.00000000000E+00 0.  1.
<mgrwt>
<rscale>  0 0.42900088E+04</rscale>
<asrwt>0</asrwt>
<pdfrwt beam="1">  1        1 0.28537600E+00 0.42900088E+04</pdfrwt>
<pdfrwt beam="2">  1       -1 0.38160338E+00 0.42900088E+04</pdfrwt>
<totfact> 0.27257870E-02</totfact>
</mgrwt>
</event>
<event>
 6    1  0.1780144E-005  0.1144683E+04  0.7818608E-02  0.9162703E-01
          1   -1    0    0  501    0  0.00000000000E+00  0.00000000000E+00  0.10182250067E+04  0.10182250067E+04  0.00000000000E+00 0. -1.
         -1   -1    0    0    0  501 -0.00000000000E+00 -0.00000000000E+00 -0.32171140896E+03  0.32171140896E+03  0.00000000000E+00 0.  1.
         23    2    1    2    0    0 -0.14832750648E+03 -0.39634680080E+03  0.79550959895E+03  0.90531929228E+03  0.87610862735E+02 0.  0.
         11    1    3    3    0    0 -0.30090553174E+02 -0.17630465777E+03  0.38982598725E+03  0.42889750999E+03  0.00000000000E+00 0. -1.
        -11    1    3    3    0    0 -0.11823695331E+03 -0.22004214303E+03  0.40568361170E+03  0.47642178229E+03  0.00000000000E+00 0.  1.
         22    1    1    2    0    0  0.14832750648E+03  0.39634680080E+03 -0.98996001205E+02  0.43461712338E+03  0.00000000000E+00 0.  1.
<mgrwt>
<rscale>  0 0.11446827E+04</rscale>
<asrwt>0</asrwt>
<pdfrwt beam="1">  1        1 0.15665000E+00 0.11446827E+04</pdfrwt>
<pdfrwt beam="2">  1       -1 0.49494063E-01 0.11446827E+04</pdfrwt>
<totfact> 0.59519819E+01</totfact>
</mgrwt>
</event>
<event>
 6    1  0.1780144E-005  0.3262744E+04  0.7818608E-02  0.8172440E-01
          1   -1    0    0  501    0  0.00000000000E+00  0.00000000000E+00  0.10676046292E+04  0.10676046292E+04  0.00000000000E+00 0. -1.
         -1   -1    0    0    0  501 -0.00000000000E+00 -0.00000000000E+00 -0.24928471795E+04  0.24928471795E+04  0.00000000000E+00 0.  1.
         23    2    1    2    0    0 -0.69024481404E+03  0.86461412853E+03 -0.20195927065E+04  0.23045666217E+04  0.90978674555E+02 0.  0.
         13    1    3    3    0    0 -0.40744880383E+03  0.51410253582E+03 -0.11035319833E+04  0.12837829970E+04  0.00000000000E+00 0.  1.
        -13    1    3    3    0    0 -0.28279601021E+03  0.35051159271E+03 -0.91606072319E+03  0.10207836248E+04  0.00000000000E+00 0. -1.
         22    1    1    2    0    0  0.69024481404E+03 -0.86461412853E+03  0.59435015621E+03  0.12558851869E+04  0.00000000000E+00 0. -1.
<mgrwt>
<rscale>  0 0.32627444E+04</rscale>
<asrwt>0</asrwt>
<pdfrwt beam="1">  1        1 0.16424687E+00 0.32627444E+04</pdfrwt>
<pdfrwt beam="2">  1       -1 0.38351495E+00 0.32627444E+04</pdfrwt>
<totfact> 0.10334781E-01</totfact>
</mgrwt>
</event>
<event>
 6    1  0.1780144E-005  0.3894374E+04  0.7818608E-02  0.8026200E-01
         -2   -1    0    0    0  501 -0.00000000000E+00  0.00000000000E+00  0.14783498194E+04  0.14783498194E+04  0.00000000000E+00 0. -1.
          2   -1    0    0  501    0  0.00000000000E+00 -0.00000000000E+00 -0.25647090734E+04  0.25647090734E+04  0.00000000000E+00 0.  1.
         23    2    1    2    0    0  0.15780339957E+04  0.75691585827E+03  0.34003918647E+03  0.17852445916E+04  0.91425899519E+02 0.  0.
         11    1    3    3    0    0  0.58425530527E+03  0.23828390044E+03  0.14515908791E+03  0.64746014529E+03  0.00000000000E+00 0.  1.
        -11    1    3    3    0    0  0.99377869048E+03  0.51863195783E+03  0.19488009856E+03  0.11377844463E+04  0.00000000000E+00 0. -1.
         22    1    1    2    0    0 -0.15780339957E+04 -0.75691585827E+03 -0.14263984405E+04  0.22578143013E+04  0.00000000000E+00 0.  1.
<mgrwt>
<rscale>  0 0.38943740E+04</rscale>
<asrwt>0</asrwt>
<pdfrwt beam="1">  1        2 0.39457063E+00 0.38943740E+04</pdfrwt>
<pdfrwt beam="2">  1       -2 0.22743843E+00 0.38943740E+04</pdfrwt>
<totfact> 0.22528629E-01</totfact>
</mgrwt>
</event>
<event>
 6    1  0.1780144E-005  0.2370862E+04  0.7818608E-02  0.8450494E-01
         -1   -1    0    0    0  501 -0.00000000000E+00  0.00000000000E+00  0.14311618811E+04  0.14311618811E+04  0.00000000000E+00 0.  1.
          1   -1    0    0  501    0  0.00000000000E+00 -0.00000000000E+00 -0.98189180328E+03  0.98189180328E+03  0.00000000000E+00 0. -1.
         23    2    1    2    0    0  0.74423196126E+03 -0.23642984529E+03 -0.68053853253E+03  0.10396463231E+04  0.89171178416E+02 0.  0.
         11    1    3    3    0    0  0.28222568919E+03 -0.12518771620E+03 -0.30464332097E+03  0.43374054104E+03  0.00000000000E+00 0. -1.
        -11    1    3    3    0    0  0.46200627206E+03 -0.11124212909E+03 -0.37589521155E+03  0.60590578210E+03  0.00000000000E+00 0.  1.
         22    1    1    2    0    0 -0.74423196126E+03  0.23642984529E+03  0.11298086104E+04  0.13734073613E+04  0.00000000000E+00 0.  1.
<mgrwt>
<rscale>  0 0.23708615E+04</rscale>
<asrwt>0</asrwt>
<pdfrwt beam="1">  1        1 0.15106028E+00 0.23708615E+04</pdfrwt>
<pdfrwt beam="2">  1       -1 0.22017875E+00 0.23708615E+04</pdfrwt>
<totfact> 0.15414560E+00</totfact>
</mgrwt>
</event>
<event>
 6    1  0.1780144E-005  0.1966134E+04  0.7818608E-02  0.8622620E-01
          2   -1    0    0  501    0  0.00000000000E+00  0.00000000000E+00  0.21942891445E+04  0.21942891445E+04  0.00000000000E+00 0. -1.
         -2   -1    0    0    0  501 -0.00000000000E+00 -0.00000000000E+00 -0.44042524264E+03  0.44042524264E+03  0.00000000000E+00 0.  1.
         23    2    1    2    0    0  0.92358439769E+03  0.26786189817E+03  0.61980127024E+03  0.11478195729E+04  0.92617607384E+02 0.  0.
         11    1    3    3    0    0  0.32521661346E+03  0.80246423538E+02  0.26650825001E+03  0.42805604947E+03  0.00000000000E+00 0. -1.
        -11    1    3    3    0    0  0.59836778423E+03  0.18761547464E+03  0.35329302023E+03  0.71976352343E+03  0.00000000000E+00 0.  1.
         22    1    1    2    0    0 -0.92358439769E+03 -0.26786189817E+03  0.11340626316E+04  0.14868948142E+04  0.00000000000E+00 0. -1.
<mgrwt>
<rscale>  0 0.19661336E+04</rscale>
<asrwt>0</asrwt>
<pdfrwt beam="1">  1        2 0.33758294E+00 0.19661336E+04</pdfrwt>
<pdfrwt beam="2">  1       -2 0.67757731E-01 0.19661336E+04</pdfrwt>
<totfact> 0.96718647E+00</totfact>
</mgrwt>
</event>
<event>
 6    1  0.1780144E-005  0.1674025E+04  0.7818608E-02  0.8776319E-01
         -1   -1    0    0    0  501 -0.00000000000E+00  0.00000000000E+00  0.48592038577E+03  0.48592038577E+03  0.00000000000E+00 0.  1.
          1   -1    0    0  501    0  0.00000000000E+00 -0.00000000000E+00 -0.14417787553E+04  0.14417787553E+04  0.00000000000E+00 0. -1.
         23    2    1    2    0    0 -0.32947929035E+03  0.67491889626E+03 -0.89745130611E+03  0.11743841310E+04  0.98423173359E+02 0.  0.
         11    1    3    3    0    0 -0.29314332963E+03  0.62299442094E+03 -0.77617108431E+03  0.10375435472E+04  0.00000000000E+00 0.  1.
        -11    1    3    3    0    0 -0.36335960716E+02  0.51924475319E+02 -0.12128022180E+03  0.13684058381E+03  0.00000000000E+00 0. -1.
         22    1    1    2    0    0  0.32947929035E+03 -0.67491889626E+03 -0.58407063423E+02  0.75331501005E+03  0.00000000000E+00 0.  1.
<mgrwt>
<rscale>  0 0.16740247E+04</rscale>
<asrwt>0</asrwt>
<pdfrwt beam="1">  1        1 0.22181212E+00 0.16740247E+04</pdfrwt>
<pdfrwt beam="2">  1       -1 0.74756983E-01 0.16740247E+04</pdfrwt>
<totfact> 0.12328784E+01</totfact>
</mgrwt>
</event>
<event>
 6    1  0.1780144E-005  0.2711876E+04  0.7818608E-02  0.8331162E-01
          2   -1    0    0  501    0  0.00000000000E+00  0.00000000000E+00  0.21993842679E+04  0.21993842679E+04  0.00000000000E+00 0. -1.
         -2   -1    0    0    0  501 -0.00000000000E+00 -0.00000000000E+00 -0.83594646995E+03  0.83594646995E+03  0.00000000000E+00 0.  1.
         23    2    1    2    0    0  0.52450480588E+03 -0.36132761858E+03  0.20201840547E+04  0.21204654007E+04  0.97810843224E+02 0.  0.
         13    1    3    3    0    0  0.39055144445E+03 -0.29191338092E+03  0.16553445534E+04  0.17256620304E+04  0.00000000000E+00 0. -1.
        -13    1    3    3    0    0  0.13395336143E+03 -0.69414237663E+02  0.36483950135E+03  0.39480337026E+03  0.00000000000E+00 0.  1.
         22    1    1    2    0    0 -0.52450480588E+03  0.36132761858E+03 -0.65674625680E+03  0.91486533717E+03  0.00000000000E+00 0.  1.
<mgrwt>
<rscale>  0 0.27118757E+04</rscale>
<asrwt>0</asrwt>
<pdfrwt beam="1">  1        2 0.33836681E+00 0.27118757E+04</pdfrwt>
<pdfrwt beam="2">  1       -2 0.12860715E+00 0.27118757E+04</pdfrwt>
<totfact> 0.20213689E+00</totfact>
</mgrwt>
</event>
<event>
 6    1  0.1780144E-005  0.4148507E+04  0.7818608E-02  0.7975240E-01
          2   -1    0    0  501    0  0.00000000000E+00  0.00000000000E+00  0.34546325783E+04  0.34546325783E+04  0.00000000000E+00 0. -1.
         -2   -1    0    0    0  501 -0.00000000000E+00 -0.00000000000E+00 -0.12454371920E+04  0.12454371920E+04  0.00000000000E+00 0.  1.
         23    2    1    2    0    0 -0.39547524835E+03 -0.14011192410E+04 -0.56723564368E+03  0.15650888989E+04  0.90615597070E+02 0.  0.
         13    1    3    3    0    0 -0.11931650749E+03 -0.40191636715E+03 -0.12017572477E+03  0.43613690507E+03  0.00000000000E+00 0. -1.
        -13    1    3    3    0    0 -0.27615874086E+03 -0.99920287386E+03 -0.44705991891E+03  0.11289519938E+04  0.00000000000E+00 0.  1.
         22    1    1    2    0    0  0.39547524835E+03  0.14011192410E+04  0.27764310300E+04  0.31349808714E+04  0.00000000000E+00 0. -1.
<mgrwt>
<rscale>  0 0.41485072E+04</rscale>
<asrwt>0</asrwt>
<pdfrwt beam="1">  1        2 0.53148193E+00 0.41485072E+04</pdfrwt>
<pdfrwt beam="2">  1       -2 0.19160572E+00 0.41485072E+04</pdfrwt>
<totfact> 0.10288019E-01</totfact>
</mgrwt>
</event>
<event>
 6    1  0.1780144E-005  0.1859775E+04  0.7818608E-02  0.8675142E-01
         -2   -1    0    0    0  501 -0.00000000000E+00  0.00000000000E+00  0.50899545635E+03  0.50899545635E+03  0.00000000000E+00 0.  1.
          2   -1    0    0  501    0  0.00000000000E+00 -0.00000000000E+00 -0.16988183856E+04  0.16988183856E+04  0.00000000000E+00 0. -1.
         23    2    1    2    0    0  0.33342424612E+03 -0.34881820833E+03 -0.15368774212E+04  0.16134295464E+04  0.91196616146E+02 0.  0.
         13    1    3    3    0    0  0.28923863201E+03 -0.33190798513E+03 -0.14367304052E+04  0.15026696756E+04  0.00000000000E+00 0.  1.
        -13    1    3    3    0    0  0.44185614108E+02 -0.16910223199E+02 -0.10014701608E+03  0.11075987076E+03  0.00000000000E+00 0. -1.
         22    1    1    2    0    0 -0.33342424612E+03  0.34881820833E+03  0.34705449203E+03  0.59438429555E+03  0.00000000000E+00 0.  1.
<mgrwt>
<rscale>  0 0.18597751E+04</rscale>
<asrwt>0</asrwt>
<pdfrwt beam="1">  1        2 0.26135667E+00 0.18597751E+04</pdfrwt>
<pdfrwt beam="2">  1       -2 0.78306994E-01 0.18597751E+04</pdfrwt>
<totfact> 0.13382969E+01</totfact>
</mgrwt>
</event>
<event>
 6    1  0.1780144E-005  0.1353000E+04  0.7818608E-02  0.8988561E-01
          2   -1    0    0  501    0  0.00000000000E+00  0.00000000000E+00  0.31746730763E+03  0.31746730763E+03  0.00000000000E+00 0. -1.
         -2   -1    0    0    0  501 -0.00000000000E+00 -0.00000000000E+00 -0.14415720385E+04  0.14415720385E+04  0.00000000000E+00 0.  1.
         23    2    1    2    0    0 -0.11312517409E+03 -0.63899135336E+03 -0.79858937149E+03  0.10330451975E+04  0.91269606313E+02 0.  0.
         11    1    3    3    0    0 -0.62437269603E+02 -0.24485633347E+03 -0.24824502159E+03  0.35422962527E+03  0.00000000000E+00 0. -1.
        -11    1    3    3    0    0 -0.50687904492E+02 -0.39413501989E+03 -0.55034434991E+03  0.67881557219E+03  0.00000000000E+00 0.  1.
         22    1    1    2    0    0  0.11312517409E+03  0.63899135336E+03 -0.32551535934E+03  0.72599414863E+03  0.00000000000E+00 0. -1.
<mgrwt>
<rscale>  0 0.13529996E+04</rscale>
<asrwt>0</asrwt>
<pdfrwt beam="1">  1        2 0.48841123E-01 0.13529996E+04</pdfrwt>
<pdfrwt beam="2">  1       -2 0.22178032E+00 0.13529996E+04</pdfrwt>
<totfact> 0.96914587E+00</totfact>
</mgrwt>
</event>
<event>
 6    1  0.1780144E-005  0.2102818E+04  0.7818608E-02  0.8560003E-01
          1   -1    0    0  501    0  0.00000000000E+00  0.00000000000E+00  0.21078279770E+04  0.21078279770E+04  0.00000000000E+00 0. -1.
         -1   -1    0    0    0  501 -0.00000000000E+00 -0.00000000000E+00 -0.52445480179E+03  0.52445480179E+03  0.00000000000E+00 0.  1.
         23    2    1    2    0    0  0.81366551703E+02 -0.89364639249E+03  0.11198547033E+03  0.90885417028E+03  0.90833731197E+02 0.  0.
         13    1    3    3    0    0 -0.12846051684E+02 -0.30211244380E+03  0.52624949509E+02  0.30693050525E+03  0.00000000000E+00 0. -1.
        -13    1    3    3    0    0  0.94212603387E+02 -0.59153394869E+03  0.59360520825E+02  0.60192366503E+03  0.00000000000E+00 0.  1.
         22    1    1    2    0    0 -0.81366551703E+02  0.89364639249E+03  0.14713877049E+04  0.17234286085E+04  0.00000000000E+00 0. -1.
<mgrwt>
<rscale>  0 0.21028176E+04</rscale>
<asrwt>0</asrwt>
<pdfrwt beam="1">  1        1 0.32428122E+00 0.21028176E+04</pdfrwt>
<pdfrwt beam="2">  1       -1 0.80685355E-01 0.21028176E+04</pdfrwt>
<totfact> 0.35450537E+00</totfact>
</mgrwt>
</event>
<event>
 6    1  0.1780144E-005  0.3013598E+04  0.7818608E-02  0.8239859E-01
          1   -1    0    0  501    0  0.00000000000E+00  0.00000000000E+00  0.11328400213E+04  0.11328400213E+04  0.00000000000E+00 0. -1.
         -1   -1    0    0    0  501 -0.00000000000E+00 -0.00000000000E+00 -0.20042046840E+04  0.20042046840E+04  0.00000000000E+00 0.  1.
         23    2    1    2    0    0  0.13453177181E+04  0.50145871016E+03  0.34988434433E+02  0.14391588030E+04  0.92807700359E+02 0.  0.
         11    1    3    3    0    0  0.12084425601E+04  0.44666138676E+03  0.32840409435E+01  0.12883518931E+04  0.00000000000E+00 0. -1.
        -11    1    3    3    0    0  0.13687515793E+03  0.54797323396E+02  0.31704393490E+02  0.15080690991E+03  0.00000000000E+00 0.  1.
         22    1    1    2    0    0 -0.13453177181E+04 -0.50145871016E+03 -0.90635309707E+03  0.16978859023E+04  0.00000000000E+00 0.  1.
<mgrwt>
<rscale>  0 0.30135980E+04</rscale>
<asrwt>0</asrwt>
<pdfrwt beam="1">  1        1 0.17428308E+00 0.30135980E+04</pdfrwt>
<pdfrwt beam="2">  1       -1 0.30833918E+00 0.30135980E+04</pdfrwt>
<totfact> 0.29683441E-01</totfact>
</mgrwt>
</event>
<event>
 6    1  0.1780144E-005  0.7980759E+03  0.7818608E-02  0.9562806E-01
         -2   -1    0    0    0  501 -0.00000000000E+00  0.00000000000E+00  0.25401945045E+03  0.25401945045E+03  0.00000000000E+00 0.  1.
          2   -1    0    0  501    0  0.00000000000E+00 -0.00000000000E+00 -0.62684688573E+03  0.62684688573E+03  0.00000000000E+00 0. -1.
         23    2    1    2    0    0 -0.19584839924E+03 -0.33835745737E+03 -0.24056837325E+03  0.46814993969E+03  0.91917677226E+02 0.  0.
         13    1    3    3    0    0 -0.16021827571E+03 -0.22053204438E+03 -0.20158673761E+03  0.33903022173E+03  0.00000000000E+00 0.  1.
        -13    1    3    3    0    0 -0.35630123529E+02 -0.11782541299E+03 -0.38981635639E+02  0.12911971796E+03  0.00000000000E+00 0. -1.
         22    1    1    2    0    0  0.19584839924E+03  0.33835745737E+03 -0.13225906204E+03  0.41271639649E+03  0.00000000000E+00 0. -1.
<mgrwt>
<rscale>  0 0.79807594E+03</rscale>
<asrwt>0</asrwt>
<pdfrwt beam="1">  1        2 0.96437981E-01 0.79807594E+03</pdfrwt>
<pdfrwt beam="2">  1       -2 0.39079916E-01 0.79807594E+03</pdfrwt>
<totfact> 0.29273487E+02</totfact>
</mgrwt>
</event>
<event>
 6    1  0.1780144E-005  0.2099226E+04  0.7818608E-02  0.8561584E-01
         -1   -1    0    0    0  501 -0.00000000000E+00  0.00000000000E+00  0.46136807816E+03  0.46136807816E+03  0.00000000000E+00 0.  1.
          1   -1    0    0  501    0  0.00000000000E+00 -0.00000000000E+00 -0.23878706236E+04  0.23878706236E+04  0.00000000000E+00 0. -1.
         23    2    1    2    0    0 -0.47855556949E+03  0.86026958367E+03 -0.14520419740E+04  0.17564477686E+04  0.87199082165E+02 0.  0.
         11    1    3    3    0    0 -0.32820159797E+03  0.63601886555E+03 -0.99605373660E+03  0.12265232702E+04  0.00000000000E+00 0. -1.
        -11    1    3    3    0    0 -0.15035397153E+03  0.22425071813E+03 -0.45598823740E+03  0.52992449838E+03  0.00000000000E+00 0.  1.
         22    1    1    2    0    0  0.47855556949E+03 -0.86026958367E+03 -0.47446057142E+03  0.10927909331E+04  0.00000000000E+00 0.  1.
<mgrwt>
<rscale>  0 0.20992258E+04</rscale>
<asrwt>0</asrwt>
<pdfrwt beam="1">  1        1 0.36736470E+00 0.20992258E+04</pdfrwt>
<pdfrwt beam="2">  1       -1 0.70979706E-01 0.20992258E+04</pdfrwt>
<totfact> 0.29868808E+00</totfact>
</mgrwt>
</event>
<event>
 6    1  0.1780144E-005  0.1835609E+04  0.7818608E-02  0.8687589E-01
         -2   -1    0    0    0  501 -0.00000000000E+00  0.00000000000E+00  0.74513591806E+03  0.74513591806E+03  0.00000000000E+00 0.  1.
          2   -1    0    0  501    0  0.00000000000E+00 -0.00000000000E+00 -0.11304849566E+04  0.11304849566E+04  0.00000000000E+00 0. -1.
         23    2    1    2    0    0  0.65320157224E+03 -0.59896509570E+03  0.41383411285E+02  0.89198879732E+03  0.92195162345E+02 0.  0.
         11    1    3    3    0    0  0.55098090208E+03 -0.54364859217E+03  0.23508743348E+02  0.77439421953E+03  0.00000000000E+00 0.  1.
        -11    1    3    3    0    0  0.10222067016E+03 -0.55316503533E+02  0.17874667937E+02  0.11759457779E+03  0.00000000000E+00 0. -1.
         22    1    1    2    0    0 -0.65320157224E+03  0.59896509570E+03 -0.42673244983E+03  0.98363207735E+03  0.00000000000E+00 0. -1.
<mgrwt>
<rscale>  0 0.18356088E+04</rscale>
<asrwt>0</asrwt>
<pdfrwt beam="1">  1        2 0.17392076E+00 0.18356088E+04</pdfrwt>
<pdfrwt beam="2">  1       -2 0.11463630E+00 0.18356088E+04</pdfrwt>
<totfact> 0.11674308E+01</totfact>
</mgrwt>
</event>
<event>
 6    1  0.1780144E-005  0.1580636E+04  0.7818608E-02  0.8832533E-01
          3   -1    0    0  501    0  0.00000000000E+00  0.00000000000E+00  0.96109253903E+03  0.96109253903E+03  0.00000000000E+00 0. -1.
         -3   -1    0    0    0  501 -0.00000000000E+00 -0.00000000000E+00 -0.64988765301E+03  0.64988765301E+03  0.00000000000E+00 0.  1.
         23    2    1    2    0    0  0.66641430751E+03  0.30314603972E+03 -0.13989333456E+03  0.75104115044E+03  0.92125533627E+02 0.  0.
         13    1    3    3    0    0  0.55933780741E+03  0.23428217802E+03 -0.84797491636E+02  0.61232143220E+03  0.00000000000E+00 0.  1.
        -13    1    3    3    0    0  0.10707650010E+03  0.68863861703E+02 -0.55095842929E+02  0.13871971824E+03  0.00000000000E+00 0. -1.
         22    1    1    2    0    0 -0.66641430751E+03 -0.30314603972E+03  0.45109822059E+03  0.85993904160E+03  0.00000000000E+00 0. -1.
<mgrwt>
<rscale>  0 0.15806355E+04</rscale>
<asrwt>0</asrwt>
<pdfrwt beam="1">  1        3 0.14786039E+00 0.15806355E+04</pdfrwt>
<pdfrwt beam="2">  1       -3 0.99982716E-01 0.15806355E+04</pdfrwt>
<totfact> 0.73817956E-01</totfact>
</mgrwt>
</event>
<event>
 6    1  0.1780144E-005  0.2308760E+04  0.7818608E-02  0.8474475E-01
         -1   -1    0    0    0  501 -0.00000000000E+00  0.00000000000E+00  0.14687315738E+04  0.14687315738E+04  0.00000000000E+00 0.  1.
          1   -1    0    0  501    0  0.00000000000E+00 -0.00000000000E+00 -0.90730866819E+03  0.90730866819E+03  0.00000000000E+00 0. -1.
         23    2    1    2    0    0 -0.64330432787E+03 -0.11346342061E+03 -0.69559694245E+03  0.95941986078E+03  0.99583918618E+02 0.  0.
         11    1    3    3    0    0 -0.42529269901E+03 -0.30406768910E+02 -0.47578365727E+03  0.63888069305E+03  0.00000000000E+00 0. -1.
        -11    1    3    3    0    0 -0.21801162886E+03 -0.83056651701E+02 -0.21981328518E+03  0.32053916773E+03  0.00000000000E+00 0.  1.
         22    1    1    2    0    0  0.64330432787E+03  0.11346342061E+03  0.12570198481E+04  0.14166203812E+04  0.00000000000E+00 0.  1.
<mgrwt>
<rscale>  0 0.23087597E+04</rscale>
<asrwt>0</asrwt>
<pdfrwt beam="1">  1        1 0.13958595E+00 0.23087597E+04</pdfrwt>
<pdfrwt beam="2">  1       -1 0.22595870E+00 0.23087597E+04</pdfrwt>
<totfact> 0.16275858E+00</totfact>
</mgrwt>
</event>
<event>
 6    1  0.1780144E-005  0.2076014E+04  0.7818608E-02  0.8571884E-01
          1   -1    0    0  501    0  0.00000000000E+00  0.00000000000E+00  0.23561784960E+04  0.23561784960E+04  0.00000000000E+00 0. -1.
         -1   -1    0    0    0  501 -0.00000000000E+00 -0.00000000000E+00 -0.45729069123E+03  0.45729069123E+03  0.00000000000E+00 0.  1.
         23    2    1    2    0    0  0.57962586439E+03 -0.84605943566E+03  0.11498910368E+04  0.15435168772E+04  0.91718277329E+02 0.  0.
         13    1    3    3    0    0  0.23822732529E+03 -0.27919039585E+03  0.44157340109E+03  0.57418342383E+03  0.00000000000E+00 0. -1.
        -13    1    3    3    0    0  0.34139853910E+03 -0.56686903981E+03  0.70831763568E+03  0.96933345336E+03  0.00000000000E+00 0.  1.
         22    1    1    2    0    0 -0.57962586439E+03  0.84605943566E+03  0.74899676803E+03  0.12699523101E+04  0.00000000000E+00 0.  1.
<mgrwt>
<rscale>  0 0.20760140E+04</rscale>
<asrwt>0</asrwt>
<pdfrwt beam="1">  1        1 0.36248899E+00 0.20760140E+04</pdfrwt>
<pdfrwt beam="2">  1       -1 0.70352415E-01 0.20760140E+04</pdfrwt>
<totfact> 0.32052164E+00</totfact>
</mgrwt>
</event>
<event>
 6    1  0.1780144E-005  0.4975846E+03  0.7818608E-02  0.1014411E+00
          2   -1    0    0  501    0  0.00000000000E+00  0.00000000000E+00  0.55913066001E+03  0.55913066001E+03  0.00000000000E+00 0. -1.
         -2   -1    0    0    0  501 -0.00000000000E+00 -0.00000000000E+00 -0.11070330150E+03  0.11070330150E+03  0.00000000000E+00 0.  1.
         23    2    1    2    0    0 -0.16820677952E+03 -0.15122064089E+03  0.12259590835E+03  0.27318885966E+03  0.91875967416E+02 0.  0.
         11    1    3    3    0    0 -0.39295455070E+02 -0.18571176879E+02 -0.11221809966E+02  0.44888199103E+02  0.00000000000E+00 0.  1.
        -11    1    3    3    0    0 -0.12891132446E+03 -0.13264946401E+03  0.13381771832E+03  0.22830066056E+03  0.00000000000E+00 0. -1.
         22    1    1    2    0    0  0.16820677952E+03  0.15122064089E+03  0.32583145016E+03  0.39664510185E+03  0.00000000000E+00 0.  1.
<mgrwt>
<rscale>  0 0.49758461E+03</rscale>
<asrwt>0</asrwt>
<pdfrwt beam="1">  1        2 0.86020100E-01 0.49758461E+03</pdfrwt>
<pdfrwt beam="2">  1       -2 0.17031277E-01 0.49758461E+03</pdfrwt>
<totfact> 0.15219593E+03</totfact>
</mgrwt>
</event>
<event>
 6    1  0.1780144E-005  0.2066771E+04  0.7818608E-02  0.8576024E-01
         -2   -1    0    0    0  501 -0.00000000000E+00  0.00000000000E+00  0.55619126063E+03  0.55619126063E+03  0.00000000000E+00 0.  1.
          2   -1    0    0  501    0  0.00000000000E+00 -0.00000000000E+00 -0.19199977545E+04  0.19199977545E+04  0.00000000000E+00 0. -1.
         23    2    1    2    0    0  0.79141129204E+03 -0.45108279906E+03 -0.12627314038E+04  0.15596609476E+04  0.90797292535E+02 0.  0.
         13    1    3    3    0    0  0.60132193521E+03 -0.33457935255E+03 -0.10161720515E+04  0.12272477546E+04  0.00000000000E+00 0.  1.
        -13    1    3    3    0    0  0.19008935683E+03 -0.11650344651E+03 -0.24655935231E+03  0.33241319294E+03  0.00000000000E+00 0. -1.
         22    1    1    2    0    0 -0.79141129204E+03  0.45108279906E+03 -0.10107509002E+03  0.91652806755E+03  0.00000000000E+00 0.  1.
<mgrwt>
<rscale>  0 0.20667714E+04</rscale>
<asrwt>0</asrwt>
<pdfrwt beam="1">  1        2 0.29538427E+00 0.20667714E+04</pdfrwt>
<pdfrwt beam="2">  1       -2 0.85567885E-01 0.20667714E+04</pdfrwt>
<totfact> 0.81161629E+00</totfact>
</mgrwt>
</event>
<event>
 6    1  0.1780144E-005  0.3182210E+04  0.7818608E-02  0.8193531E-01
          2   -1    0    0  501    0  0.00000000000E+00  0.00000000000E+00  0.10858558974E+04  0.10858558974E+04  0.00000000000E+00 0.  1.
         -2   -1    0    0    0  501 -0.00000000000E+00 -0.00000000000E+00 -0.23314472423E+04  0.23314472423E+04  0.00000000000E+00 0. -1.
         23    2    1    2    0    0  0.11691444548E+04 -0.76190076503E+03 -0.14411622475E+04  0.20081759240E+04  0.91817135171E+02 0.  0.
         13    1    3    3    0    0  0.35861691935E+03 -0.27940005320E+03 -0.44078916567E+03  0.63321842451E+03  0.00000000000E+00 0.  1.
        -13    1    3    3    0    0  0.81052753543E+03 -0.48250071184E+03 -0.10003730818E+04  0.13749574995E+04  0.00000000000E+00 0. -1.
         22    1    1    2    0    0 -0.11691444548E+04  0.76190076503E+03  0.19557090268E+03  0.14091272157E+04  0.00000000000E+00 0.  1.
<mgrwt>
<rscale>  0 0.31822104E+04</rscale>
<asrwt>0</asrwt>
<pdfrwt beam="1">  1        2 0.16705475E+00 0.31822104E+04</pdfrwt>
<pdfrwt beam="2">  1       -2 0.35868419E+00 0.31822104E+04</pdfrwt>
<totfact> 0.25687905E-01</totfact>
</mgrwt>
</event>
<event>
 6    1  0.1780144E-005  0.1808298E+04  0.7818608E-02  0.8701899E-01
          2   -1    0    0  501    0  0.00000000000E+00  0.00000000000E+00  0.19043025451E+04  0.19043025451E+04  0.00000000000E+00 0. -1.
         -2   -1    0    0    0  501 -0.00000000000E+00 -0.00000000000E+00 -0.42928357666E+03  0.42928357666E+03  0.00000000000E+00 0.  1.
         23    2    1    2    0    0  0.59334046364E+03  0.57532137685E+03  0.27324132297E+03  0.87505360528E+03  0.89500832888E+02 0.  0.
         11    1    3    3    0    0  0.66241913191E+02  0.96304408826E+02  0.61076291517E+02  0.13188193056E+03  0.00000000000E+00 0. -1.
        -11    1    3    3    0    0  0.52709855045E+03  0.47901696803E+03  0.21216503145E+03  0.74317167473E+03  0.00000000000E+00 0.  1.
         22    1    1    2    0    0 -0.59334046364E+03 -0.57532137685E+03  0.12017776455E+04  0.14585325165E+04  0.00000000000E+00 0. -1.
<mgrwt>
<rscale>  0 0.18082984E+04</rscale>
<asrwt>0</asrwt>
<pdfrwt beam="1">  1        2 0.29296962E+00 0.18082984E+04</pdfrwt>
<pdfrwt beam="2">  1       -2 0.66043628E-01 0.18082984E+04</pdfrwt>
<totfact> 0.15027992E+01</totfact>
</mgrwt>
</event>
<event>
 6    1  0.1780144E-005  0.7294931E+04  0.7818608E-02  0.7547761E-01
         -1   -1    0    0    0  501 -0.00000000000E+00  0.00000000000E+00  0.31216117094E+04  0.31216117094E+04  0.00000000000E+00 0.  1.
          1   -1    0    0  501    0  0.00000000000E+00 -0.00000000000E+00 -0.42619022663E+04  0.42619022663E+04  0.00000000000E+00 0. -1.
         23    2    1    2    0    0 -0.80379932600E+03 -0.28330317566E+04  0.16070807923E+04  0.33560815900E+04  0.91720638599E+02 0.  0.
         11    1    3    3    0    0 -0.53081472773E+03 -0.17103484927E+04  0.96632242722E+03  0.20349042422E+04  0.00000000000E+00 0.  1.
        -11    1    3    3    0    0 -0.27298459827E+03 -0.11226832639E+04  0.64075836510E+03  0.13211773478E+04  0.00000000000E+00 0. -1.
         22    1    1    2    0    0  0.80379932600E+03  0.28330317566E+04 -0.27473713493E+04  0.40274323857E+04  0.00000000000E+00 0. -1.
<mgrwt>
<rscale>  0 0.72949308E+04</rscale>
<asrwt>0</asrwt>
<pdfrwt beam="1">  1        1 0.65567727E+00 0.72949308E+04</pdfrwt>
<pdfrwt beam="2">  1       -1 0.48024795E+00 0.72949308E+04</pdfrwt>
<totfact> 0.67759976E-05</totfact>
</mgrwt>
</event>
<event>
 6    1  0.1780144E-005  0.1212562E+04  0.7818608E-02  0.9101931E-01
          1   -1    0    0  501    0  0.00000000000E+00  0.00000000000E+00  0.46456541972E+03  0.46456541972E+03  0.00000000000E+00 0. -1.
         -1   -1    0    0    0  501 -0.00000000000E+00 -0.00000000000E+00 -0.79122745088E+03  0.79122745088E+03  0.00000000000E+00 0.  1.
         23    2    1    2    0    0 -0.57944592284E+03  0.11672364609E+03 -0.41609928884E+02  0.59956372764E+03  0.91451026571E+02 0.  0.
         11    1    3    3    0    0 -0.18185834755E+03  0.80491827069E+02 -0.15273079793E+02  0.19946092290E+03  0.00000000000E+00 0. -1.
        -11    1    3    3    0    0 -0.39758757529E+03  0.36231819018E+02 -0.26336849091E+02  0.40010280474E+03  0.00000000000E+00 0.  1.
         22    1    1    2    0    0  0.57944592284E+03 -0.11672364609E+03 -0.28505210228E+03  0.65622914296E+03  0.00000000000E+00 0.  1.
<mgrwt>
<rscale>  0 0.12125624E+04</rscale>
<asrwt>0</asrwt>
<pdfrwt beam="1">  1        1 0.71471603E-01 0.12125624E+04</pdfrwt>
<pdfrwt beam="2">  1       -1 0.12172730E+00 0.12125624E+04</pdfrwt>
<totfact> 0.28989355E+01</totfact>
</mgrwt>
</event>
<event>
 6    1  0.1780144E-005  0.1406154E+04  0.7818608E-02  0.8949376E-01
         -2   -1    0    0    0  501 -0.00000000000E+00  0.00000000000E+00  0.23963660405E+03  0.23963660405E+03  0.00000000000E+00 0.  1.
          2   -1    0    0  501    0  0.00000000000E+00 -0.00000000000E+00 -0.20627775413E+04  0.20627775413E+04  0.00000000000E+00 0. -1.
         23    2    1    2    0    0  0.36215388589E+03  0.50462266674E+03 -0.38644433139E+03  0.73719958813E+03  0.91238909557E+02 0.  0.
         11    1    3    3    0    0  0.14897798522E+03  0.14479791697E+03 -0.15497270115E+03  0.25918606240E+03  0.00000000000E+00 0.  1.
        -11    1    3    3    0    0  0.21317590067E+03  0.35982474977E+03 -0.23147163023E+03  0.47801352572E+03  0.00000000000E+00 0. -1.
         22    1    1    2    0    0 -0.36215388589E+03 -0.50462266674E+03 -0.14366966059E+04  0.15652145572E+04  0.00000000000E+00 0. -1.
<mgrwt>
<rscale>  0 0.14061536E+04</rscale>
<asrwt>0</asrwt>
<pdfrwt beam="1">  1        2 0.31735040E+00 0.14061536E+04</pdfrwt>
<pdfrwt beam="2">  1       -2 0.36867169E-01 0.14061536E+04</pdfrwt>
<totfact> 0.41603893E+01</totfact>
</mgrwt>
</event>
<event>
 6    1  0.1780144E-005  0.3877789E+04  0.7818608E-02  0.8029665E-01
         -2   -1    0    0    0  501 -0.00000000000E+00  0.00000000000E+00  0.11181487949E+04  0.11181487949E+04  0.00000000000E+00 0.  1.
          2   -1    0    0  501    0  0.00000000000E+00 -0.00000000000E+00 -0.33620854777E+04  0.33620854777E+04  0.00000000000E+00 0. -1.
         23    2    1    2    0    0  0.46880008726E+03  0.12978834699E+04 -0.26943602116E+04  0.30286295128E+04  0.93513383185E+02 0.  0.
         13    1    3    3    0    0  0.33282956339E+03  0.82028723620E+03 -0.17885510549E+04  0.19956356241E+04  0.00000000000E+00 0. -1.
        -13    1    3    3    0    0  0.13597052387E+03  0.47759623367E+03 -0.90580915667E+03  0.10329938887E+04  0.00000000000E+00 0.  1.
         22    1    1    2    0    0 -0.46880008726E+03 -0.12978834699E+04  0.45042352885E+03  0.14516047597E+04  0.00000000000E+00 0.  1.
<mgrwt>
<rscale>  0 0.38777890E+04</rscale>
<asrwt>0</asrwt>
<pdfrwt beam="1">  1        2 0.51724392E+00 0.38777890E+04</pdfrwt>
<pdfrwt beam="2">  1       -2 0.17202289E+00 0.38777890E+04</pdfrwt>
<totfact> 0.16598224E-01</totfact>
</mgrwt>
</event>
<event>
 6    1  0.1780144E-005  0.2054542E+04  0.7818608E-02  0.8581537E-01
         -1   -1    0    0    0  501 -0.00000000000E+00  0.00000000000E+00  0.48910843645E+03  0.48910843645E+03  0.00000000000E+00 0.  1.
          1   -1    0    0  501    0  0.00000000000E+00 -0.00000000000E+00 -0.21575692660E+04  0.21575692660E+04  0.00000000000E+00 0. -1.
         23    2    1    2    0    0 -0.76434379309E+03  0.53561314633E+03 -0.28931353408E+03  0.98139990606E+03  0.91326765304E+02 0.  0.
         13    1    3    3    0    0 -0.48343115816E+03  0.29268259895E+03 -0.19951681948E+03  0.59931273111E+03  0.00000000000E+00 0. -1.
        -13    1    3    3    0    0 -0.28091263492E+03  0.24293054738E+03 -0.89796714595E+02  0.38208717495E+03  0.00000000000E+00 0.  1.
         22    1    1    2    0    0  0.76434379309E+03 -0.53561314633E+03 -0.13791472955E+04  0.16652777964E+04  0.00000000000E+00 0.  1.
<mgrwt>
<rscale>  0 0.20545416E+04</rscale>
<asrwt>0</asrwt>
<pdfrwt beam="1">  1        1 0.33193373E+00 0.20545416E+04</pdfrwt>
<pdfrwt beam="2">  1       -1 0.75247452E-01 0.20545416E+04</pdfrwt>
<totfact> 0.38174038E+00</totfact>
</mgrwt>
</event>
<event>
 6    1  0.1780144E-005  0.3653809E+04  0.7818608E-02  0.8078276E-01
          2   -1    0    0  501    0  0.00000000000E+00  0.00000000000E+00  0.47032648095E+04  0.47032648095E+04  0.00000000000E+00 0.  1.
         -2   -1    0    0    0  501 -0.00000000000E+00 -0.00000000000E+00 -0.70963040374E+03  0.70963040374E+03  0.00000000000E+00 0. -1.
         23    2    1    2    0    0 -0.15357165429E+04 -0.49759658588E+03  0.73460151328E+03  0.17759565202E+04  0.91403041876E+02 0.  0.
         13    1    3    3    0    0 -0.79562227477E+03 -0.21784343896E+03  0.40281146041E+03  0.91800198292E+03  0.00000000000E+00 0.  1.
        -13    1    3    3    0    0 -0.74009426814E+03 -0.27975314691E+03  0.33179005288E+03  0.85795453733E+03  0.00000000000E+00 0. -1.
         22    1    1    2    0    0  0.15357165429E+04  0.49759658588E+03  0.32590328925E+04  0.36369386930E+04  0.00000000000E+00 0.  1.
<mgrwt>
<rscale>  0 0.36538088E+04</rscale>
<asrwt>0</asrwt>
<pdfrwt beam="1">  1        2 0.72357918E+00 0.36538088E+04</pdfrwt>
<pdfrwt beam="2">  1       -2 0.10917391E+00 0.36538088E+04</pdfrwt>
<totfact> 0.41046571E-02</totfact>
</mgrwt>
</event>
<event>
 6    1  0.1780144E-005  0.1014058E+04  0.7818608E-02  0.9293259E-01
         -2   -1    0    0    0  501 -0.00000000000E+00  0.00000000000E+00  0.86939838614E+03  0.86939838614E+03  0.00000000000E+00 0.  1.
          2   -1    0    0  501    0  0.00000000000E+00 -0.00000000000E+00 -0.29569696821E+03  0.29569696821E+03  0.00000000000E+00 0. -1.
         23    2    1    2    0    0  0.15835920497E+03  0.35249732874E+03  0.65921582807E+03  0.76931167744E+03  0.89123198464E+02 0.  0.
         11    1    3    3    0    0  0.67338623929E+02  0.20084629727E+03  0.43407105431E+03  0.48300249026E+03  0.00000000000E+00 0. -1.
        -11    1    3    3    0    0  0.91020581036E+02  0.15165103147E+03  0.22514477376E+03  0.28630918719E+03  0.00000000000E+00 0.  1.
         22    1    1    2    0    0 -0.15835920497E+03 -0.35249732874E+03 -0.85514410136E+02  0.39578367691E+03  0.00000000000E+00 0. -1.
<mgrwt>
<rscale>  0 0.10140581E+04</rscale>
<asrwt>0</asrwt>
<pdfrwt beam="1">  1        2 0.45491842E-01 0.10140581E+04</pdfrwt>
<pdfrwt beam="2">  1       -2 0.13375360E+00 0.10140581E+04</pdfrwt>
<totfact> 0.44933070E+01</totfact>
</mgrwt>
</event>
<event>
 6    1  0.1780144E-005  0.2508257E+04  0.7818608E-02  0.8400050E-01
         -2   -1    0    0    0  501 -0.00000000000E+00  0.00000000000E+00  0.18054735179E+04  0.18054735179E+04  0.00000000000E+00 0.  1.
          2   -1    0    0  501    0  0.00000000000E+00 -0.00000000000E+00 -0.87114984570E+03  0.87114984570E+03  0.00000000000E+00 0. -1.
         23    2    1    2    0    0 -0.25272794351E+03 -0.97338541479E+03  0.12647682032E+04  0.16180657755E+04  0.84543874695E+02 0.  0.
         11    1    3    3    0    0 -0.13044093053E+03 -0.55474887263E+03  0.65214762630E+03  0.86605870155E+03  0.00000000000E+00 0. -1.
        -11    1    3    3    0    0 -0.12228701298E+03 -0.41863654216E+03  0.61262057692E+03  0.75200707393E+03  0.00000000000E+00 0.  1.
         22    1    1    2    0    0  0.25272794351E+03  0.97338541479E+03 -0.33044453108E+03  0.10585575881E+04  0.00000000000E+00 0. -1.
<mgrwt>
<rscale>  0 0.25082567E+04</rscale>
<asrwt>0</asrwt>
<pdfrwt beam="1">  1        2 0.13402305E+00 0.25082567E+04</pdfrwt>
<pdfrwt beam="2">  1       -2 0.27776516E+00 0.25082567E+04</pdfrwt>
<totfact> 0.11884116E+00</totfact>
</mgrwt>
</event>
<event>
 6    1  0.1780144E-005  0.2728617E+04  0.7818608E-02  0.8325779E-01
          2   -1    0    0  501    0  0.00000000000E+00  0.00000000000E+00  0.14295309496E+04  0.14295309496E+04  0.00000000000E+00 0. -1.
         -2   -1    0    0    0  501 -0.00000000000E+00 -0.00000000000E+00 -0.13020622313E+04  0.13020622313E+04  0.00000000000E+00 0.  1.
         23    2    1    2    0    0  0.10065288240E+04 -0.68605835658E+03  0.67555176571E+03  0.13958644026E+04  0.91054379369E+02 0.  0.
         13    1    3    3    0    0  0.38793556875E+03 -0.22085246433E+03  0.21865221568E+03  0.49707002316E+03  0.00000000000E+00 0.  1.
        -13    1    3    3    0    0  0.61859325527E+03 -0.46520589225E+03  0.45689955002E+03  0.89879437941E+03  0.00000000000E+00 0. -1.
         22    1    1    2    0    0 -0.10065288240E+04  0.68605835658E+03 -0.54808304746E+03  0.13357287783E+04  0.00000000000E+00 0.  1.
<mgrwt>
<rscale>  0 0.27286174E+04</rscale>
<asrwt>0</asrwt>
<pdfrwt beam="1">  1        2 0.21992784E+00 0.27286174E+04</pdfrwt>
<pdfrwt beam="2">  1       -2 0.20031727E+00 0.27286174E+04</pdfrwt>
<totfact> 0.16126548E+00</totfact>
</mgrwt>
</event>
<event>
 6    1  0.1780144E-005  0.4682611E+04  0.7818608E-02  0.7879424E-01
         -2   -1    0    0    0  501 -0.00000000000E+00  0.00000000000E+00  0.18205908801E+04  0.18205908801E+04  0.00000000000E+00 0.  1.
          2   -1    0    0  501    0  0.00000000000E+00 -0.00000000000E+00 -0.30109521971E+04  0.30109521971E+04  0.00000000000E+00 0. -1.
         23    2    1    2    0    0  0.10183603522E+04  0.16363232456E+04  0.77457546721E+03  0.20791644447E+04  0.91356788322E+02 0.  0.
         11    1    3    3    0    0  0.22938053290E+03  0.42108748127E+03  0.16254920213E+03  0.50631249132E+03  0.00000000000E+00 0.  1.
        -11    1    3    3    0    0  0.78897981927E+03  0.12152357643E+04  0.61202626508E+03  0.15728519534E+04  0.00000000000E+00 0. -1.
         22    1    1    2    0    0 -0.10183603522E+04 -0.16363232456E+04 -0.19649367842E+04  0.27523786325E+04  0.00000000000E+00 0. -1.
<mgrwt>
<rscale>  0 0.46826113E+04</rscale>
<asrwt>0</asrwt>
<pdfrwt beam="1">  1        2 0.46322341E+00 0.46826113E+04</pdfrwt>
<pdfrwt beam="2">  1       -2 0.28009090E+00 0.46826113E+04</pdfrwt>
<totfact> 0.53787524E-02</totfact>
</mgrwt>
</event>
<event>
 6    1  0.1780144E-005  0.3622871E+04  0.7818608E-02  0.8085273E-01
         -1   -1    0    0    0  501 -0.00000000000E+00  0.00000000000E+00  0.16010942706E+04  0.16010942706E+04  0.00000000000E+00 0.  1.
          1   -1    0    0  501    0  0.00000000000E+00 -0.00000000000E+00 -0.20494096909E+04  0.20494096909E+04  0.00000000000E+00 0. -1.
         23    2    1    2    0    0 -0.84199797198E+03  0.69281128762E+03 -0.16800775793E+04  0.20054550012E+04  0.10119794682E+03 0.  0.
         13    1    3    3    0    0 -0.58393649442E+03  0.45584160252E+03 -0.12177179728E+04  0.14253457326E+04  0.00000000000E+00 0. -1.
        -13    1    3    3    0    0 -0.25806147756E+03  0.23696968510E+03 -0.46235960650E+03  0.58010926866E+03  0.00000000000E+00 0.  1.
         22    1    1    2    0    0  0.84199797198E+03 -0.69281128762E+03  0.12317621591E+04  0.16450489602E+04  0.00000000000E+00 0.  1.
<mgrwt>
<rscale>  0 0.36228707E+04</rscale>
<asrwt>0</asrwt>
<pdfrwt beam="1">  1        1 0.31529380E+00 0.36228707E+04</pdfrwt>
<pdfrwt beam="2">  1       -1 0.24632220E+00 0.36228707E+04</pdfrwt>
<totfact> 0.16415719E-01</totfact>
</mgrwt>
</event>
<event>
 6    1  0.1780144E-005  0.1366770E+04  0.7818608E-02  0.8978230E-01
          2   -1    0    0  501    0  0.00000000000E+00  0.00000000000E+00  0.14049026886E+04  0.14049026886E+04  0.00000000000E+00 0. -1.
         -2   -1    0    0    0  501 -0.00000000000E+00 -0.00000000000E+00 -0.33241813311E+03  0.33241813311E+03  0.00000000000E+00 0.  1.
         23    2    1    2    0    0  0.31599054153E+03  0.83987427447E+02  0.12972497798E+04  0.13405547492E+04  0.85592839215E+02 0.  0.
         13    1    3    3    0    0  0.73382472348E+02  0.37798795409E+02  0.47125713624E+03  0.47843183907E+03  0.00000000000E+00 0.  1.
        -13    1    3    3    0    0  0.24260806918E+03  0.46188632037E+02  0.82599264354E+03  0.86212291012E+03  0.00000000000E+00 0. -1.
         22    1    1    2    0    0 -0.31599054153E+03 -0.83987427447E+02 -0.22476522426E+03  0.39676607256E+03  0.00000000000E+00 0.  1.
<mgrwt>
<rscale>  0 0.13667701E+04</rscale>
<asrwt>0</asrwt>
<pdfrwt beam="1">  1        2 0.21613887E+00 0.13667701E+04</pdfrwt>
<pdfrwt beam="2">  1       -2 0.51141252E-01 0.13667701E+04</pdfrwt>
<totfact> 0.50672117E+01</totfact>
</mgrwt>
</event>
<event>
 6    1  0.1780144E-005  0.3438365E+03  0.7818608E-02  0.1065174E+00
         -2   -1    0    0    0  501 -0.00000000000E+00  0.00000000000E+00  0.60039687426E+03  0.60039687426E+03  0.00000000000E+00 0.  1.
          2   -1    0    0  501    0  0.00000000000E+00 -0.00000000000E+00 -0.49227238126E+02  0.49227238126E+02  0.00000000000E+00 0. -1.
         23    2    1    2    0    0  0.52770387651E+02 -0.14984881604E+03  0.26523081624E+03  0.32251497127E+03  0.91810344344E+02 0.  0.
         11    1    3    3    0    0  0.52936165588E+02 -0.30307998262E+02  0.11828133490E+03  0.13308375773E+03  0.00000000000E+00 0. -1.
        -11    1    3    3    0    0 -0.16577793662E+00 -0.11954081778E+03  0.14694948134E+03  0.18943121354E+03  0.00000000000E+00 0.  1.
         22    1    1    2    0    0 -0.52770387651E+02  0.14984881604E+03  0.28593881989E+03  0.32710914111E+03  0.00000000000E+00 0.  1.
<mgrwt>
<rscale>  0 0.34383647E+03</rscale>
<asrwt>0</asrwt>
<pdfrwt beam="1">  1        2 0.75734217E-02 0.34383647E+03</pdfrwt>
<pdfrwt beam="2">  1       -2 0.92368745E-01 0.34383647E+03</pdfrwt>
<totfact> 0.94494671E+02</totfact>
</mgrwt>
</event>
<event>
 6    1  0.1780144E-005  0.1591326E+04  0.7818608E-02  0.8825895E-01
         -2   -1    0    0    0  501 -0.00000000000E+00  0.00000000000E+00  0.60563433766E+03  0.60563433766E+03  0.00000000000E+00 0.  1.
          2   -1    0    0  501    0  0.00000000000E+00 -0.00000000000E+00 -0.10453161128E+04  0.10453161128E+04  0.00000000000E+00 0. -1.
         23    2    1    2    0    0 -0.54663239708E+03  0.31621242398E+03 -0.71827033557E+03  0.96072667476E+03  0.91028534099E+02 0.  0.
         11    1    3    3    0    0 -0.31275189339E+03  0.20446682226E+03 -0.48306248504E+03  0.61071252867E+03  0.00000000000E+00 0.  1.
        -11    1    3    3    0    0 -0.23388050369E+03  0.11174560171E+03 -0.23520785052E+03  0.35001414608E+03  0.00000000000E+00 0. -1.
         22    1    1    2    0    0  0.54663239708E+03 -0.31621242398E+03  0.27858856039E+03  0.69022377574E+03  0.00000000000E+00 0.  1.
<mgrwt>
<rscale>  0 0.15913257E+04</rscale>
<asrwt>0</asrwt>
<pdfrwt beam="1">  1        2 0.16081786E+00 0.15913257E+04</pdfrwt>
<pdfrwt beam="2">  1       -2 0.93174514E-01 0.15913257E+04</pdfrwt>
<totfact> 0.22058480E+01</totfact>
</mgrwt>
</event>
<event>
 6    1  0.1780144E-005  0.1496416E+04  0.7818608E-02  0.8886840E-01
          2   -1    0    0  501    0  0.00000000000E+00  0.00000000000E+00  0.53836483019E+03  0.53836483019E+03  0.00000000000E+00 0. -1.
         -2   -1    0    0    0  501 -0.00000000000E+00 -0.00000000000E+00 -0.10398436550E+04  0.10398436550E+04  0.00000000000E+00 0.  1.
         23    2    1    2    0    0  0.60001111495E+03 -0.36368911140E+03 -0.51742566425E+03  0.87639839014E+03  0.89787039169E+02 0.  0.
         13    1    3    3    0    0  0.12074146347E+03 -0.37083747236E+02 -0.11150375596E+03  0.16848380606E+03  0.00000000000E+00 0. -1.
        -13    1    3    3    0    0  0.47926965148E+03 -0.32660536417E+03 -0.40592190830E+03  0.70791458409E+03  0.00000000000E+00 0.  1.
         22    1    1    2    0    0 -0.60001111495E+03  0.36368911140E+03  0.15946839439E+02  0.70181009504E+03  0.00000000000E+00 0. -1.
<mgrwt>
<rscale>  0 0.14964161E+04</rscale>
<asrwt>0</asrwt>
<pdfrwt beam="1">  1        2 0.82825359E-01 0.14964161E+04</pdfrwt>
<pdfrwt beam="2">  1       -2 0.15997595E+00 0.14964161E+04</pdfrwt>
<totfact> 0.13738341E+01</totfact>
</mgrwt>
</event>
<event>
 6    1  0.1780144E-005  0.1828927E+04  0.7818608E-02  0.8691066E-01
         -2   -1    0    0    0  501 -0.00000000000E+00  0.00000000000E+00  0.13433545422E+04  0.13433545422E+04  0.00000000000E+00 0.  1.
          2   -1    0    0  501    0  0.00000000000E+00 -0.00000000000E+00 -0.62250426693E+03  0.62250426693E+03  0.00000000000E+00 0. -1.
         23    2    1    2    0    0 -0.72094550296E+03 -0.35418592503E+03 -0.10342030818E+03  0.81493219007E+03  0.90601470959E+02 0.  0.
         13    1    3    3    0    0 -0.60840591123E+03 -0.27619398697E+03 -0.58011407324E+02  0.67067592370E+03  0.00000000000E+00 0. -1.
        -13    1    3    3    0    0 -0.11253959173E+03 -0.77991938052E+02 -0.45408900851E+02  0.14425626636E+03  0.00000000000E+00 0.  1.
         22    1    1    2    0    0  0.72094550296E+03  0.35418592503E+03  0.82427058343E+03  0.11509266190E+04  0.00000000000E+00 0.  1.
<mgrwt>
<rscale>  0 0.18289275E+04</rscale>
<asrwt>0</asrwt>
<pdfrwt beam="1">  1        2 0.95769887E-01 0.18289275E+04</pdfrwt>
<pdfrwt beam="2">  1       -2 0.20666993E+00 0.18289275E+04</pdfrwt>
<totfact> 0.53700335E+00</totfact>
</mgrwt>
</event>
<event>
 6    1  0.1780144E-005  0.3678734E+04  0.7818608E-02  0.8072691E-01
         -2   -1    0    0    0  501 -0.00000000000E+00  0.00000000000E+00  0.11798502634E+04  0.11798502634E+04  0.00000000000E+00 0.  1.
          2   -1    0    0  501    0  0.00000000000E+00 -0.00000000000E+00 -0.28675434180E+04  0.28675434180E+04  0.00000000000E+00 0. -1.
         23    2    1    2    0    0 -0.95301980223E+03  0.15713029485E+04 -0.89394170190E+03  0.20455742420E+04  0.89456769275E+02 0.  0.
         11    1    3    3    0    0 -0.18049866175E+03  0.35397786354E+03 -0.16849392609E+03  0.43159042841E+03  0.00000000000E+00 0. -1.
        -11    1    3    3    0    0 -0.77252114048E+03  0.12173250850E+04 -0.72544777582E+03  0.16139838136E+04  0.00000000000E+00 0.  1.
         22    1    1    2    0    0  0.95301980223E+03 -0.15713029485E+04 -0.79375145270E+03  0.20018194394E+04  0.00000000000E+00 0. -1.
<mgrwt>
<rscale>  0 0.36787345E+04</rscale>
<asrwt>0</asrwt>
<pdfrwt beam="1">  1        2 0.44116052E+00 0.36787345E+04</pdfrwt>
<pdfrwt beam="2">  1       -2 0.18151543E+00 0.36787345E+04</pdfrwt>
<totfact> 0.30138214E-01</totfact>
</mgrwt>
</event>
<event>
 6    1  0.1780144E-005  0.2055205E+04  0.7818608E-02  0.8581237E-01
          1   -1    0    0  501    0  0.00000000000E+00  0.00000000000E+00  0.59063573254E+03  0.59063573254E+03  0.00000000000E+00 0. -1.
         -1   -1    0    0    0  501 -0.00000000000E+00 -0.00000000000E+00 -0.17878476242E+04  0.17878476242E+04  0.00000000000E+00 0.  1.
         23    2    1    2    0    0  0.26490201330E+03 -0.54305278026E+03  0.35936691455E+03  0.70874775530E+03  0.89996680860E+02 0.  0.
         13    1    3    3    0    0  0.19784347761E+03 -0.30496815932E+03  0.21147470428E+03  0.42055816528E+03  0.00000000000E+00 0. -1.
        -13    1    3    3    0    0  0.67058535698E+02 -0.23808462094E+03  0.14789221027E+03  0.28818959002E+03  0.00000000000E+00 0.  1.
         22    1    1    2    0    0 -0.26490201330E+03  0.54305278026E+03 -0.15565788062E+04  0.16697356014E+04  0.00000000000E+00 0.  1.
<mgrwt>
<rscale>  0 0.20552048E+04</rscale>
<asrwt>0</asrwt>
<pdfrwt beam="1">  1        1 0.90867038E-01 0.20552048E+04</pdfrwt>
<pdfrwt beam="2">  1       -1 0.27505347E+00 0.20552048E+04</pdfrwt>
<totfact> 0.15502306E+00</totfact>
</mgrwt>
</event>
<event>
 6    1  0.1780144E-005  0.2631367E+04  0.7818608E-02  0.8357624E-01
         -2   -1    0    0    0  501 -0.00000000000E+00  0.00000000000E+00  0.58677536117E+03  0.58677536117E+03  0.00000000000E+00 0.  1.
          2   -1    0    0  501    0  0.00000000000E+00 -0.00000000000E+00 -0.29500619534E+04  0.29500619534E+04  0.00000000000E+00 0. -1.
         23    2    1    2    0    0  0.69356219467E+03  0.68647185602E+03 -0.10740734406E+00  0.98010346318E+03  0.91272449372E+02 0.  0.
         13    1    3    3    0    0  0.34521951435E+03  0.40513482045E+03 -0.58692036115E+01  0.53230177848E+03  0.00000000000E+00 0. -1.
        -13    1    3    3    0    0  0.34834268032E+03  0.28133703557E+03  0.57617962674E+01  0.44780168469E+03  0.00000000000E+00 0.  1.
         22    1    1    2    0    0 -0.69356219467E+03 -0.68647185602E+03 -0.23631791849E+04  0.25567338514E+04  0.00000000000E+00 0. -1.
<mgrwt>
<rscale>  0 0.26313675E+04</rscale>
<asrwt>0</asrwt>
<pdfrwt beam="1">  1        2 0.45385568E+00 0.26313675E+04</pdfrwt>
<pdfrwt beam="2">  1       -2 0.90273133E-01 0.26313675E+04</pdfrwt>
<totfact> 0.17318001E+00</totfact>
</mgrwt>
</event>
<event>
 6    1  0.1780144E-005  0.2735101E+04  0.7818608E-02  0.8323705E-01
          2   -1    0    0  501    0  0.00000000000E+00  0.00000000000E+00  0.16398530381E+04  0.16398530381E+04  0.00000000000E+00 0. -1.
         -2   -1    0    0    0  501 -0.00000000000E+00 -0.00000000000E+00 -0.11404648231E+04  0.11404648231E+04  0.00000000000E+00 0.  1.
         23    2    1    2    0    0 -0.95173366547E+03  0.17031304014E+03  0.12308718317E+04  0.15679351729E+04  0.92583684854E+02 0.  0.
         11    1    3    3    0    0 -0.22479795022E+03  0.13235002933E+02  0.24135411610E+03  0.33009255230E+03  0.00000000000E+00 0. -1.
        -11    1    3    3    0    0 -0.72693571525E+03  0.15707803720E+03  0.98951771555E+03  0.12378426206E+04  0.00000000000E+00 0.  1.
         22    1    1    2    0    0  0.95173366547E+03 -0.17031304014E+03 -0.73148361670E+03  0.12123826884E+04  0.00000000000E+00 0.  1.
<mgrwt>
<rscale>  0 0.27351012E+04</rscale>
<asrwt>0</asrwt>
<pdfrwt beam="1">  1        2 0.25228508E+00 0.27351012E+04</pdfrwt>
<pdfrwt beam="2">  1       -2 0.17545613E+00 0.27351012E+04</pdfrwt>
<totfact> 0.18077921E+00</totfact>
</mgrwt>
</event>
<event>
 6    1  0.1780144E-005  0.1907022E+04  0.7818608E-02  0.8651369E-01
         -2   -1    0    0    0  501 -0.00000000000E+00  0.00000000000E+00  0.49011289113E+03  0.49011289113E+03  0.00000000000E+00 0.  1.
          2   -1    0    0  501    0  0.00000000000E+00 -0.00000000000E+00 -0.18550480061E+04  0.18550480061E+04  0.00000000000E+00 0. -1.
         23    2    1    2    0    0  0.48671218626E+01  0.71330138946E+03  0.92708909005E+02  0.72233969274E+03  0.66008551173E+02 0.  0.
         11    1    3    3    0    0  0.55965531263E+01  0.53721887971E+03  0.98299906822E+02  0.54616693218E+03  0.00000000000E+00 0.  1.
        -11    1    3    3    0    0 -0.72943126372E+00  0.17608250974E+03 -0.55909978166E+01  0.17617276056E+03  0.00000000000E+00 0. -1.
         22    1    1    2    0    0 -0.48671218626E+01 -0.71330138946E+03 -0.14576440240E+04  0.16228212045E+04  0.00000000000E+00 0.  1.
<mgrwt>
<rscale>  0 0.19070217E+04</rscale>
<asrwt>0</asrwt>
<pdfrwt beam="1">  1        2 0.28539201E+00 0.19070217E+04</pdfrwt>
<pdfrwt beam="2">  1       -2 0.75401981E-01 0.19070217E+04</pdfrwt>
<totfact> 0.11877957E+01</totfact>
</mgrwt>
</event>
<event>
 6    1  0.1780144E-005  0.3233561E+04  0.7818608E-02  0.8180010E-01
          1   -1    0    0  501    0  0.00000000000E+00  0.00000000000E+00  0.22774777802E+04  0.22774777802E+04  0.00000000000E+00 0. -1.
         -1   -1    0    0    0  501 -0.00000000000E+00 -0.00000000000E+00 -0.11477515376E+04  0.11477515376E+04  0.00000000000E+00 0.  1.
         23    2    1    2    0    0 -0.92011019812E+02 -0.15203307029E+04 -0.38009277521E+01  0.15266099984E+04  0.10320933212E+03 0.  0.
         13    1    3    3    0    0  0.10201618383E+01 -0.16597292088E+03 -0.30714506859E+02  0.16879405240E+03  0.00000000000E+00 0.  1.
        -13    1    3    3    0    0 -0.93031181650E+02 -0.13543577820E+04  0.26913579107E+02  0.13578159460E+04  0.00000000000E+00 0. -1.
         22    1    1    2    0    0  0.92011019812E+02  0.15203307029E+04  0.11335271704E+04  0.18986193194E+04  0.00000000000E+00 0. -1.
<mgrwt>
<rscale>  0 0.32335607E+04</rscale>
<asrwt>0</asrwt>
<pdfrwt beam="1">  1        1 0.35038119E+00 0.32335607E+04</pdfrwt>
<pdfrwt beam="2">  1       -1 0.17657716E+00 0.32335607E+04</pdfrwt>
<totfact> 0.35438554E-01</totfact>
</mgrwt>
</event>
<event>
 6    1  0.1780144E-005  0.2969988E+04  0.7818608E-02  0.8252353E-01
         -2   -1    0    0    0  501 -0.00000000000E+00  0.00000000000E+00  0.10815747975E+04  0.10815747975E+04  0.00000000000E+00 0.  1.
          2   -1    0    0  501    0  0.00000000000E+00 -0.00000000000E+00 -0.20388860797E+04  0.20388860797E+04  0.00000000000E+00 0. -1.
         23    2    1    2    0    0 -0.11928970300E+04  0.75738849129E+02 -0.14024691058E+04  0.18449589425E+04  0.90632276012E+02 0.  0.
         13    1    3    3    0    0 -0.47649546341E+03  0.65864526526E+02 -0.52260755774E+03  0.71028495825E+03  0.00000000000E+00 0.  1.
        -13    1    3    3    0    0 -0.71640156658E+03  0.98743226032E+01 -0.87986154803E+03  0.11346739843E+04  0.00000000000E+00 0. -1.
         22    1    1    2    0    0  0.11928970300E+04 -0.75738849129E+02  0.44515782364E+03  0.12755019347E+04  0.00000000000E+00 0.  1.
<mgrwt>
<rscale>  0 0.29699884E+04</rscale>
<asrwt>0</asrwt>
<pdfrwt beam="1">  1        2 0.31367478E+00 0.29699884E+04</pdfrwt>
<pdfrwt beam="2">  1       -2 0.16639612E+00 0.29699884E+04</pdfrwt>
<totfact> 0.12338366E+00</totfact>
</mgrwt>
</event>
<event>
 6    1  0.1780144E-005  0.3585103E+04  0.7818608E-02  0.8093913E-01
          2   -1    0    0  501    0  0.00000000000E+00  0.00000000000E+00  0.28603518516E+04  0.28603518516E+04  0.00000000000E+00 0. -1.
         -2   -1    0    0    0  501 -0.00000000000E+00 -0.00000000000E+00 -0.11233726786E+04  0.11233726786E+04  0.00000000000E+00 0.  1.
         23    2    1    2    0    0 -0.13649472284E+04 -0.11592743219E+04  0.87369917824E+03  0.19956978104E+04  0.11163156572E+03 0.  0.
         11    1    3    3    0    0 -0.24300693151E+03 -0.20802584937E+03  0.10954801436E+03  0.33812407518E+03  0.00000000000E+00 0. -1.
        -11    1    3    3    0    0 -0.11219402969E+04 -0.95124847257E+03  0.76415116388E+03  0.16575737352E+04  0.00000000000E+00 0.  1.
         22    1    1    2    0    0  0.13649472284E+04  0.11592743219E+04  0.86327999470E+03  0.19880267199E+04  0.00000000000E+00 0. -1.
<mgrwt>
<rscale>  0 0.35851031E+04</rscale>
<asrwt>0</asrwt>
<pdfrwt beam="1">  1        2 0.44005413E+00 0.35851031E+04</pdfrwt>
<pdfrwt beam="2">  1       -2 0.17282657E+00 0.35851031E+04</pdfrwt>
<totfact> 0.35273677E-01</totfact>
</mgrwt>
</event>
<event>
 6    1  0.1780144E-005  0.4542615E+04  0.7818608E-02  0.7903218E-01
          2   -1    0    0  501    0  0.00000000000E+00  0.00000000000E+00  0.31993345715E+04  0.31993345715E+04  0.00000000000E+00 0. -1.
         -2   -1    0    0    0  501 -0.00000000000E+00 -0.00000000000E+00 -0.16124723866E+04  0.16124723866E+04  0.00000000000E+00 0.  1.
         23    2    1    2    0    0 -0.11395595332E+04 -0.91653511502E+03 -0.10458330780E+04  0.18002098910E+04  0.91412679782E+02 0.  0.
         11    1    3    3    0    0 -0.81722808519E+03 -0.68308176491E+03 -0.71717959832E+03  0.12840595847E+04  0.00000000000E+00 0. -1.
        -11    1    3    3    0    0 -0.32233144796E+03 -0.23345335011E+03 -0.32865347969E+03  0.51615030634E+03  0.00000000000E+00 0.  1.
         22    1    1    2    0    0  0.11395595332E+04  0.91653511502E+03  0.26326952630E+04  0.30115970670E+04  0.00000000000E+00 0. -1.
<mgrwt>
<rscale>  0 0.45426154E+04</rscale>
<asrwt>0</asrwt>
<pdfrwt beam="1">  1        2 0.49220532E+00 0.45426154E+04</pdfrwt>
<pdfrwt beam="2">  1       -2 0.24807268E+00 0.45426154E+04</pdfrwt>
<totfact> 0.64670181E-02</totfact>
</mgrwt>
</event>
<event>
 6    1  0.1780144E-005  0.2311504E+04  0.7818608E-02  0.8473399E-01
          2   -1    0    0  501    0  0.00000000000E+00  0.00000000000E+00  0.35980738026E+04  0.35980738026E+04  0.00000000000E+00 0. -1.
         -2   -1    0    0    0  501 -0.00000000000E+00 -0.00000000000E+00 -0.37124373065E+03  0.37124373065E+03  0.00000000000E+00 0.  1.
         23    2    1    2    0    0  0.48137142428E+02 -0.42585870036E+03  0.34557522777E+04  0.34834387485E+04  0.91917857224E+02 0.  0.
         13    1    3    3    0    0 -0.13269155193E+02 -0.23647458008E+03  0.16953314248E+04  0.17117958223E+04  0.00000000000E+00 0. -1.
        -13    1    3    3    0    0  0.61406297621E+02 -0.18938412028E+03  0.17604208530E+04  0.17716429262E+04  0.00000000000E+00 0.  1.
         22    1    1    2    0    0 -0.48137142428E+02  0.42585870036E+03 -0.22892220578E+03  0.48587878473E+03  0.00000000000E+00 0.  1.
<mgrwt>
<rscale>  0 0.23115037E+04</rscale>
<asrwt>0</asrwt>
<pdfrwt beam="1">  1        2 0.55354979E+00 0.23115037E+04</pdfrwt>
<pdfrwt beam="2">  1       -2 0.57114422E-01 0.23115037E+04</pdfrwt>
<totfact> 0.18081331E+00</totfact>
</mgrwt>
</event>
<event>
 6    1  0.1780144E-005  0.3700741E+04  0.7818608E-02  0.8067798E-01
          2   -1    0    0  501    0  0.00000000000E+00  0.00000000000E+00  0.36567305327E+04  0.36567305327E+04  0.00000000000E+00 0. -1.
         -2   -1    0    0    0  501 -0.00000000000E+00 -0.00000000000E+00 -0.93632007061E+03  0.93632007061E+03  0.00000000000E+00 0.  1.
         23    2    1    2    0    0 -0.78612717662E+03 -0.16521378557E+04  0.10275816560E+04  0.21004164948E+04  0.90939319012E+02 0.  0.
         13    1    3    3    0    0 -0.56194915637E+03 -0.10937625434E+04  0.71334203458E+03  0.14216048024E+04  0.00000000000E+00 0. -1.
        -13    1    3    3    0    0 -0.22417802025E+03 -0.55837531231E+03  0.31423962147E+03  0.67881169249E+03  0.00000000000E+00 0.  1.
         22    1    1    2    0    0  0.78612717662E+03  0.16521378557E+04  0.16928288061E+04  0.24926341085E+04  0.00000000000E+00 0.  1.
<mgrwt>
<rscale>  0 0.37007406E+04</rscale>
<asrwt>0</asrwt>
<pdfrwt beam="1">  1        2 0.56257392E+00 0.37007406E+04</pdfrwt>
<pdfrwt beam="2">  1       -2 0.14404924E+00 0.37007406E+04</pdfrwt>
<totfact> 0.16888895E-01</totfact>
</mgrwt>
</event>
<event>
 6    1  0.1780144E-005  0.2656678E+04  0.7818608E-02  0.8349200E-01
          2   -1    0    0  501    0  0.00000000000E+00  0.00000000000E+00  0.13420918685E+04  0.13420918685E+04  0.00000000000E+00 0. -1.
         -2   -1    0    0    0  501 -0.00000000000E+00 -0.00000000000E+00 -0.13147269574E+04  0.13147269574E+04  0.00000000000E+00 0.  1.
         23    2    1    2    0    0 -0.85603218169E+03  0.68299923452E+03  0.76278973530E+03  0.13376794389E+04  0.90879317898E+02 0.  0.
         13    1    3    3    0    0 -0.63518071454E+03  0.55176542178E+03  0.56522783111E+03  0.10135986000E+04  0.00000000000E+00 0. -1.
        -13    1    3    3    0    0 -0.22085146715E+03  0.13123381274E+03  0.19756190419E+03  0.32408083889E+03  0.00000000000E+00 0.  1.
         22    1    1    2    0    0  0.85603218169E+03 -0.68299923452E+03 -0.73542482418E+03  0.13191393870E+04  0.00000000000E+00 0.  1.
<mgrwt>
<rscale>  0 0.26566779E+04</rscale>
<asrwt>0</asrwt>
<pdfrwt beam="1">  1        2 0.20647567E+00 0.26566779E+04</pdfrwt>
<pdfrwt beam="2">  1       -2 0.20226569E+00 0.26566779E+04</pdfrwt>
<totfact> 0.17683064E+00</totfact>
</mgrwt>
</event>
<event>
 6    1  0.1780144E-005  0.3118551E+04  0.7818608E-02  0.8210665E-01
         -1   -1    0    0    0  501 -0.00000000000E+00  0.00000000000E+00  0.10726161581E+04  0.10726161581E+04  0.00000000000E+00 0.  1.
          1   -1    0    0  501    0  0.00000000000E+00 -0.00000000000E+00 -0.22667387961E+04  0.22667387961E+04  0.00000000000E+00 0. -1.
         23    2    1    2    0    0  0.11265693829E+04 -0.44462353541E+03 -0.16469690155E+04  0.20463280774E+04  0.90016662637E+02 0.  0.
         11    1    3    3    0    0  0.29691967884E+03 -0.84475328236E+02 -0.37832935955E+03  0.48829343746E+03  0.00000000000E+00 0. -1.
        -11    1    3    3    0    0  0.82964970404E+03 -0.36014820717E+03 -0.12686396559E+04  0.15580346399E+04  0.00000000000E+00 0.  1.
         22    1    1    2    0    0 -0.11265693829E+04  0.44462353541E+03  0.45284637752E+03  0.12930268769E+04  0.00000000000E+00 0.  1.
<mgrwt>
<rscale>  0 0.31185514E+04</rscale>
<asrwt>0</asrwt>
<pdfrwt beam="1">  1        1 0.34872904E+00 0.31185514E+04</pdfrwt>
<pdfrwt beam="2">  1       -1 0.16501787E+00 0.31185514E+04</pdfrwt>
<totfact> 0.44262850E-01</totfact>
</mgrwt>
</event>
<event>
 6    1  0.1780144E-005  0.2590496E+04  0.7818608E-02  0.8371437E-01
          2   -1    0    0  501    0  0.00000000000E+00  0.00000000000E+00  0.21441881765E+04  0.21441881765E+04  0.00000000000E+00 0. -1.
         -2   -1    0    0    0  501 -0.00000000000E+00 -0.00000000000E+00 -0.78242539316E+03  0.78242539316E+03  0.00000000000E+00 0.  1.
         23    2    1    2    0    0  0.86292484613E+02  0.11794371880E+04  0.89616967389E+02  0.11896986465E+04  0.93985080369E+02 0.  0.
         13    1    3    3    0    0 -0.38900428107E+01  0.15393021928E+03 -0.16106628259E+02  0.15481947008E+03  0.00000000000E+00 0. -1.
        -13    1    3    3    0    0  0.90182527423E+02  0.10255069687E+04  0.10572359565E+03  0.10348791764E+04  0.00000000000E+00 0.  1.
         22    1    1    2    0    0 -0.86292484613E+02 -0.11794371880E+04  0.12721458159E+04  0.17369149231E+04  0.00000000000E+00 0. -1.
<mgrwt>
<rscale>  0 0.25904959E+04</rscale>
<asrwt>0</asrwt>
<pdfrwt beam="1">  1        2 0.32987510E+00 0.25904959E+04</pdfrwt>
<pdfrwt beam="2">  1       -2 0.12037314E+00 0.25904959E+04</pdfrwt>
<totfact> 0.25888665E+00</totfact>
</mgrwt>
</event>
<event>
 6    1  0.1780144E-005  0.8279504E+03  0.7818608E-02  0.9520419E-01
         -1   -1    0    0    0  501 -0.00000000000E+00  0.00000000000E+00  0.31262770373E+03  0.31262770373E+03  0.00000000000E+00 0.  1.
          1   -1    0    0  501    0  0.00000000000E+00 -0.00000000000E+00 -0.54817743048E+03  0.54817743048E+03  0.00000000000E+00 0. -1.
         23    2    1    2    0    0  0.23399196109E+03  0.20416712505E+03  0.15756427602E+03  0.35983101114E+03  0.90638858631E+02 0.  0.
         13    1    3    3    0    0  0.93208689996E+02  0.14136902825E+03  0.80810371702E+02  0.18762563314E+03  0.00000000000E+00 0.  1.
        -13    1    3    3    0    0  0.14078327110E+03  0.62798096803E+02  0.76753904318E+02  0.17220537800E+03  0.00000000000E+00 0. -1.
         22    1    1    2    0    0 -0.23399196109E+03 -0.20416712505E+03 -0.39311400278E+03  0.50097412307E+03  0.00000000000E+00 0. -1.
<mgrwt>
<rscale>  0 0.82795036E+03</rscale>
<asrwt>0</asrwt>
<pdfrwt beam="1">  1        1 0.84334989E-01 0.82795036E+03</pdfrwt>
<pdfrwt beam="2">  1       -1 0.48096570E-01 0.82795036E+03</pdfrwt>
<totfact> 0.17015994E+02</totfact>
</mgrwt>
</event>
<event>
 6    1  0.1780144E-005  0.7122967E+03  0.7818608E-02  0.9696431E-01
         -2   -1    0    0    0  501 -0.00000000000E+00  0.00000000000E+00  0.39652741285E+03  0.39652741285E+03  0.00000000000E+00 0.  1.
          2   -1    0    0  501    0  0.00000000000E+00 -0.00000000000E+00 -0.31988118040E+03  0.31988118040E+03  0.00000000000E+00 0. -1.
         23    2    1    2    0    0  0.21589722812E+02  0.65747794587E+02 -0.30565295223E+03  0.32789661759E+03  0.96455046493E+02 0.  0.
         13    1    3    3    0    0  0.24245130008E+02  0.84082488233E+02 -0.17215387494E+03  0.19311822238E+03  0.00000000000E+00 0. -1.
        -13    1    3    3    0    0 -0.26554071961E+01 -0.18334693646E+02 -0.13349907729E+03  0.13477839521E+03  0.00000000000E+00 0.  1.
         22    1    1    2    0    0 -0.21589722812E+02 -0.65747794587E+02  0.38229918468E+03  0.38851197566E+03  0.00000000000E+00 0.  1.
<mgrwt>
<rscale>  0 0.71229673E+03</rscale>
<asrwt>0</asrwt>
<pdfrwt beam="1">  1        2 0.49212489E-01 0.71229673E+03</pdfrwt>
<pdfrwt beam="2">  1       -2 0.61004217E-01 0.71229673E+03</pdfrwt>
<totfact> 0.25799128E+02</totfact>
</mgrwt>
</event>
<event>
 6    1  0.1780144E-005  0.2301455E+04  0.7818608E-02  0.8477348E-01
         -2   -1    0    0    0  501 -0.00000000000E+00  0.00000000000E+00  0.83559885044E+03  0.83559885044E+03  0.00000000000E+00 0.  1.
          2   -1    0    0  501    0  0.00000000000E+00 -0.00000000000E+00 -0.15847003979E+04  0.15847003979E+04  0.00000000000E+00 0. -1.
         23    2    1    2    0    0  0.51929568643E+03 -0.15740574446E+03 -0.14401151337E+04  0.15416956091E+04  0.91919391734E+02 0.  0.
         13    1    3    3    0    0  0.32071675707E+03 -0.55982950819E+02 -0.79243765924E+03  0.85670926972E+03  0.00000000000E+00 0. -1.
        -13    1    3    3    0    0  0.19857892936E+03 -0.10142279365E+03 -0.64767747447E+03  0.68498633942E+03  0.00000000000E+00 0.  1.
         22    1    1    2    0    0 -0.51929568643E+03  0.15740574446E+03  0.69101358628E+03  0.87860363917E+03  0.00000000000E+00 0.  1.
<mgrwt>
<rscale>  0 0.23014550E+04</rscale>
<asrwt>0</asrwt>
<pdfrwt beam="1">  1        2 0.24380006E+00 0.23014550E+04</pdfrwt>
<pdfrwt beam="2">  1       -2 0.12855367E+00 0.23014550E+04</pdfrwt>
<totfact> 0.46073667E+00</totfact>
</mgrwt>
</event>
<event>
 6    1  0.1780144E-005  0.2624188E+04  0.7818608E-02  0.8360031E-01
          2   -1    0    0  501    0  0.00000000000E+00  0.00000000000E+00  0.18748784775E+04  0.18748784775E+04  0.00000000000E+00 0. -1.
         -2   -1    0    0    0  501 -0.00000000000E+00 -0.00000000000E+00 -0.91824124647E+03  0.91824124647E+03  0.00000000000E+00 0.  1.
         23    2    1    2    0    0  0.12432739458E+04  0.12602668885E+03  0.58571121650E+02  0.12542449508E+04  0.89927692217E+02 0.  0.
         13    1    3    3    0    0  0.69707694779E+03  0.51388456964E+02  0.73098265321E+02  0.70278047856E+03  0.00000000000E+00 0. -1.
        -13    1    3    3    0    0  0.54619699800E+03  0.74638231886E+02 -0.14527143671E+02  0.55146447228E+03  0.00000000000E+00 0.  1.
         22    1    1    2    0    0 -0.12432739458E+04 -0.12602668885E+03  0.89806610941E+03  0.15388747732E+04  0.00000000000E+00 0. -1.
<mgrwt>
<rscale>  0 0.26241881E+04</rscale>
<asrwt>0</asrwt>
<pdfrwt beam="1">  1        2 0.28844284E+00 0.26241881E+04</pdfrwt>
<pdfrwt beam="2">  1       -2 0.14126788E+00 0.26241881E+04</pdfrwt>
<totfact> 0.24287533E+00</totfact>
</mgrwt>
</event>
<event>
 6    1  0.1780144E-005  0.1716825E+04  0.7818608E-02  0.8751826E-01
          1   -1    0    0  501    0  0.00000000000E+00  0.00000000000E+00  0.10869547224E+04  0.10869547224E+04  0.00000000000E+00 0. -1.
         -1   -1    0    0    0  501 -0.00000000000E+00 -0.00000000000E+00 -0.67792312998E+03  0.67792312998E+03  0.00000000000E+00 0.  1.
         23    2    1    2    0    0 -0.74748890543E+03 -0.29322311376E+03  0.51001953568E+03  0.95560779685E+03  0.91361241437E+02 0.  0.
         11    1    3    3    0    0 -0.46693645438E+03 -0.14239697311E+03  0.28063223614E+03  0.56308170131E+03  0.00000000000E+00 0. -1.
        -11    1    3    3    0    0 -0.28055245104E+03 -0.15082614066E+03  0.22938729954E+03  0.39252609554E+03  0.00000000000E+00 0.  1.
         22    1    1    2    0    0  0.74748890543E+03  0.29322311376E+03 -0.10098794322E+03  0.80927005558E+03  0.00000000000E+00 0.  1.
<mgrwt>
<rscale>  0 0.17168247E+04</rscale>
<asrwt>0</asrwt>
<pdfrwt beam="1">  1        1 0.16722380E+00 0.17168247E+04</pdfrwt>
<pdfrwt beam="2">  1       -1 0.10429587E+00 0.17168247E+04</pdfrwt>
<totfact> 0.10660564E+01</totfact>
</mgrwt>
</event>
<event>
 6    1  0.1780144E-005  0.2336306E+04  0.7818608E-02  0.8463742E-01
          2   -1    0    0  501    0  0.00000000000E+00  0.00000000000E+00  0.28108995680E+04  0.28108995680E+04  0.00000000000E+00 0.  1.
         -2   -1    0    0    0  501 -0.00000000000E+00 -0.00000000000E+00 -0.48546066190E+03  0.48546066190E+03  0.00000000000E+00 0. -1.
         23    2    1    2    0    0 -0.93274949180E+03 -0.49509220076E+03  0.18632241396E+04  0.21436328588E+04  0.91759126621E+02 0.  0.
         11    1    3    3    0    0 -0.30510790547E+03 -0.20134311851E+03  0.59102128395E+03  0.69493599952E+03  0.00000000000E+00 0. -1.
        -11    1    3    3    0    0 -0.62764158633E+03 -0.29374908226E+03  0.12722028556E+04  0.14486968593E+04  0.00000000000E+00 0.  1.
         22    1    1    2    0    0  0.93274949180E+03  0.49509220076E+03  0.46221476655E+03  0.11527273711E+04  0.00000000000E+00 0. -1.
<mgrwt>
<rscale>  0 0.23363058E+04</rscale>
<asrwt>0</asrwt>
<pdfrwt beam="1">  1        2 0.43244607E+00 0.23363058E+04</pdfrwt>
<pdfrwt beam="2">  1       -2 0.74686258E-01 0.23363058E+04</pdfrwt>
<totfact> 0.33190465E+00</totfact>
</mgrwt>
</event>
<event>
 6    1  0.1780144E-005  0.3942258E+04  0.7818608E-02  0.8016297E-01
          1   -1    0    0  501    0  0.00000000000E+00  0.00000000000E+00  0.10464359058E+04  0.10464359058E+04  0.00000000000E+00 0. -1.
         -1   -1    0    0    0  501 -0.00000000000E+00 -0.00000000000E+00 -0.37129367029E+04  0.37129367029E+04  0.00000000000E+00 0.  1.
         23    2    1    2    0    0  0.60432633210E+03  0.85185971090E+03  0.68269177213E+03  0.12511015034E+04  0.91168159626E+02 0.  0.
         11    1    3    3    0    0  0.54176099678E+03  0.74940236131E+03  0.56898502054E+03  0.10857498931E+04  0.00000000000E+00 0. -1.
        -11    1    3    3    0    0  0.62565335329E+02  0.10245734959E+03  0.11370675159E+03  0.16535161030E+03  0.00000000000E+00 0.  1.
         22    1    1    2    0    0 -0.60432633210E+03 -0.85185971090E+03 -0.33491925692E+04  0.35082711053E+04  0.00000000000E+00 0.  1.
<mgrwt>
<rscale>  0 0.39422584E+04</rscale>
<asrwt>0</asrwt>
<pdfrwt beam="1">  1        1 0.16099014E+00 0.39422584E+04</pdfrwt>
<pdfrwt beam="2">  1       -1 0.57122103E+00 0.39422584E+04</pdfrwt>
<totfact> 0.64346728E-03</totfact>
</mgrwt>
</event>
<event>
 6    1  0.1780144E-005  0.9671659E+03  0.7818608E-02  0.9345308E-01
         -1   -1    0    0    0  501 -0.00000000000E+00  0.00000000000E+00  0.17370541989E+03  0.17370541989E+03  0.00000000000E+00 0.  1.
          1   -1    0    0  501    0  0.00000000000E+00 -0.00000000000E+00 -0.13462590005E+04  0.13462590005E+04  0.00000000000E+00 0. -1.
         23    2    1    2    0    0  0.30428874123E+03  0.29936273952E+03 -0.24797717379E+03  0.50160730232E+03  0.88924232765E+02 0.  0.
         11    1    3    3    0    0  0.22285547386E+03  0.20914063351E+03 -0.12965689884E+03  0.33198686455E+03  0.00000000000E+00 0. -1.
        -11    1    3    3    0    0  0.81433267367E+02  0.90222106005E+02 -0.11832027495E+03  0.16962043777E+03  0.00000000000E+00 0.  1.
         22    1    1    2    0    0 -0.30428874123E+03 -0.29936273952E+03 -0.92457640685E+03  0.10183571181E+04  0.00000000000E+00 0. -1.
<mgrwt>
<rscale>  0 0.96716593E+03</rscale>
<asrwt>0</asrwt>
<pdfrwt beam="1">  1        1 0.20711677E+00 0.96716593E+03</pdfrwt>
<pdfrwt beam="2">  1       -1 0.26723910E-01 0.96716593E+03</pdfrwt>
<totfact> 0.10507629E+02</totfact>
</mgrwt>
</event>
<event>
 6    1  0.1780144E-005  0.2988457E+04  0.7818608E-02  0.8247035E-01
         -2   -1    0    0    0  501 -0.00000000000E+00  0.00000000000E+00  0.23287315233E+04  0.23287315233E+04  0.00000000000E+00 0. -1.
          2   -1    0    0  501    0  0.00000000000E+00 -0.00000000000E+00 -0.95877012337E+03  0.95877012337E+03  0.00000000000E+00 0.  1.
         23    2    1    2    0    0  0.13772896605E+04 -0.42733652622E+03  0.25987104159E+03  0.14676544225E+04  0.83266019260E+02 0.  0.
         13    1    3    3    0    0  0.91801789551E+03 -0.31812274376E+03  0.19789821814E+03  0.99152541133E+03  0.00000000000E+00 0.  1.
        -13    1    3    3    0    0  0.45927176501E+03 -0.10921378246E+03  0.61972823447E+02  0.47612901115E+03  0.00000000000E+00 0. -1.
         22    1    1    2    0    0 -0.13772896605E+04  0.42733652622E+03  0.11100903583E+04  0.18198472242E+04  0.00000000000E+00 0. -1.
<mgrwt>
<rscale>  0 0.29884566E+04</rscale>
<asrwt>0</asrwt>
<pdfrwt beam="1">  1        2 0.14750310E+00 0.29884566E+04</pdfrwt>
<pdfrwt beam="2">  1       -2 0.35826639E+00 0.29884566E+04</pdfrwt>
<totfact> 0.31653252E-01</totfact>
</mgrwt>
</event>
<event>
 6    1  0.1780144E-005  0.1926956E+04  0.7818608E-02  0.8641554E-01
         -2   -1    0    0    0  501 -0.00000000000E+00  0.00000000000E+00  0.10205047407E+04  0.10205047407E+04  0.00000000000E+00 0.  1.
          2   -1    0    0  501    0  0.00000000000E+00 -0.00000000000E+00 -0.90963838352E+03  0.90963838352E+03  0.00000000000E+00 0. -1.
         23    2    1    2    0    0  0.83030701538E+03  0.17765889558E+03 -0.39554544137E+03  0.94149488917E+03  0.94784002807E+02 0.  0.
         13    1    3    3    0    0  0.63427907115E+03  0.10453491300E+03 -0.26802343736E+03  0.69647257743E+03  0.00000000000E+00 0.  1.
        -13    1    3    3    0    0  0.19602794422E+03  0.73123982584E+02 -0.12752200401E+03  0.24502231174E+03  0.00000000000E+00 0. -1.
         22    1    1    2    0    0 -0.83030701538E+03 -0.17765889558E+03  0.50641179855E+03  0.98864823505E+03  0.00000000000E+00 0.  1.
<mgrwt>
<rscale>  0 0.19269564E+04</rscale>
<asrwt>0</asrwt>
<pdfrwt beam="1">  1        2 0.13994437E+00 0.19269564E+04</pdfrwt>
<pdfrwt beam="2">  1       -2 0.15700073E+00 0.19269564E+04</pdfrwt>
<totfact> 0.71564525E+00</totfact>
</mgrwt>
</event>
<event>
 6    1  0.1780144E-005  0.3740251E+04  0.7818608E-02  0.8059100E-01
          1   -1    0    0  501    0  0.00000000000E+00  0.00000000000E+00  0.15480020767E+04  0.15480020767E+04  0.00000000000E+00 0. -1.
         -1   -1    0    0    0  501 -0.00000000000E+00 -0.00000000000E+00 -0.22592801091E+04  0.22592801091E+04  0.00000000000E+00 0.  1.
         23    2    1    2    0    0  0.49845763276E+03 -0.27725602138E+03 -0.21675752338E+04  0.22432705325E+04  0.92462829404E+02 0.  0.
         13    1    3    3    0    0  0.24334530911E+03 -0.14125560023E+03 -0.12478251319E+04  0.12791550507E+04  0.00000000000E+00 0. -1.
        -13    1    3    3    0    0  0.25511232366E+03 -0.13600042114E+03 -0.91975010189E+03  0.96411548175E+03  0.00000000000E+00 0.  1.
         22    1    1    2    0    0 -0.49845763276E+03  0.27725602138E+03  0.14562972014E+04  0.15640116533E+04  0.00000000000E+00 0. -1.
<mgrwt>
<rscale>  0 0.37402515E+04</rscale>
<asrwt>0</asrwt>
<pdfrwt beam="1">  1        1 0.23815417E+00 0.37402515E+04</pdfrwt>
<pdfrwt beam="2">  1       -1 0.34758155E+00 0.37402515E+04</pdfrwt>
<totfact> 0.78089361E-02</totfact>
</mgrwt>
</event>
<event>
 6    1  0.1780144E-005  0.5964909E+04  0.7818608E-02  0.7694768E-01
         -1   -1    0    0    0  501 -0.00000000000E+00  0.00000000000E+00  0.30872577586E+04  0.30872577586E+04  0.00000000000E+00 0.  1.
          1   -1    0    0  501    0  0.00000000000E+00 -0.00000000000E+00 -0.28812087247E+04  0.28812087247E+04  0.00000000000E+00 0. -1.
         23    2    1    2    0    0  0.10935270800E+04 -0.27598318375E+04  0.38569202508E+03  0.29944549079E+04  0.74354630683E+02 0.  0.
         13    1    3    3    0    0  0.77111861241E+03 -0.18654643310E+04  0.28023161697E+03  0.20379182623E+04  0.00000000000E+00 0. -1.
        -13    1    3    3    0    0  0.32240846761E+03 -0.89436750659E+03  0.10546040811E+03  0.95653664567E+03  0.00000000000E+00 0.  1.
         22    1    1    2    0    0 -0.10935270800E+04  0.27598318375E+04 -0.17964299110E+03  0.29740115754E+04  0.00000000000E+00 0.  1.
<mgrwt>
<rscale>  0 0.59649087E+04</rscale>
<asrwt>0</asrwt>
<pdfrwt beam="1">  1        1 0.44326288E+00 0.59649087E+04</pdfrwt>
<pdfrwt beam="2">  1       -1 0.47496273E+00 0.59649087E+04</pdfrwt>
<totfact> 0.10732501E-03</totfact>
</mgrwt>
</event>
<event>
 6    1  0.1780144E-005  0.1250437E+04  0.7818608E-02  0.9069820E-01
          1   -1    0    0  501    0  0.00000000000E+00  0.00000000000E+00  0.46729628958E+03  0.46729628958E+03  0.00000000000E+00 0. -1.
         -1   -1    0    0    0  501 -0.00000000000E+00 -0.00000000000E+00 -0.83651023969E+03  0.83651023969E+03  0.00000000000E+00 0.  1.
         23    2    1    2    0    0 -0.34943087031E+03  0.51133033483E+03 -0.12379326061E+03  0.63762940621E+03  0.87668944576E+02 0.  0.
         11    1    3    3    0    0 -0.26726573084E+03  0.37051964333E+03 -0.53091380762E+02  0.45992876805E+03  0.00000000000E+00 0.  1.
        -11    1    3    3    0    0 -0.82165139472E+02  0.14081069151E+03 -0.70701879847E+02  0.17770063816E+03  0.00000000000E+00 0. -1.
         22    1    1    2    0    0  0.34943087031E+03 -0.51133033483E+03 -0.24542068950E+03  0.66617712305E+03  0.00000000000E+00 0. -1.
<mgrwt>
<rscale>  0 0.12504369E+04</rscale>
<asrwt>0</asrwt>
<pdfrwt beam="1">  1        1 0.71891737E-01 0.12504369E+04</pdfrwt>
<pdfrwt beam="2">  1       -1 0.12869388E+00 0.12504369E+04</pdfrwt>
<totfact> 0.24961468E+01</totfact>
</mgrwt>
</event>
<event>
 6    1  0.1780144E-005  0.2109388E+04  0.7818608E-02  0.8557119E-01
          2   -1    0    0  501    0  0.00000000000E+00  0.00000000000E+00  0.14783972938E+04  0.14783972938E+04  0.00000000000E+00 0.  1.
         -2   -1    0    0    0  501 -0.00000000000E+00 -0.00000000000E+00 -0.75242253890E+03  0.75242253890E+03  0.00000000000E+00 0. -1.
         23    2    1    2    0    0  0.60244262890E+03  0.25063435635E+03  0.12373827151E+04  0.14017885887E+04  0.90225063695E+02 0.  0.
         13    1    3    3    0    0  0.28310360330E+03  0.11913135543E+03  0.67894802193E+03  0.74519148313E+03  0.00000000000E+00 0.  1.
        -13    1    3    3    0    0  0.31933902560E+03  0.13150300092E+03  0.55843469316E+03  0.65659710557E+03  0.00000000000E+00 0. -1.
         22    1    1    2    0    0 -0.60244262890E+03 -0.25063435635E+03 -0.51140796022E+03  0.82903124397E+03  0.00000000000E+00 0. -1.
<mgrwt>
<rscale>  0 0.21093880E+04</rscale>
<asrwt>0</asrwt>
<pdfrwt beam="1">  1        2 0.22744574E+00 0.21093880E+04</pdfrwt>
<pdfrwt beam="2">  1       -2 0.11575731E+00 0.21093880E+04</pdfrwt>
<totfact> 0.69774732E+00</totfact>
</mgrwt>
</event>
<event>
 6    1  0.1780144E-005  0.2277342E+04  0.7818608E-02  0.8486909E-01
          2   -1    0    0  501    0  0.00000000000E+00  0.00000000000E+00  0.14704855690E+04  0.14704855690E+04  0.00000000000E+00 0. -1.
         -2   -1    0    0    0  501 -0.00000000000E+00 -0.00000000000E+00 -0.88172993325E+03  0.88172993325E+03  0.00000000000E+00 0.  1.
         23    2    1    2    0    0 -0.66385907031E+03 -0.80095752109E+03 -0.17915860812E+03  0.10591825940E+04  0.86764882038E+02 0.  0.
         13    1    3    3    0    0 -0.17816723275E+03 -0.21214717050E+03 -0.86906391030E+02  0.29034928203E+03  0.00000000000E+00 0.  1.
        -13    1    3    3    0    0 -0.48569183756E+03 -0.58881035060E+03 -0.92252217092E+02  0.76883331197E+03  0.00000000000E+00 0. -1.
         22    1    1    2    0    0  0.66385907031E+03  0.80095752109E+03  0.76791424382E+03  0.12930329082E+04  0.00000000000E+00 0.  1.
<mgrwt>
<rscale>  0 0.22773416E+04</rscale>
<asrwt>0</asrwt>
<pdfrwt beam="1">  1        2 0.22622855E+00 0.22773416E+04</pdfrwt>
<pdfrwt beam="2">  1       -2 0.13565076E+00 0.22773416E+04</pdfrwt>
<totfact> 0.46700884E+00</totfact>
</mgrwt>
</event>
<event>
 6    1  0.1780144E-005  0.1688400E+04  0.7818608E-02  0.8768008E-01
         -1   -1    0    0    0  501 -0.00000000000E+00  0.00000000000E+00  0.59480008253E+03  0.59480008253E+03  0.00000000000E+00 0.  1.
          1   -1    0    0  501    0  0.00000000000E+00 -0.00000000000E+00 -0.11981734186E+04  0.11981734186E+04  0.00000000000E+00 0. -1.
         23    2    1    2    0    0  0.67170436084E+03 -0.35097993047E+03 -0.69156365861E+03  0.10299851703E+04  0.90749640576E+02 0.  0.
         13    1    3    3    0    0  0.40253044934E+03 -0.25968395517E+03 -0.42985594113E+03  0.64361684979E+03  0.00000000000E+00 0.  1.
        -13    1    3    3    0    0  0.26917391149E+03 -0.91295975307E+02 -0.26170771748E+03  0.38636832055E+03  0.00000000000E+00 0. -1.
         22    1    1    2    0    0 -0.67170436084E+03  0.35097993047E+03  0.88190322519E+02  0.76298833081E+03  0.00000000000E+00 0.  1.
<mgrwt>
<rscale>  0 0.16884000E+04</rscale>
<asrwt>0</asrwt>
<pdfrwt beam="1">  1        1 0.18433437E+00 0.16884000E+04</pdfrwt>
<pdfrwt beam="2">  1       -1 0.91507705E-01 0.16884000E+04</pdfrwt>
<totfact> 0.11888419E+01</totfact>
</mgrwt>
</event>
<event>
 6    1  0.1780144E-005  0.2000509E+04  0.7818608E-02  0.8606383E-01
          2   -1    0    0  501    0  0.00000000000E+00  0.00000000000E+00  0.25654550687E+04  0.25654550687E+04  0.00000000000E+00 0. -1.
         -2   -1    0    0    0  501 -0.00000000000E+00 -0.00000000000E+00 -0.38999299919E+03  0.38999299919E+03  0.00000000000E+00 0.  1.
         23    2    1    2    0    0  0.35931284008E+03  0.76397741433E+03  0.30100487461E+03  0.89963752649E+03  0.77308071267E+02 0.  0.
         13    1    3    3    0    0  0.29706690869E+03  0.59224681361E+03  0.26417768924E+03  0.71329859663E+03  0.00000000000E+00 0. -1.
        -13    1    3    3    0    0  0.62245931387E+02  0.17173060072E+03  0.36827185372E+02  0.18633892986E+03  0.00000000000E+00 0.  1.
         22    1    1    2    0    0 -0.35931284008E+03 -0.76397741433E+03  0.18744571949E+04  0.20558105414E+04  0.00000000000E+00 0. -1.
<mgrwt>
<rscale>  0 0.20005095E+04</rscale>
<asrwt>0</asrwt>
<pdfrwt beam="1">  1        2 0.39468538E+00 0.20005095E+04</pdfrwt>
<pdfrwt beam="2">  1       -2 0.59998925E-01 0.20005095E+04</pdfrwt>
<totfact> 0.76777726E+00</totfact>
</mgrwt>
</event>
<event>
 6    1  0.1780144E-005  0.1994737E+04  0.7818608E-02  0.8609085E-01
         -1   -1    0    0    0  501 -0.00000000000E+00  0.00000000000E+00  0.23769032923E+03  0.23769032923E+03  0.00000000000E+00 0.  1.
          1   -1    0    0  501    0  0.00000000000E+00 -0.00000000000E+00 -0.41850423438E+04  0.41850423438E+04  0.00000000000E+00 0. -1.
         23    2    1    2    0    0  0.55385266179E+03  0.66316596561E+03 -0.30733794567E+04  0.31937615990E+04  0.88938166202E+02 0.  0.
         11    1    3    3    0    0  0.28245369755E+03  0.27484582951E+03 -0.13309981526E+04  0.13881197367E+04  0.00000000000E+00 0. -1.
        -11    1    3    3    0    0  0.27139896423E+03  0.38832013610E+03 -0.17423813041E+04  0.18056418623E+04  0.00000000000E+00 0.  1.
         22    1    1    2    0    0 -0.55385266179E+03 -0.66316596561E+03 -0.87397255783E+03  0.12289710740E+04  0.00000000000E+00 0.  1.
<mgrwt>
<rscale>  0 0.19947372E+04</rscale>
<asrwt>0</asrwt>
<pdfrwt beam="1">  1        1 0.64385264E+00 0.19947372E+04</pdfrwt>
<pdfrwt beam="2">  1       -1 0.36567744E-01 0.19947372E+04</pdfrwt>
<totfact> 0.43904596E-01</totfact>
</mgrwt>
</event>
<event>
 6    1  0.1780144E-005  0.2065351E+04  0.7818608E-02  0.8576662E-01
         -1   -1    0    0    0  501 -0.00000000000E+00  0.00000000000E+00  0.34296741509E+03  0.34296741509E+03  0.00000000000E+00 0.  1.
          1   -1    0    0  501    0  0.00000000000E+00 -0.00000000000E+00 -0.31093869546E+04  0.31093869546E+04  0.00000000000E+00 0. -1.
         23    2    1    2    0    0 -0.86533758028E+03  0.54677602371E+03 -0.15867205184E+04  0.18904763564E+04  0.91900504158E+02 0.  0.
         11    1    3    3    0    0 -0.33155512000E+03  0.23808813963E+03 -0.56311219047E+03  0.69549270226E+03  0.00000000000E+00 0.  1.
        -11    1    3    3    0    0 -0.53378246027E+03  0.30868788407E+03 -0.10236083280E+04  0.11949836542E+04  0.00000000000E+00 0. -1.
         22    1    1    2    0    0  0.86533758028E+03 -0.54677602371E+03 -0.11796990210E+04  0.15618780132E+04  0.00000000000E+00 0.  1.
<mgrwt>
<rscale>  0 0.20653507E+04</rscale>
<asrwt>0</asrwt>
<pdfrwt beam="1">  1        1 0.47836721E+00 0.20653507E+04</pdfrwt>
<pdfrwt beam="2">  1       -1 0.52764219E-01 0.20653507E+04</pdfrwt>
<totfact> 0.16618942E+00</totfact>
</mgrwt>
</event>
<event>
 6    1  0.1780144E-005  0.2037713E+04  0.7818608E-02  0.8589189E-01
          1   -1    0    0  501    0  0.00000000000E+00  0.00000000000E+00  0.10384575924E+04  0.10384575924E+04  0.00000000000E+00 0. -1.
         -1   -1    0    0    0  501 -0.00000000000E+00 -0.00000000000E+00 -0.99962566253E+03  0.99962566253E+03  0.00000000000E+00 0.  1.
         23    2    1    2    0    0 -0.79341417603E+03  0.59728318987E+03  0.24069322664E+03  0.10246725550E+04  0.75943083696E+02 0.  0.
         11    1    3    3    0    0 -0.75688239121E+03  0.54858342586E+03  0.21945487865E+03  0.96019538273E+03  0.00000000000E+00 0. -1.
        -11    1    3    3    0    0 -0.36531784817E+02  0.48699764001E+02  0.21238347988E+02  0.64477172247E+02  0.00000000000E+00 0.  1.
         22    1    1    2    0    0  0.79341417603E+03 -0.59728318987E+03 -0.20186129678E+03  0.10134106999E+04  0.00000000000E+00 0.  1.
<mgrwt>
<rscale>  0 0.20377133E+04</rscale>
<asrwt>0</asrwt>
<pdfrwt beam="1">  1        1 0.15976271E+00 0.20377133E+04</pdfrwt>
<pdfrwt beam="2">  1       -1 0.15378856E+00 0.20377133E+04</pdfrwt>
<totfact> 0.42587626E+00</totfact>
</mgrwt>
</event>
<event>
 6    1  0.1780144E-005  0.1968916E+04  0.7818608E-02  0.8621293E-01
          3   -1    0    0  501    0  0.00000000000E+00  0.00000000000E+00  0.72144413440E+03  0.72144413440E+03  0.00000000000E+00 0. -1.
         -3   -1    0    0    0  501 -0.00000000000E+00 -0.00000000000E+00 -0.13433581011E+04  0.13433581011E+04  0.00000000000E+00 0.  1.
         23    2    1    2    0    0  0.69046485299E+03  0.69688167961E+03 -0.25867518299E+03  0.10187008052E+04  0.91938520641E+02 0.  0.
         13    1    3    3    0    0  0.60823878791E+03  0.64810041297E+03 -0.24621246650E+03  0.92228474295E+03  0.00000000000E+00 0. -1.
        -13    1    3    3    0    0  0.82226065072E+02  0.48781266636E+02 -0.12462716490E+02  0.96416062221E+02  0.00000000000E+00 0.  1.
         22    1    1    2    0    0 -0.69046485299E+03 -0.69688167961E+03 -0.36323878375E+03  0.10461014304E+04  0.00000000000E+00 0.  1.
<mgrwt>
<rscale>  0 0.19689163E+04</rscale>
<asrwt>0</asrwt>
<pdfrwt beam="1">  1        3 0.11099140E+00 0.19689163E+04</pdfrwt>
<pdfrwt beam="2">  1       -3 0.20667048E+00 0.19689163E+04</pdfrwt>
<totfact> 0.22120481E-01</totfact>
</mgrwt>
</event>
<event>
 6    1  0.1780144E-005  0.3887969E+04  0.7818608E-02  0.8027536E-01
          1   -1    0    0  501    0  0.00000000000E+00  0.00000000000E+00  0.32459432633E+04  0.32459432633E+04  0.00000000000E+00 0. -1.
         -1   -1    0    0    0  501 -0.00000000000E+00 -0.00000000000E+00 -0.11642458304E+04  0.11642458304E+04  0.00000000000E+00 0.  1.
         23    2    1    2    0    0  0.68456211167E+03 -0.16881774379E+04  0.27515418057E+03  0.18446156940E+04  0.91262747032E+02 0.  0.
         11    1    3    3    0    0  0.37249852657E+03 -0.91299535797E+03  0.10296783389E+03  0.99142223638E+03  0.00000000000E+00 0.  1.
        -11    1    3    3    0    0  0.31206358510E+03 -0.77518207992E+03  0.17218634667E+03  0.85319345763E+03  0.00000000000E+00 0. -1.
         22    1    1    2    0    0 -0.68456211167E+03  0.16881774379E+04  0.18065432524E+04  0.25655733997E+04  0.00000000000E+00 0. -1.
<mgrwt>
<rscale>  0 0.38879691E+04</rscale>
<asrwt>0</asrwt>
<pdfrwt beam="1">  1        1 0.49937588E+00 0.38879691E+04</pdfrwt>
<pdfrwt beam="2">  1       -1 0.17911475E+00 0.38879691E+04</pdfrwt>
<totfact> 0.65407685E-02</totfact>
</mgrwt>
</event>
<event>
 6    1  0.1780144E-005  0.2142860E+04  0.7818608E-02  0.8542595E-01
          2   -1    0    0  501    0  0.00000000000E+00  0.00000000000E+00  0.39395664133E+03  0.39395664133E+03  0.00000000000E+00 0.  1.
         -2   -1    0    0    0  501 -0.00000000000E+00 -0.00000000000E+00 -0.29139298540E+04  0.29139298540E+04  0.00000000000E+00 0. -1.
         23    2    1    2    0    0 -0.46376983858E+03  0.31842746252E+03 -0.26664058565E+04  0.27265767404E+04  0.89565716680E+02 0.  0.
         11    1    3    3    0    0 -0.17589106479E+03  0.97998569774E+02 -0.11445182319E+04  0.11620943892E+04  0.00000000000E+00 0. -1.
        -11    1    3    3    0    0 -0.28787877379E+03  0.22042889274E+03 -0.15218876246E+04  0.15644823511E+04  0.00000000000E+00 0.  1.
         22    1    1    2    0    0  0.46376983858E+03 -0.31842746252E+03  0.14643264380E+03  0.58130975498E+03  0.00000000000E+00 0.  1.
<mgrwt>
<rscale>  0 0.21428598E+04</rscale>
<asrwt>0</asrwt>
<pdfrwt beam="1">  1        2 0.60608716E-01 0.21428598E+04</pdfrwt>
<pdfrwt beam="2">  1       -2 0.44829689E+00 0.21428598E+04</pdfrwt>
<totfact> 0.26481256E-01</totfact>
</mgrwt>
</event>
<event>
 6    1  0.1780144E-005  0.2349592E+04  0.7818608E-02  0.8458620E-01
          2   -1    0    0  501    0  0.00000000000E+00  0.00000000000E+00  0.16988206238E+04  0.16988206238E+04  0.00000000000E+00 0. -1.
         -2   -1    0    0    0  501 -0.00000000000E+00 -0.00000000000E+00 -0.81241402504E+03  0.81241402504E+03  0.00000000000E+00 0.  1.
         23    2    1    2    0    0 -0.29047617616E+03 -0.79841834992E+02  0.16555222357E+04  0.16852261800E+04  0.92099280486E+02 0.  0.
         11    1    3    3    0    0 -0.22988474172E+03 -0.33907328998E+02  0.10809215837E+04  0.11056166477E+04  0.00000000000E+00 0.  1.
        -11    1    3    3    0    0 -0.60591434437E+02 -0.45934505994E+02  0.57460065195E+03  0.57960953235E+03  0.00000000000E+00 0. -1.
         22    1    1    2    0    0  0.29047617616E+03  0.79841834992E+02 -0.76911563694E+03  0.82600846879E+03  0.00000000000E+00 0.  1.
<mgrwt>
<rscale>  0 0.23495921E+04</rscale>
<asrwt>0</asrwt>
<pdfrwt beam="1">  1        2 0.26135702E+00 0.23495921E+04</pdfrwt>
<pdfrwt beam="2">  1       -2 0.12498677E+00 0.23495921E+04</pdfrwt>
<totfact> 0.42539627E+00</totfact>
</mgrwt>
</event>
<event>
 6    1  0.1780144E-005  0.1413144E+04  0.7818608E-02  0.8944359E-01
         -2   -1    0    0    0  501 -0.00000000000E+00  0.00000000000E+00  0.87837052767E+03  0.87837052767E+03  0.00000000000E+00 0. -1.
          2   -1    0    0  501    0  0.00000000000E+00 -0.00000000000E+00 -0.56837519530E+03  0.56837519530E+03  0.00000000000E+00 0.  1.
         23    2    1    2    0    0  0.54851254736E+03 -0.44070011160E+03  0.15991661144E+03  0.72729716647E+03  0.91133104593E+02 0.  0.
         11    1    3    3    0    0  0.27807719505E+03 -0.27291563285E+03  0.63590067663E+02  0.39478293500E+03  0.00000000000E+00 0. -1.
        -11    1    3    3    0    0  0.27043535232E+03 -0.16778447875E+03  0.96326543781E+02  0.33251423147E+03  0.00000000000E+00 0.  1.
         22    1    1    2    0    0 -0.54851254736E+03  0.44070011160E+03  0.15007872093E+03  0.71944855651E+03  0.00000000000E+00 0. -1.
<mgrwt>
<rscale>  0 0.14131440E+04</rscale>
<asrwt>0</asrwt>
<pdfrwt beam="1">  1        2 0.87442337E-01 0.14131440E+04</pdfrwt>
<pdfrwt beam="2">  1       -2 0.13513393E+00 0.14131440E+04</pdfrwt>
<totfact> 0.20245215E+01</totfact>
</mgrwt>
</event>
<event>
 6    1  0.1780144E-005  0.2364900E+04  0.7818608E-02  0.8452763E-01
         -2   -1    0    0    0  501 -0.00000000000E+00  0.00000000000E+00  0.36598153422E+03  0.36598153422E+03  0.00000000000E+00 0.  1.
          2   -1    0    0  501    0  0.00000000000E+00 -0.00000000000E+00 -0.38203780353E+04  0.38203780353E+04  0.00000000000E+00 0. -1.
         23    2    1    2    0    0 -0.10133645721E+04  0.42149274687E+02 -0.65943159572E+03  0.12130595276E+04  0.89325644046E+02 0.  0.
         11    1    3    3    0    0 -0.46078007525E+03  0.31311933325E+02 -0.24941204878E+03  0.52488578281E+03  0.00000000000E+00 0.  1.
        -11    1    3    3    0    0 -0.55258449682E+03  0.10837341362E+02 -0.41001954694E+03  0.68817374475E+03  0.00000000000E+00 0. -1.
         22    1    1    2    0    0  0.10133645721E+04 -0.42149274687E+02 -0.27949649053E+04  0.29733000419E+04  0.00000000000E+00 0. -1.
<mgrwt>
<rscale>  0 0.23648998E+04</rscale>
<asrwt>0</asrwt>
<pdfrwt beam="1">  1        2 0.58775042E+00 0.23648998E+04</pdfrwt>
<pdfrwt beam="2">  1       -2 0.56304856E-01 0.23648998E+04</pdfrwt>
<totfact> 0.12699986E+00</totfact>
</mgrwt>
</event>
<event>
 6    1  0.1780144E-005  0.7231542E+03  0.7818608E-02  0.9678435E-01
          3   -1    0    0  501    0  0.00000000000E+00  0.00000000000E+00  0.26016480552E+04  0.26016480552E+04  0.00000000000E+00 0. -1.
         -3   -1    0    0    0  501 -0.00000000000E+00 -0.00000000000E+00 -0.50251998934E+02  0.50251998934E+02  0.00000000000E+00 0.  1.
         23    2    1    2    0    0 -0.23191291596E+03 -0.21316943603E+03  0.19013827005E+04  0.19295828304E+04  0.93855828238E+02 0.  0.
         13    1    3    3    0    0 -0.28985290038E+02 -0.70852278468E+02  0.59400752582E+03  0.59891997223E+03  0.00000000000E+00 0. -1.
        -13    1    3    3    0    0 -0.20292762592E+03 -0.14231715757E+03  0.13073751747E+04  0.13306628582E+04  0.00000000000E+00 0.  1.
         22    1    1    2    0    0  0.23191291596E+03  0.21316943603E+03  0.65001335572E+03  0.72231722370E+03  0.00000000000E+00 0.  1.
<mgrwt>
<rscale>  0 0.72315424E+03</rscale>
<asrwt>0</asrwt>
<pdfrwt beam="1">  1        3 0.40025344E+00 0.72315424E+03</pdfrwt>
<pdfrwt beam="2">  1       -3 0.77310788E-02 0.72315424E+03</pdfrwt>
<totfact> 0.36364410E+00</totfact>
</mgrwt>
</event>
<event>
 6    1  0.1780144E-005  0.1986139E+04  0.7818608E-02  0.8613129E-01
         -1   -1    0    0    0  501 -0.00000000000E+00  0.00000000000E+00  0.31402129346E+03  0.31402129346E+03  0.00000000000E+00 0.  1.
          1   -1    0    0  501    0  0.00000000000E+00 -0.00000000000E+00 -0.31405088103E+04  0.31405088103E+04  0.00000000000E+00 0. -1.
         23    2    1    2    0    0 -0.31375206906E+03 -0.93869990388E+03 -0.15007951872E+04  0.18001244633E+04  0.92000103174E+02 0.  0.
         13    1    3    3    0    0 -0.17321481190E+03 -0.55231877963E+03 -0.79673837869E+03  0.98481036219E+03  0.00000000000E+00 0. -1.
        -13    1    3    3    0    0 -0.14053725716E+03 -0.38638112425E+03 -0.70405680853E+03  0.81531410111E+03  0.00000000000E+00 0.  1.
         22    1    1    2    0    0  0.31375206906E+03  0.93869990388E+03 -0.13256923296E+04  0.16544056404E+04  0.00000000000E+00 0.  1.
<mgrwt>
<rscale>  0 0.19861386E+04</rscale>
<asrwt>0</asrwt>
<pdfrwt beam="1">  1        1 0.48315520E+00 0.19861386E+04</pdfrwt>
<pdfrwt beam="2">  1       -1 0.48310968E-01 0.19861386E+04</pdfrwt>
<totfact> 0.18788225E+00</totfact>
</mgrwt>
</event>
<event>
 6    1  0.1780144E-005  0.1267052E+04  0.7818608E-02  0.9056109E-01
         -2   -1    0    0    0  501 -0.00000000000E+00  0.00000000000E+00  0.18252244293E+04  0.18252244293E+04  0.00000000000E+00 0.  1.
          2   -1    0    0  501    0  0.00000000000E+00 -0.00000000000E+00 -0.21989373026E+03  0.21989373026E+03  0.00000000000E+00 0. -1.
         23    2    1    2    0    0  0.10354736079E+03  0.31148071182E+03 -0.61616702111E+02  0.34616085346E+03  0.91040808037E+02 0.  0.
         13    1    3    3    0    0  0.90004664771E+02  0.13596267356E+03 -0.46060578561E+02  0.16943513561E+03  0.00000000000E+00 0.  1.
        -13    1    3    3    0    0  0.13542696015E+02  0.17551803825E+03 -0.15556123550E+02  0.17672571784E+03  0.00000000000E+00 0. -1.
         22    1    1    2    0    0 -0.10354736079E+03 -0.31148071182E+03  0.16669474012E+04  0.16989573061E+04  0.00000000000E+00 0.  1.
<mgrwt>
<rscale>  0 0.12670523E+04</rscale>
<asrwt>0</asrwt>
<pdfrwt beam="1">  1        2 0.33829806E-01 0.12670523E+04</pdfrwt>
<pdfrwt beam="2">  1       -2 0.28080375E+00 0.12670523E+04</pdfrwt>
<totfact> 0.63905479E+00</totfact>
</mgrwt>
</event>
<event>
 6    1  0.1780144E-005  0.2876806E+04  0.7818608E-02  0.8279812E-01
         -2   -1    0    0    0  501 -0.00000000000E+00  0.00000000000E+00  0.63635993315E+03  0.63635993315E+03  0.00000000000E+00 0.  1.
          2   -1    0    0  501    0  0.00000000000E+00 -0.00000000000E+00 -0.32513101135E+04  0.32513101135E+04  0.00000000000E+00 0. -1.
         23    2    1    2    0    0  0.11913441451E+04 -0.77745219711E+03 -0.10354106651E+04  0.17619518454E+04  0.93092798252E+02 0.  0.
         13    1    3    3    0    0  0.80600796636E+03 -0.49962833909E+03 -0.64238691432E+03  0.11453987370E+04  0.00000000000E+00 0.  1.
        -13    1    3    3    0    0  0.38533617878E+03 -0.27782385802E+03 -0.39302375079E+03  0.61655310837E+03  0.00000000000E+00 0. -1.
         22    1    1    2    0    0 -0.11913441451E+04  0.77745219711E+03 -0.15795395152E+04  0.21257182012E+04  0.00000000000E+00 0. -1.
<mgrwt>
<rscale>  0 0.28768062E+04</rscale>
<asrwt>0</asrwt>
<pdfrwt beam="1">  1        2 0.50020156E+00 0.28768062E+04</pdfrwt>
<pdfrwt beam="2">  1       -2 0.97901527E-01 0.28768062E+04</pdfrwt>
<totfact> 0.90064086E-01</totfact>
</mgrwt>
</event>
<event>
 6    1  0.1780144E-005  0.9636864E+03  0.7818608E-02  0.9349295E-01
         -2   -1    0    0    0  501 -0.00000000000E+00  0.00000000000E+00  0.28295242139E+03  0.28295242139E+03  0.00000000000E+00 0.  1.
          2   -1    0    0  501    0  0.00000000000E+00 -0.00000000000E+00 -0.82053677814E+03  0.82053677814E+03  0.00000000000E+00 0. -1.
         23    2    1    2    0    0 -0.26611093990E+03 -0.11390978171E+03 -0.70616285063E+03  0.76851281334E+03  0.90307817766E+02 0.  0.
         11    1    3    3    0    0 -0.46236977896E+02 -0.54891950516E+02 -0.22584498938E+03  0.23697456316E+03  0.00000000000E+00 0. -1.
        -11    1    3    3    0    0 -0.21987396201E+03 -0.59017831195E+02 -0.48031786125E+03  0.53153825018E+03  0.00000000000E+00 0.  1.
         22    1    1    2    0    0  0.26611093990E+03  0.11390978171E+03  0.16857849388E+03  0.33497638619E+03  0.00000000000E+00 0.  1.
<mgrwt>
<rscale>  0 0.96368640E+03</rscale>
<asrwt>0</asrwt>
<pdfrwt beam="1">  1        2 0.12623643E+00 0.96368640E+03</pdfrwt>
<pdfrwt beam="2">  1       -2 0.43531142E-01 0.96368640E+03</pdfrwt>
<totfact> 0.16656531E+02</totfact>
</mgrwt>
</event>
<event>
 6    1  0.1780144E-005  0.1515575E+04  0.7818608E-02  0.8874161E-01
         -1   -1    0    0    0  501 -0.00000000000E+00  0.00000000000E+00  0.74345544778E+03  0.74345544778E+03  0.00000000000E+00 0.  1.
          1   -1    0    0  501    0  0.00000000000E+00 -0.00000000000E+00 -0.77239583730E+03  0.77239583730E+03  0.00000000000E+00 0. -1.
         23    2    1    2    0    0 -0.47627387773E+03  0.46336539387E+03  0.34417455455E+03  0.75377579253E+03  0.90429677481E+02 0.  0.
         11    1    3    3    0    0 -0.22280786854E+03  0.27942222070E+03  0.17856674166E+03  0.39950745292E+03  0.00000000000E+00 0.  1.
        -11    1    3    3    0    0 -0.25346600919E+03  0.18394317317E+03  0.16560781288E+03  0.35426833962E+03  0.00000000000E+00 0. -1.
         22    1    1    2    0    0  0.47627387773E+03 -0.46336539387E+03 -0.37311494407E+03  0.76207549254E+03  0.00000000000E+00 0. -1.
<mgrwt>
<rscale>  0 0.15155750E+04</rscale>
<asrwt>0</asrwt>
<pdfrwt beam="1">  1        1 0.11883013E+00 0.15155750E+04</pdfrwt>
<pdfrwt beam="2">  1       -1 0.11437776E+00 0.15155750E+04</pdfrwt>
<totfact> 0.15716062E+01</totfact>
</mgrwt>
</event>
<event>
 6    1  0.1780144E-005  0.1931321E+04  0.7818608E-02  0.8639421E-01
          3   -1    0    0  501    0  0.00000000000E+00  0.00000000000E+00  0.44638875649E+03  0.44638875649E+03  0.00000000000E+00 0. -1.
         -3   -1    0    0    0  501 -0.00000000000E+00 -0.00000000000E+00 -0.20889864463E+04  0.20889864463E+04  0.00000000000E+00 0.  1.
         23    2    1    2    0    0 -0.34870588503E+03 -0.58241844701E+03  0.73986628098E+02  0.68944216984E+03  0.95128558995E+02 0.  0.
         11    1    3    3    0    0 -0.18695564033E+03 -0.23031196294E+03  0.53437071833E+02  0.30141587943E+03  0.00000000000E+00 0.  1.
        -11    1    3    3    0    0 -0.16175024470E+03 -0.35210648407E+03  0.20549556265E+02  0.38802629041E+03  0.00000000000E+00 0. -1.
         22    1    1    2    0    0  0.34870588503E+03  0.58241844701E+03 -0.17165843179E+04  0.18459330329E+04  0.00000000000E+00 0.  1.
<mgrwt>
<rscale>  0 0.19313209E+04</rscale>
<asrwt>0</asrwt>
<pdfrwt beam="1">  1        3 0.68675194E-01 0.19313209E+04</pdfrwt>
<pdfrwt beam="2">  1       -3 0.32138253E+00 0.19313209E+04</pdfrwt>
<totfact> 0.14370529E-01</totfact>
</mgrwt>
</event>
<event>
 6    1  0.1780144E-005  0.2541252E+04  0.7818608E-02  0.8388435E-01
          2   -1    0    0  501    0  0.00000000000E+00  0.00000000000E+00  0.20390546274E+04  0.20390546274E+04  0.00000000000E+00 0.  1.
         -2   -1    0    0    0  501 -0.00000000000E+00 -0.00000000000E+00 -0.79178406448E+03  0.79178406448E+03  0.00000000000E+00 0. -1.
         23    2    1    2    0    0 -0.49184909038E+03  0.15374732318E+03 -0.66735957156E+03  0.84807236198E+03  0.91127198565E+02 0.  0.
         11    1    3    3    0    0 -0.43054229858E+03  0.14968062937E+03 -0.53996339974E+03  0.70663387602E+03  0.00000000000E+00 0.  1.
        -11    1    3    3    0    0 -0.61306791805E+02  0.40666938116E+01 -0.12739617181E+03  0.14143848597E+03  0.00000000000E+00 0. -1.
         22    1    1    2    0    0  0.49184909038E+03 -0.15374732318E+03  0.19146301345E+04  0.19827663299E+04  0.00000000000E+00 0.  1.
<mgrwt>
<rscale>  0 0.25412524E+04</rscale>
<asrwt>0</asrwt>
<pdfrwt beam="1">  1        2 0.31370071E+00 0.25412524E+04</pdfrwt>
<pdfrwt beam="2">  1       -2 0.12181293E+00 0.25412524E+04</pdfrwt>
<totfact> 0.28892954E+00</totfact>
</mgrwt>
</event>
<event>
 6    1  0.1780144E-005  0.1768213E+04  0.7818608E-02  0.8723389E-01
          1   -1    0    0  501    0  0.00000000000E+00  0.00000000000E+00  0.10914266625E+04  0.10914266625E+04  0.00000000000E+00 0. -1.
         -1   -1    0    0    0  501 -0.00000000000E+00 -0.00000000000E+00 -0.71616725832E+03  0.71616725832E+03  0.00000000000E+00 0.  1.
         23    2    1    2    0    0  0.48364966721E+03  0.60314872354E+03  0.62141499595E+03  0.99623829062E+03  0.92891071690E+02 0.  0.
         11    1    3    3    0    0  0.22408811857E+03  0.34152350266E+03  0.29414875872E+03  0.50336595039E+03  0.00000000000E+00 0.  1.
        -11    1    3    3    0    0  0.25956154864E+03  0.26162522088E+03  0.32726623723E+03  0.49287234023E+03  0.00000000000E+00 0. -1.
         22    1    1    2    0    0 -0.48364966721E+03 -0.60314872354E+03 -0.24615559178E+03  0.81135563020E+03  0.00000000000E+00 0.  1.
<mgrwt>
<rscale>  0 0.17682127E+04</rscale>
<asrwt>0</asrwt>
<pdfrwt beam="1">  1        1 0.16791179E+00 0.17682127E+04</pdfrwt>
<pdfrwt beam="2">  1       -1 0.11017958E+00 0.17682127E+04</pdfrwt>
<totfact> 0.92583550E+00</totfact>
</mgrwt>
</event>
<event>
 6    1  0.1780144E-005  0.1282835E+04  0.7818608E-02  0.9043289E-01
          1   -1    0    0  501    0  0.00000000000E+00  0.00000000000E+00  0.30591290068E+03  0.30591290068E+03  0.00000000000E+00 0. -1.
         -1   -1    0    0    0  501 -0.00000000000E+00 -0.00000000000E+00 -0.13448802337E+04  0.13448802337E+04  0.00000000000E+00 0.  1.
         23    2    1    2    0    0 -0.54805193691E+03  0.95071182918E+02 -0.12049274413E+03  0.57701707494E+03  0.95030247903E+02 0.  0.
         11    1    3    3    0    0 -0.26895666551E+03  0.28463500236E+00 -0.44347088588E+02  0.27258839522E+03  0.00000000000E+00 0. -1.
        -11    1    3    3    0    0 -0.27909527139E+03  0.94786547915E+02 -0.76145655547E+02  0.30442867973E+03  0.00000000000E+00 0.  1.
         22    1    1    2    0    0  0.54805193691E+03 -0.95071182918E+02 -0.91847458885E+03  0.10737760594E+04  0.00000000000E+00 0.  1.
<mgrwt>
<rscale>  0 0.12828347E+04</rscale>
<asrwt>0</asrwt>
<pdfrwt beam="1">  1        1 0.47063523E-01 0.12828347E+04</pdfrwt>
<pdfrwt beam="2">  1       -1 0.20690465E+00 0.12828347E+04</pdfrwt>
<totfact> 0.11348609E+01</totfact>
</mgrwt>
</event>
<event>
 6    1  0.1780144E-005  0.3882459E+04  0.7818608E-02  0.8028687E-01
          2   -1    0    0  501    0  0.00000000000E+00  0.00000000000E+00  0.16758313189E+04  0.16758313189E+04  0.00000000000E+00 0. -1.
         -2   -1    0    0    0  501 -0.00000000000E+00 -0.00000000000E+00 -0.22486583590E+04  0.22486583590E+04  0.00000000000E+00 0.  1.
         23    2    1    2    0    0  0.18432760148E+04 -0.36784309718E+03 -0.77257202450E+03  0.20342851731E+04  0.92052276054E+02 0.  0.
         13    1    3    3    0    0  0.48397749160E+03 -0.57528316249E+02 -0.18654169341E+03  0.52186350986E+03  0.00000000000E+00 0.  1.
        -13    1    3    3    0    0  0.13592985232E+04 -0.31031478093E+03 -0.58603033109E+03  0.15124216633E+04  0.00000000000E+00 0. -1.
         22    1    1    2    0    0 -0.18432760148E+04  0.36784309718E+03  0.19974498437E+03  0.18902045047E+04  0.00000000000E+00 0. -1.
<mgrwt>
<rscale>  0 0.38824591E+04</rscale>
<asrwt>0</asrwt>
<pdfrwt beam="1">  1        2 0.25782020E+00 0.38824591E+04</pdfrwt>
<pdfrwt beam="2">  1       -2 0.34594744E+00 0.38824591E+04</pdfrwt>
<totfact> 0.13289144E-01</totfact>
</mgrwt>
</event>
<event>
 6    1  0.1780144E-005  0.1856440E+04  0.7818608E-02  0.8676848E-01
          3   -1    0    0  501    0  0.00000000000E+00  0.00000000000E+00  0.16640814010E+04  0.16640814010E+04  0.00000000000E+00 0. -1.
         -3   -1    0    0    0  501 -0.00000000000E+00 -0.00000000000E+00 -0.51775829400E+03  0.51775829400E+03  0.00000000000E+00 0.  1.
         23    2    1    2    0    0 -0.21067227703E+03 -0.17418917830E+03 -0.46194409377E+03  0.55050647729E+03  0.12223075565E+03 0.  0.
         13    1    3    3    0    0 -0.57707487613E+02 -0.85377811012E+02 -0.27245636721E+03  0.29129366072E+03  0.00000000000E+00 0.  1.
        -13    1    3    3    0    0 -0.15296478941E+03 -0.88811367288E+02 -0.18948772656E+03  0.25921281657E+03  0.00000000000E+00 0. -1.
         22    1    1    2    0    0  0.21067227703E+03  0.17418917830E+03  0.16082672008E+04  0.16313332177E+04  0.00000000000E+00 0. -1.
<mgrwt>
<rscale>  0 0.18564395E+04</rscale>
<asrwt>0</asrwt>
<pdfrwt beam="1">  1        3 0.25601252E+00 0.18564395E+04</pdfrwt>
<pdfrwt beam="2">  1       -3 0.79655123E-01 0.18564395E+04</pdfrwt>
<totfact> 0.24644800E-01</totfact>
</mgrwt>
</event>
<event>
 6    1  0.1780144E-005  0.2332906E+04  0.7818608E-02  0.8465059E-01
          3   -1    0    0  501    0  0.00000000000E+00  0.00000000000E+00  0.84213572583E+03  0.84213572583E+03  0.00000000000E+00 0. -1.
         -3   -1    0    0    0  501 -0.00000000000E+00 -0.00000000000E+00 -0.16156691848E+04  0.16156691848E+04  0.00000000000E+00 0.  1.
         23    2    1    2    0    0 -0.48845230468E+03  0.82844137526E+03  0.30659510647E+03  0.10115758541E+04  0.66214673546E+02 0.  0.
         11    1    3    3    0    0 -0.15974513259E+03  0.24110929575E+03  0.11998444720E+03  0.31312691908E+03  0.00000000000E+00 0. -1.
        -11    1    3    3    0    0 -0.32870717209E+03  0.58733207951E+03  0.18661065928E+03  0.69844893497E+03  0.00000000000E+00 0.  1.
         22    1    1    2    0    0  0.48845230468E+03 -0.82844137526E+03 -0.10801285655E+04  0.14462290566E+04  0.00000000000E+00 0.  1.
<mgrwt>
<rscale>  0 0.23329061E+04</rscale>
<asrwt>0</asrwt>
<pdfrwt beam="1">  1        3 0.12955934E+00 0.23329061E+04</pdfrwt>
<pdfrwt beam="2">  1       -3 0.24856449E+00 0.23329061E+04</pdfrwt>
<totfact> 0.82428723E-02</totfact>
</mgrwt>
</event>
<event>
 6    1  0.1780144E-005  0.8335026E+03  0.7818608E-02  0.9512751E-01
          1   -1    0    0  501    0  0.00000000000E+00  0.00000000000E+00  0.16020077392E+03  0.16020077392E+03  0.00000000000E+00 0. -1.
         -1   -1    0    0    0  501 -0.00000000000E+00 -0.00000000000E+00 -0.10841498877E+04  0.10841498877E+04  0.00000000000E+00 0.  1.
         23    2    1    2    0    0 -0.10372434738E+03  0.29671069365E+02 -0.10610870059E+04  0.10698630859E+04  0.84037347840E+02 0.  0.
         13    1    3    3    0    0 -0.82853097899E+02 -0.15771659543E+02 -0.75809805271E+03  0.76277522155E+03  0.00000000000E+00 0.  1.
        -13    1    3    3    0    0 -0.20871249484E+02  0.45442728908E+02 -0.30298895322E+03  0.30708786436E+03  0.00000000000E+00 0. -1.
         22    1    1    2    0    0  0.10372434738E+03 -0.29671069365E+02  0.13713789217E+03  0.17448757568E+03  0.00000000000E+00 0. -1.
<mgrwt>
<rscale>  0 0.83350261E+03</rscale>
<asrwt>0</asrwt>
<pdfrwt beam="1">  1        1 0.24646273E-01 0.83350261E+03</pdfrwt>
<pdfrwt beam="2">  1       -1 0.16679229E+00 0.83350261E+03</pdfrwt>
<totfact> 0.52423229E+01</totfact>
</mgrwt>
</event>
<event>
 6    1  0.1780144E-005  0.3243027E+04  0.7818608E-02  0.8177545E-01
         -2   -1    0    0    0  501 -0.00000000000E+00  0.00000000000E+00  0.14847660335E+04  0.14847660335E+04  0.00000000000E+00 0.  1.
          2   -1    0    0  501    0  0.00000000000E+00 -0.00000000000E+00 -0.17708550713E+04  0.17708550713E+04  0.00000000000E+00 0. -1.
         23    2    1    2    0    0 -0.69142644975E+03 -0.14478177182E+04 -0.36974426072E+03  0.16489957979E+04  0.90717377706E+02 0.  0.
         11    1    3    3    0    0 -0.20126519660E+03 -0.39858139389E+03 -0.62646746956E+02  0.45088737155E+03  0.00000000000E+00 0.  1.
        -11    1    3    3    0    0 -0.49016125314E+03 -0.10492363243E+04 -0.30709751376E+03  0.11981084263E+04  0.00000000000E+00 0. -1.
         22    1    1    2    0    0  0.69142644975E+03  0.14478177182E+04  0.83655222920E+02  0.16066253069E+04  0.00000000000E+00 0.  1.
<mgrwt>
<rscale>  0 0.32430266E+04</rscale>
<asrwt>0</asrwt>
<pdfrwt beam="1">  1        2 0.27243924E+00 0.32430266E+04</pdfrwt>
<pdfrwt beam="2">  1       -2 0.22842554E+00 0.32430266E+04</pdfrwt>
<totfact> 0.65736270E-01</totfact>
</mgrwt>
</event>
<event>
 6    1  0.1780144E-005  0.2348874E+04  0.7818608E-02  0.8458896E-01
         -2   -1    0    0    0  501 -0.00000000000E+00  0.00000000000E+00  0.81610452408E+03  0.81610452408E+03  0.00000000000E+00 0. -1.
          2   -1    0    0  501    0  0.00000000000E+00 -0.00000000000E+00 -0.16901049782E+04  0.16901049782E+04  0.00000000000E+00 0.  1.
         23    2    1    2    0    0  0.26841522356E+03 -0.10922359986E+03  0.77517283371E+03  0.83176957792E+03  0.83493602333E+02 0.  0.
         11    1    3    3    0    0  0.25713412574E+03 -0.80477015406E+02  0.66965275085E+03  0.72182360404E+03  0.00000000000E+00 0. -1.
        -11    1    3    3    0    0  0.11281097814E+02 -0.28746584456E+02  0.10552008286E+03  0.10994597388E+03  0.00000000000E+00 0.  1.
         22    1    1    2    0    0 -0.26841522356E+03  0.10922359986E+03 -0.16491732878E+04  0.16744399244E+04  0.00000000000E+00 0.  1.
<mgrwt>
<rscale>  0 0.23488740E+04</rscale>
<asrwt>0</asrwt>
<pdfrwt beam="1">  1        2 0.26001615E+00 0.23488740E+04</pdfrwt>
<pdfrwt beam="2">  1       -2 0.12555454E+00 0.23488740E+04</pdfrwt>
<totfact> 0.42533092E+00</totfact>
</mgrwt>
</event>
<event>
 6    1  0.1780144E-005  0.5281469E+04  0.7818608E-02  0.7786496E-01
         -2   -1    0    0    0  501 -0.00000000000E+00  0.00000000000E+00  0.22499447148E+04  0.22499447148E+04  0.00000000000E+00 0.  1.
          2   -1    0    0  501    0  0.00000000000E+00 -0.00000000000E+00 -0.30993998317E+04  0.30993998317E+04  0.00000000000E+00 0. -1.
         23    2    1    2    0    0  0.17287990040E+04 -0.15863779384E+04  0.80069547737E+03  0.24808365818E+04  0.89977431291E+02 0.  0.
         13    1    3    3    0    0  0.11262526763E+04 -0.10326021865E+04  0.47594237281E+03  0.16003854250E+04  0.00000000000E+00 0.  1.
        -13    1    3    3    0    0  0.60254632778E+03 -0.55377575188E+03  0.32475310456E+03  0.88045115674E+03  0.00000000000E+00 0. -1.
         22    1    1    2    0    0 -0.17287990040E+04  0.15863779384E+04 -0.16501505943E+04  0.28685079647E+04  0.00000000000E+00 0. -1.
<mgrwt>
<rscale>  0 0.52814688E+04</rscale>
<asrwt>0</asrwt>
<pdfrwt beam="1">  1        2 0.47683074E+00 0.52814688E+04</pdfrwt>
<pdfrwt beam="2">  1       -2 0.34614534E+00 0.52814688E+04</pdfrwt>
<totfact> 0.17633011E-02</totfact>
</mgrwt>
</event>
<event>
 6    1  0.1780144E-005  0.2171105E+04  0.7818608E-02  0.8530552E-01
         -2   -1    0    0    0  501 -0.00000000000E+00  0.00000000000E+00  0.31843118909E+03  0.31843118909E+03  0.00000000000E+00 0.  1.
          2   -1    0    0  501    0  0.00000000000E+00 -0.00000000000E+00 -0.37007172994E+04  0.37007172994E+04  0.00000000000E+00 0. -1.
         23    2    1    2    0    0  0.37785839322E+03 -0.89599111264E+03 -0.80849404174E+03  0.12677883428E+04  0.89708568466E+02 0.  0.
         13    1    3    3    0    0  0.11967125228E+03 -0.18727815881E+03 -0.18146657477E+03  0.28692235038E+03  0.00000000000E+00 0. -1.
        -13    1    3    3    0    0  0.25818714094E+03 -0.70871295384E+03 -0.62702746697E+03  0.98086599238E+03  0.00000000000E+00 0.  1.
         22    1    1    2    0    0 -0.37785839322E+03  0.89599111264E+03 -0.25737920686E+04  0.27513601457E+04  0.00000000000E+00 0.  1.
<mgrwt>
<rscale>  0 0.21711046E+04</rscale>
<asrwt>0</asrwt>
<pdfrwt beam="1">  1        2 0.56934110E+00 0.21711046E+04</pdfrwt>
<pdfrwt beam="2">  1       -2 0.48989415E-01 0.21711046E+04</pdfrwt>
<totfact> 0.21181677E+00</totfact>
</mgrwt>
</event>
<event>
 6    1  0.1780144E-005  0.2329572E+04  0.7818608E-02  0.8466352E-01
         -2   -1    0    0    0  501 -0.00000000000E+00  0.00000000000E+00  0.13653439351E+04  0.13653439351E+04  0.00000000000E+00 0.  1.
          2   -1    0    0  501    0  0.00000000000E+00 -0.00000000000E+00 -0.99368878475E+03  0.99368878475E+03  0.00000000000E+00 0. -1.
         23    2    1    2    0    0 -0.56939734103E+03 -0.24223155843E+03 -0.81094802582E+03  0.10243268601E+04  0.93377490831E+02 0.  0.
         11    1    3    3    0    0 -0.25035920120E+03 -0.15551089911E+03 -0.40154572762E+03  0.49809872589E+03  0.00000000000E+00 0. -1.
        -11    1    3    3    0    0 -0.31903813983E+03 -0.86720659316E+02 -0.40940229820E+03  0.52622813417E+03  0.00000000000E+00 0.  1.
         22    1    1    2    0    0  0.56939734103E+03  0.24223155843E+03  0.11826031762E+04  0.13347058598E+04  0.00000000000E+00 0.  1.
<mgrwt>
<rscale>  0 0.23295725E+04</rscale>
<asrwt>0</asrwt>
<pdfrwt beam="1">  1        2 0.15287520E+00 0.23295725E+04</pdfrwt>
<pdfrwt beam="2">  1       -2 0.21005291E+00 0.23295725E+04</pdfrwt>
<totfact> 0.26305438E+00</totfact>
</mgrwt>
</event>
<event>
 6    1  0.1780144E-005  0.2317752E+04  0.7818608E-02  0.8470954E-01
         -1   -1    0    0    0  501 -0.00000000000E+00  0.00000000000E+00  0.53670584325E+03  0.53670584325E+03  0.00000000000E+00 0.  1.
          1   -1    0    0  501    0  0.00000000000E+00 -0.00000000000E+00 -0.25022897653E+04  0.25022897653E+04  0.00000000000E+00 0. -1.
         23    2    1    2    0    0  0.70977206810E+03  0.20673451927E+03  0.18303703793E+03  0.76675275627E+03  0.88835138743E+02 0.  0.
         13    1    3    3    0    0  0.40094187523E+03  0.71245079367E+02  0.93302529693E+02  0.41777459316E+03  0.00000000000E+00 0. -1.
        -13    1    3    3    0    0  0.30883019288E+03  0.13548943991E+03  0.89734508235E+02  0.34897816311E+03  0.00000000000E+00 0.  1.
         22    1    1    2    0    0 -0.70977206810E+03 -0.20673451927E+03 -0.21486209600E+04  0.22722428523E+04  0.00000000000E+00 0. -1.
<mgrwt>
<rscale>  0 0.23177520E+04</rscale>
<asrwt>0</asrwt>
<pdfrwt beam="1">  1        1 0.38496766E+00 0.23177520E+04</pdfrwt>
<pdfrwt beam="2">  1       -1 0.82570129E-01 0.23177520E+04</pdfrwt>
<totfact> 0.17755258E+00</totfact>
</mgrwt>
</event>
<event>
 6    1  0.1780144E-005  0.1974748E+04  0.7818608E-02  0.8618519E-01
         -1   -1    0    0    0  501 -0.00000000000E+00  0.00000000000E+00  0.28618715409E+04  0.28618715409E+04  0.00000000000E+00 0.  1.
          1   -1    0    0  501    0  0.00000000000E+00 -0.00000000000E+00 -0.34065375062E+03  0.34065375062E+03  0.00000000000E+00 0. -1.
         23    2    1    2    0    0  0.64493936059E+03 -0.73342376952E+03  0.10542952303E+04  0.14402202664E+04  0.94014778712E+02 0.  0.
         13    1    3    3    0    0  0.22519276386E+03 -0.32367375152E+03  0.40699130532E+03  0.56667309882E+03  0.00000000000E+00 0. -1.
        -13    1    3    3    0    0  0.41974659672E+03 -0.40975001800E+03  0.64730392501E+03  0.87354716761E+03  0.00000000000E+00 0.  1.
         22    1    1    2    0    0 -0.64493936059E+03  0.73342376952E+03  0.14669225599E+04  0.17623050250E+04  0.00000000000E+00 0.  1.
<mgrwt>
<rscale>  0 0.19747479E+04</rscale>
<asrwt>0</asrwt>
<pdfrwt beam="1">  1        1 0.52408271E-01 0.19747479E+04</pdfrwt>
<pdfrwt beam="2">  1       -1 0.44028791E+00 0.19747479E+04</pdfrwt>
<totfact> 0.26085380E-01</totfact>
</mgrwt>
</event>
<event>
 6    1  0.1780144E-005  0.1246905E+04  0.7818608E-02  0.9072763E-01
         -2   -1    0    0    0  501 -0.00000000000E+00  0.00000000000E+00  0.26137791572E+03  0.26137791572E+03  0.00000000000E+00 0.  1.
          2   -1    0    0  501    0  0.00000000000E+00 -0.00000000000E+00 -0.14870913717E+04  0.14870913717E+04  0.00000000000E+00 0. -1.
         23    2    1    2    0    0 -0.46108446292E+03  0.23050631996E+03 -0.13251463257E+03  0.53982719275E+03  0.90117837872E+02 0.  0.
         11    1    3    3    0    0 -0.10630774232E+03  0.97880714934E+02 -0.33331801148E+02  0.14830030142E+03  0.00000000000E+00 0. -1.
        -11    1    3    3    0    0 -0.35477672060E+03  0.13262560502E+03 -0.99182831420E+02  0.39152689133E+03  0.00000000000E+00 0.  1.
         22    1    1    2    0    0  0.46108446292E+03 -0.23050631996E+03 -0.10931988234E+04  0.12086420946E+04  0.00000000000E+00 0. -1.
<mgrwt>
<rscale>  0 0.12469047E+04</rscale>
<asrwt>0</asrwt>
<pdfrwt beam="1">  1        2 0.22878329E+00 0.12469047E+04</pdfrwt>
<pdfrwt beam="2">  1       -2 0.40211986E-01 0.12469047E+04</pdfrwt>
<totfact> 0.74292859E+01</totfact>
</mgrwt>
</event>
<event>
 6    1  0.1780144E-005  0.5293979E+04  0.7818608E-02  0.7784692E-01
          1   -1    0    0  501    0  0.00000000000E+00  0.00000000000E+00  0.24639441923E+04  0.24639441923E+04  0.00000000000E+00 0. -1.
         -1   -1    0    0    0  501 -0.00000000000E+00 -0.00000000000E+00 -0.28436336256E+04  0.28436336256E+04  0.00000000000E+00 0.  1.
         23    2    1    2    0    0 -0.54223844673E+03 -0.14100129128E+03 -0.27827514535E+04  0.28400667297E+04  0.91484861691E+02 0.  0.
         13    1    3    3    0    0 -0.29631537204E+03 -0.30046208877E+02 -0.14391754129E+04  0.14696705221E+04  0.00000000000E+00 0.  1.
        -13    1    3    3    0    0 -0.24592307469E+03 -0.11095508240E+03 -0.13435760406E+04  0.13703962076E+04  0.00000000000E+00 0. -1.
         22    1    1    2    0    0  0.54223844673E+03  0.14100129128E+03  0.24030620202E+04  0.24675110882E+04  0.00000000000E+00 0. -1.
<mgrwt>
<rscale>  0 0.52939794E+04</rscale>
<asrwt>0</asrwt>
<pdfrwt beam="1">  1        1 0.37906834E+00 0.52939794E+04</pdfrwt>
<pdfrwt beam="2">  1       -1 0.43748209E+00 0.52939794E+04</pdfrwt>
<totfact> 0.40056435E-03</totfact>
</mgrwt>
</event>
<event>
 6    1  0.1780144E-005  0.9984129E+03  0.7818608E-02  0.9310287E-01
          2   -1    0    0  501    0  0.00000000000E+00  0.00000000000E+00  0.13730083269E+04  0.13730083269E+04  0.00000000000E+00 0. -1.
         -2   -1    0    0    0  501 -0.00000000000E+00 -0.00000000000E+00 -0.18150443490E+03  0.18150443490E+03  0.00000000000E+00 0.  1.
         23    2    1    2    0    0  0.11532849715E+03 -0.33780633846E+03  0.66743058062E+02  0.37447008540E+03  0.91429888419E+02 0.  0.
         13    1    3    3    0    0  0.37036505638E+02 -0.17571739109E+03  0.74212078420E+02  0.19430835511E+03  0.00000000000E+00 0. -1.
        -13    1    3    3    0    0  0.78291991509E+02 -0.16208894737E+03 -0.74690203577E+01  0.18016173028E+03  0.00000000000E+00 0.  1.
         22    1    1    2    0    0 -0.11532849715E+03  0.33780633846E+03  0.11247608339E+04  0.11800426764E+04  0.00000000000E+00 0. -1.
<mgrwt>
<rscale>  0 0.99841294E+03</rscale>
<asrwt>0</asrwt>
<pdfrwt beam="1">  1        2 0.21123204E+00 0.99841294E+03</pdfrwt>
<pdfrwt beam="2">  1       -2 0.27923760E-01 0.99841294E+03</pdfrwt>
<totfact> 0.17520433E+02</totfact>
</mgrwt>
</event>
<event>
 6    1  0.1780144E-005  0.2222551E+04  0.7818608E-02  0.8509100E-01
         -2   -1    0    0    0  501 -0.00000000000E+00  0.00000000000E+00  0.10009450406E+04  0.10009450406E+04  0.00000000000E+00 0.  1.
          2   -1    0    0  501    0  0.00000000000E+00 -0.00000000000E+00 -0.12337672697E+04  0.12337672697E+04  0.00000000000E+00 0. -1.
         23    2    1    2    0    0  0.65995960568E+03 -0.85605029379E+03  0.13451308489E+03  0.10930888962E+04  0.91546591073E+02 0.  0.
         13    1    3    3    0    0  0.52237672942E+03 -0.70468065592E+03  0.76743116218E+02  0.88053493977E+03  0.00000000000E+00 0.  1.
        -13    1    3    3    0    0  0.13758287626E+03 -0.15136963787E+03  0.57769968677E+02  0.21255395642E+03  0.00000000000E+00 0. -1.
         22    1    1    2    0    0 -0.65995960568E+03  0.85605029379E+03 -0.36733531403E+03  0.11416234141E+04  0.00000000000E+00 0. -1.
<mgrwt>
<rscale>  0 0.22225510E+04</rscale>
<asrwt>0</asrwt>
<pdfrwt beam="1">  1        2 0.18981035E+00 0.22225510E+04</pdfrwt>
<pdfrwt beam="2">  1       -2 0.15399155E+00 0.22225510E+04</pdfrwt>
<totfact> 0.46095344E+00</totfact>
</mgrwt>
</event>
<event>
 6    1  0.1780144E-005  0.3697114E+04  0.7818608E-02  0.8068602E-01
         -1   -1    0    0    0  501 -0.00000000000E+00  0.00000000000E+00  0.21702289136E+04  0.21702289136E+04  0.00000000000E+00 0. -1.
          1   -1    0    0  501    0  0.00000000000E+00 -0.00000000000E+00 -0.15745630974E+04  0.15745630974E+04  0.00000000000E+00 0.  1.
         23    2    1    2    0    0 -0.17535870857E+04  0.27469869292E+03 -0.22087782946E+03  0.17910083575E+04  0.91634502555E+02 0.  0.
         11    1    3    3    0    0 -0.14772763257E+04  0.25388665404E+03 -0.16135431976E+03  0.15075937755E+04  0.00000000000E+00 0. -1.
        -11    1    3    3    0    0 -0.27631076005E+03  0.20812038882E+02 -0.59523509703E+02  0.28341458200E+03  0.00000000000E+00 0.  1.
         22    1    1    2    0    0  0.17535870857E+04 -0.27469869292E+03  0.81654364561E+03  0.19537836534E+04  0.00000000000E+00 0. -1.
<mgrwt>
<rscale>  0 0.36971137E+04</rscale>
<asrwt>0</asrwt>
<pdfrwt beam="1">  1        1 0.24224048E+00 0.36971137E+04</pdfrwt>
<pdfrwt beam="2">  1       -1 0.33388137E+00 0.36971137E+04</pdfrwt>
<totfact> 0.92526401E-02</totfact>
</mgrwt>
</event>
<event>
 6    1  0.1780144E-005  0.1790547E+04  0.7818608E-02  0.8711343E-01
          2   -1    0    0  501    0  0.00000000000E+00  0.00000000000E+00  0.17140122368E+04  0.17140122368E+04  0.00000000000E+00 0.  1.
         -2   -1    0    0    0  501 -0.00000000000E+00 -0.00000000000E+00 -0.46762475203E+03  0.46762475203E+03  0.00000000000E+00 0. -1.
         23    2    1    2    0    0  0.36914427170E+03  0.59056538161E+03 -0.59301896447E+02  0.70181952594E+03  0.63237400221E+02 0.  0.
         13    1    3    3    0    0  0.21042397952E+03  0.38954312025E+03 -0.25608049901E+02  0.44348378314E+03  0.00000000000E+00 0. -1.
        -13    1    3    3    0    0  0.15872029219E+03  0.20102226135E+03 -0.33693846546E+02  0.25833574280E+03  0.00000000000E+00 0.  1.
         22    1    1    2    0    0 -0.36914427170E+03 -0.59056538161E+03  0.13056893813E+04  0.14798174629E+04  0.00000000000E+00 0.  1.
<mgrwt>
<rscale>  0 0.17905469E+04</rscale>
<asrwt>0</asrwt>
<pdfrwt beam="1">  1        2 0.26369419E+00 0.17905469E+04</pdfrwt>
<pdfrwt beam="2">  1       -2 0.71942270E-01 0.17905469E+04</pdfrwt>
<totfact> 0.15929918E+01</totfact>
</mgrwt>
</event>
<event>
 6    1  0.1780144E-005  0.8547126E+03  0.7818608E-02  0.9484034E-01
         -1   -1    0    0    0  501 -0.00000000000E+00  0.00000000000E+00  0.20809425494E+03  0.20809425494E+03  0.00000000000E+00 0.  1.
          1   -1    0    0  501    0  0.00000000000E+00 -0.00000000000E+00 -0.87764749452E+03  0.87764749452E+03  0.00000000000E+00 0. -1.
         23    2    1    2    0    0  0.20209883712E+03  0.12187295505E+03 -0.78331122883E+03  0.82375351069E+03  0.96417882226E+02 0.  0.
         11    1    3    3    0    0  0.20998738027E+03  0.10178683508E+03 -0.71613863016E+03  0.75319970611E+03  0.00000000000E+00 0. -1.
        -11    1    3    3    0    0 -0.78885431478E+01  0.20086119971E+02 -0.67172598669E+02  0.70553804578E+02  0.00000000000E+00 0.  1.
         22    1    1    2    0    0 -0.20209883712E+03 -0.12187295505E+03  0.11375798926E+03  0.26198823878E+03  0.00000000000E+00 0.  1.
<mgrwt>
<rscale>  0 0.85471259E+03</rscale>
<asrwt>0</asrwt>
<pdfrwt beam="1">  1        1 0.13502269E+00 0.85471259E+03</pdfrwt>
<pdfrwt beam="2">  1       -1 0.32014501E-01 0.85471259E+03</pdfrwt>
<totfact> 0.17412732E+02</totfact>
</mgrwt>
</event>
<event>
 6    1  0.1780144E-005  0.3332334E+04  0.7818608E-02  0.8154716E-01
         -1   -1    0    0    0  501 -0.00000000000E+00  0.00000000000E+00  0.66451704599E+03  0.66451704599E+03  0.00000000000E+00 0.  1.
          1   -1    0    0  501    0  0.00000000000E+00 -0.00000000000E+00 -0.41776395764E+04  0.41776395764E+04  0.00000000000E+00 0. -1.
         23    2    1    2    0    0 -0.13259986385E+04 -0.42549910505E+03 -0.43211274954E+03  0.14610409563E+04  0.92722004431E+02 0.  0.
         11    1    3    3    0    0 -0.99139148916E+03 -0.27729248649E+03 -0.30593028757E+03  0.10739374045E+04  0.00000000000E+00 0.  1.
        -11    1    3    3    0    0 -0.33460714929E+03 -0.14820661856E+03 -0.12618246196E+03  0.38710355184E+03  0.00000000000E+00 0. -1.
         22    1    1    2    0    0  0.13259986385E+04  0.42549910505E+03 -0.30810097809E+04  0.33811156661E+04  0.00000000000E+00 0. -1.
<mgrwt>
<rscale>  0 0.33323341E+04</rscale>
<asrwt>0</asrwt>
<pdfrwt beam="1">  1        1 0.64271379E+00 0.33323341E+04</pdfrwt>
<pdfrwt beam="2">  1       -1 0.10223339E+00 0.33323341E+04</pdfrwt>
<totfact> 0.49604043E-02</totfact>
</mgrwt>
</event>
<event>
 6    1  0.1780144E-005  0.4442770E+04  0.7818608E-02  0.7920733E-01
          2   -1    0    0  501    0  0.00000000000E+00  0.00000000000E+00  0.27392747067E+04  0.27392747067E+04  0.00000000000E+00 0. -1.
         -2   -1    0    0    0  501 -0.00000000000E+00 -0.00000000000E+00 -0.18014078966E+04  0.18014078966E+04  0.00000000000E+00 0.  1.
         23    2    1    2    0    0  0.20941684318E+04  0.51097379584E+03  0.10134495634E+04  0.23837522860E+04  0.92516501434E+02 0.  0.
         11    1    3    3    0    0  0.99599940014E+03  0.24493182669E+03  0.53326697584E+03  0.11560190623E+04  0.00000000000E+00 0. -1.
        -11    1    3    3    0    0  0.10981690316E+04  0.26604196915E+03  0.48018258752E+03  0.12277332238E+04  0.00000000000E+00 0.  1.
         22    1    1    2    0    0 -0.20941684318E+04 -0.51097379584E+03 -0.75582753223E+02  0.21569303172E+04  0.00000000000E+00 0.  1.
<mgrwt>
<rscale>  0 0.44427699E+04</rscale>
<asrwt>0</asrwt>
<pdfrwt beam="1">  1        2 0.42142688E+00 0.44427699E+04</pdfrwt>
<pdfrwt beam="2">  1       -2 0.27713968E+00 0.44427699E+04</pdfrwt>
<totfact> 0.83939011E-02</totfact>
</mgrwt>
</event>
<event>
 6    1  0.1780144E-005  0.4251621E+04  0.7818608E-02  0.7955625E-01
          1   -1    0    0  501    0  0.00000000000E+00  0.00000000000E+00  0.24018804938E+04  0.24018804938E+04  0.00000000000E+00 0. -1.
         -1   -1    0    0    0  501 -0.00000000000E+00 -0.00000000000E+00 -0.18814714366E+04  0.18814714366E+04  0.00000000000E+00 0.  1.
         23    2    1    2    0    0  0.11640564830E+04 -0.81587916258E+03 -0.13307940047E+04  0.19493341327E+04  0.90579104694E+02 0.  0.
         13    1    3    3    0    0  0.36066083730E+03 -0.30484192315E+03 -0.44075036406E+03  0.64596108326E+03  0.00000000000E+00 0. -1.
        -13    1    3    3    0    0  0.80339564570E+03 -0.51103723943E+03 -0.89004364069E+03  0.13033730494E+04  0.00000000000E+00 0.  1.
         22    1    1    2    0    0 -0.11640564830E+04  0.81587916258E+03  0.18512030619E+04  0.23340177977E+04  0.00000000000E+00 0. -1.
<mgrwt>
<rscale>  0 0.42516207E+04</rscale>
<asrwt>0</asrwt>
<pdfrwt beam="1">  1        1 0.36952008E+00 0.42516207E+04</pdfrwt>
<pdfrwt beam="2">  1       -1 0.28945714E+00 0.42516207E+04</pdfrwt>
<totfact> 0.46946261E-02</totfact>
</mgrwt>
</event>
<event>
 6    1  0.1780144E-005  0.2447616E+04  0.7818608E-02  0.8421889E-01
         -2   -1    0    0    0  501 -0.00000000000E+00  0.00000000000E+00  0.10197168337E+04  0.10197168337E+04  0.00000000000E+00 0.  1.
          2   -1    0    0  501    0  0.00000000000E+00 -0.00000000000E+00 -0.14687470934E+04  0.14687470934E+04  0.00000000000E+00 0. -1.
         23    2    1    2    0    0 -0.47941092751E+03  0.75420252919E+03  0.62249713317E+03  0.10931764133E+04  0.94210919838E+02 0.  0.
         11    1    3    3    0    0 -0.15829140030E+03  0.30757815651E+03  0.20008322801E+03  0.39961705156E+03  0.00000000000E+00 0. -1.
        -11    1    3    3    0    0 -0.32111952721E+03  0.44662437269E+03  0.42241390517E+03  0.69355936178E+03  0.00000000000E+00 0.  1.
         22    1    1    2    0    0  0.47941092751E+03 -0.75420252919E+03 -0.10715273928E+04  0.13952875137E+04  0.00000000000E+00 0. -1.
<mgrwt>
<rscale>  0 0.24476161E+04</rscale>
<asrwt>0</asrwt>
<pdfrwt beam="1">  1        2 0.22596109E+00 0.24476161E+04</pdfrwt>
<pdfrwt beam="2">  1       -2 0.15687951E+00 0.24476161E+04</pdfrwt>
<totfact> 0.31476337E+00</totfact>
</mgrwt>
</event>
<event>
 6    1  0.1780144E-005  0.1684408E+04  0.7818608E-02  0.8770307E-01
         -2   -1    0    0    0  501 -0.00000000000E+00  0.00000000000E+00  0.17287140454E+03  0.17287140454E+03  0.00000000000E+00 0. -1.
          2   -1    0    0  501    0  0.00000000000E+00 -0.00000000000E+00 -0.41030935057E+04  0.41030935057E+04  0.00000000000E+00 0.  1.
         23    2    1    2    0    0  0.76064592163E+03 -0.91364444376E+02 -0.10975873423E+04  0.13415570727E+04  0.90264752679E+02 0.  0.
         13    1    3    3    0    0  0.69270185465E+03 -0.56903934103E+02 -0.99792175074E+03  0.12161092623E+04  0.00000000000E+00 0. -1.
        -13    1    3    3    0    0  0.67944066984E+02 -0.34460510274E+02 -0.99665591519E+02  0.12544781042E+03  0.00000000000E+00 0.  1.
         22    1    1    2    0    0 -0.76064592163E+03  0.91364444376E+02 -0.28326347589E+04  0.29344078375E+04  0.00000000000E+00 0. -1.
<mgrwt>
<rscale>  0 0.16844080E+04</rscale>
<asrwt>0</asrwt>
<pdfrwt beam="1">  1        2 0.63124515E+00 0.16844080E+04</pdfrwt>
<pdfrwt beam="2">  1       -2 0.26595601E-01 0.16844080E+04</pdfrwt>
<totfact> 0.35021014E+00</totfact>
</mgrwt>
</event>
<event>
 6    1  0.1780144E-005  0.2963734E+04  0.7818608E-02  0.8254163E-01
          2   -1    0    0  501    0  0.00000000000E+00  0.00000000000E+00  0.14034351776E+04  0.14034351776E+04  0.00000000000E+00 0. -1.
         -2   -1    0    0    0  501 -0.00000000000E+00 -0.00000000000E+00 -0.15646822442E+04  0.15646822442E+04  0.00000000000E+00 0.  1.
         23    2    1    2    0    0 -0.11250497100E+04  0.95840132986E+03 -0.14057409998E+01  0.14815713550E+04  0.10383518114E+03 0.  0.
         11    1    3    3    0    0 -0.26381958303E+03  0.17419503205E+03  0.17782440974E+02  0.31664001135E+03  0.00000000000E+00 0.  1.
        -11    1    3    3    0    0 -0.86123012702E+03  0.78420629781E+03 -0.19188181973E+02  0.11649313437E+04  0.00000000000E+00 0. -1.
         22    1    1    2    0    0  0.11250497100E+04 -0.95840132986E+03 -0.15984132554E+03  0.14865460667E+04  0.00000000000E+00 0.  1.
<mgrwt>
<rscale>  0 0.29637342E+04</rscale>
<asrwt>0</asrwt>
<pdfrwt beam="1">  1        2 0.21591310E+00 0.29637342E+04</pdfrwt>
<pdfrwt beam="2">  1       -2 0.24072034E+00 0.29637342E+04</pdfrwt>
<totfact> 0.90681537E-01</totfact>
</mgrwt>
</event>
<event>
 6    1  0.1780144E-005  0.5015858E+04  0.7818608E-02  0.7826066E-01
          2   -1    0    0  501    0  0.00000000000E+00  0.00000000000E+00  0.26494323328E+04  0.26494323328E+04  0.00000000000E+00 0. -1.
         -2   -1    0    0    0  501 -0.00000000000E+00 -0.00000000000E+00 -0.23739830897E+04  0.23739830897E+04  0.00000000000E+00 0.  1.
         23    2    1    2    0    0 -0.24037982812E+03 -0.16851072856E+04  0.19812725205E+04  0.26136017202E+04  0.90022915391E+02 0.  0.
         11    1    3    3    0    0 -0.15229934665E+03 -0.13292716468E+04  0.15535415511E+04  0.20502803596E+04  0.00000000000E+00 0. -1.
        -11    1    3    3    0    0 -0.88080481473E+02 -0.35583563875E+03  0.42773096948E+03  0.56332136057E+03  0.00000000000E+00 0.  1.
         22    1    1    2    0    0  0.24037982812E+03  0.16851072856E+04 -0.17058232775E+04  0.24098137023E+04  0.00000000000E+00 0.  1.
<mgrwt>
<rscale>  0 0.50158579E+04</rscale>
<asrwt>0</asrwt>
<pdfrwt beam="1">  1        2 0.40760497E+00 0.50158579E+04</pdfrwt>
<pdfrwt beam="2">  1       -2 0.36522817E+00 0.50158579E+04</pdfrwt>
<totfact> 0.25774057E-02</totfact>
</mgrwt>
</event>
<event>
 6    1  0.1780144E-005  0.2767579E+04  0.7818608E-02  0.8313405E-01
         -2   -1    0    0    0  501 -0.00000000000E+00  0.00000000000E+00  0.16529099669E+04  0.16529099669E+04  0.00000000000E+00 0.  1.
          2   -1    0    0  501    0  0.00000000000E+00 -0.00000000000E+00 -0.11584865614E+04  0.11584865614E+04  0.00000000000E+00 0. -1.
         23    2    1    2    0    0 -0.10396783720E+04  0.15673620287E+03 -0.66401386857E+03  0.12469559661E+04  0.92127136195E+02 0.  0.
         13    1    3    3    0    0 -0.26076036645E+03  0.12394140719E+01 -0.17912787619E+03  0.31636102934E+03  0.00000000000E+00 0. -1.
        -13    1    3    3    0    0 -0.77891800556E+03  0.15549678879E+03 -0.48488599238E+03  0.93059493676E+03  0.00000000000E+00 0.  1.
         22    1    1    2    0    0  0.10396783720E+04 -0.15673620287E+03  0.11584372741E+04  0.15644405622E+04  0.00000000000E+00 0.  1.
<mgrwt>
<rscale>  0 0.27675794E+04</rscale>
<asrwt>0</asrwt>
<pdfrwt beam="1">  1        2 0.17822870E+00 0.27675794E+04</pdfrwt>
<pdfrwt beam="2">  1       -2 0.25429384E+00 0.27675794E+04</pdfrwt>
<totfact> 0.10584973E+00</totfact>
</mgrwt>
</event>
<event>
 6    1  0.1780144E-005  0.2696367E+04  0.7818608E-02  0.8336185E-01
          2   -1    0    0  501    0  0.00000000000E+00  0.00000000000E+00  0.72112215218E+03  0.72112215218E+03  0.00000000000E+00 0. -1.
         -2   -1    0    0    0  501 -0.00000000000E+00 -0.00000000000E+00 -0.25205136650E+04  0.25205136650E+04  0.00000000000E+00 0.  1.
         23    2    1    2    0    0 -0.19542854530E+03 -0.13285308130E+04 -0.77971073229E+03  0.15555351880E+04  0.92490311809E+02 0.  0.
         11    1    3    3    0    0 -0.13038729739E+02 -0.34188439898E+03 -0.17970260990E+03  0.38645566207E+03  0.00000000000E+00 0. -1.
        -11    1    3    3    0    0 -0.18238981556E+03 -0.98664641403E+03 -0.60000812238E+03  0.11690795260E+04  0.00000000000E+00 0.  1.
         22    1    1    2    0    0  0.19542854530E+03  0.13285308130E+04 -0.10196807805E+04  0.16861006292E+04  0.00000000000E+00 0.  1.
<mgrwt>
<rscale>  0 0.26963666E+04</rscale>
<asrwt>0</asrwt>
<pdfrwt beam="1">  1        2 0.11094187E+00 0.26963666E+04</pdfrwt>
<pdfrwt beam="2">  1       -2 0.38777134E+00 0.26963666E+04</pdfrwt>
<totfact> 0.30867085E-01</totfact>
</mgrwt>
</event>
<event>
 6    1  0.1780144E-005  0.3194266E+04  0.7818608E-02  0.8190333E-01
         -2   -1    0    0    0  501 -0.00000000000E+00  0.00000000000E+00  0.11689599518E+04  0.11689599518E+04  0.00000000000E+00 0.  1.
          2   -1    0    0  501    0  0.00000000000E+00 -0.00000000000E+00 -0.21821399895E+04  0.21821399895E+04  0.00000000000E+00 0. -1.
         23    2    1    2    0    0 -0.99151631401E+03 -0.94970381342E+03 -0.13603626799E+04  0.19349157297E+04  0.90941332666E+02 0.  0.
         13    1    3    3    0    0 -0.34324927049E+03 -0.32091248986E+03 -0.52664988738E+03  0.70580804170E+03  0.00000000000E+00 0. -1.
        -13    1    3    3    0    0 -0.64826704352E+03 -0.62879132355E+03 -0.83371279252E+03  0.12291076880E+04  0.00000000000E+00 0.  1.
         22    1    1    2    0    0  0.99151631401E+03  0.94970381342E+03  0.34718264214E+03  0.14161842116E+04  0.00000000000E+00 0.  1.
<mgrwt>
<rscale>  0 0.31942663E+04</rscale>
<asrwt>0</asrwt>
<pdfrwt beam="1">  1        2 0.33571384E+00 0.31942663E+04</pdfrwt>
<pdfrwt beam="2">  1       -2 0.17983999E+00 0.31942663E+04</pdfrwt>
<totfact> 0.80936267E-01</totfact>
</mgrwt>
</event>
<event>
 6    1  0.1780144E-005  0.1737291E+04  0.7818608E-02  0.8740377E-01
          2   -1    0    0  501    0  0.00000000000E+00  0.00000000000E+00  0.14388847137E+04  0.14388847137E+04  0.00000000000E+00 0. -1.
         -2   -1    0    0    0  501 -0.00000000000E+00 -0.00000000000E+00 -0.52439576605E+03  0.52439576605E+03  0.00000000000E+00 0.  1.
         23    2    1    2    0    0  0.59719276744E+03  0.61077747049E+03  0.62081352757E+03  0.10599900656E+04  0.92093339591E+02 0.  0.
         11    1    3    3    0    0  0.34736703363E+03  0.40641031415E+03  0.35387182194E+03  0.64113841397E+03  0.00000000000E+00 0.  1.
        -11    1    3    3    0    0  0.24982573381E+03  0.20436715634E+03  0.26694170563E+03  0.41885165163E+03  0.00000000000E+00 0. -1.
         22    1    1    2    0    0 -0.59719276744E+03 -0.61077747049E+03  0.29367542008E+03  0.90329041416E+03  0.00000000000E+00 0.  1.
<mgrwt>
<rscale>  0 0.17372911E+04</rscale>
<asrwt>0</asrwt>
<pdfrwt beam="1">  1        2 0.22136688E+00 0.17372911E+04</pdfrwt>
<pdfrwt beam="2">  1       -2 0.80676273E-01 0.17372911E+04</pdfrwt>
<totfact> 0.17693072E+01</totfact>
</mgrwt>
</event>
<event>
 6    1  0.1780144E-005  0.2399436E+04  0.7818608E-02  0.8439715E-01
         -2   -1    0    0    0  501 -0.00000000000E+00  0.00000000000E+00  0.12613029982E+04  0.12613029982E+04  0.00000000000E+00 0.  1.
          2   -1    0    0  501    0  0.00000000000E+00 -0.00000000000E+00 -0.11411398285E+04  0.11411398285E+04  0.00000000000E+00 0. -1.
         23    2    1    2    0    0  0.84786817589E+03  0.50137214548E+02  0.90617447204E+03  0.12452012998E+04  0.89330394119E+02 0.  0.
         13    1    3    3    0    0  0.55566345963E+03  0.52155136616E-01  0.62988780269E+03  0.83995269335E+03  0.00000000000E+00 0. -1.
        -13    1    3    3    0    0  0.29220471627E+03  0.50085059411E+02  0.27628666935E+03  0.40524860647E+03  0.00000000000E+00 0.  1.
         22    1    1    2    0    0 -0.84786817589E+03 -0.50137214548E+02 -0.78601130240E+03  0.11572415269E+04  0.00000000000E+00 0. -1.
<mgrwt>
<rscale>  0 0.23994358E+04</rscale>
<asrwt>0</asrwt>
<pdfrwt beam="1">  1        2 0.17555997E+00 0.23994358E+04</pdfrwt>
<pdfrwt beam="2">  1       -2 0.19404662E+00 0.23994358E+04</pdfrwt>
<totfact> 0.26918612E+00</totfact>
</mgrwt>
</event>
<event>
 6    1  0.1780144E-005  0.2727860E+04  0.7818608E-02  0.8326022E-01
          2   -1    0    0  501    0  0.00000000000E+00  0.00000000000E+00  0.31443451743E+04  0.31443451743E+04  0.00000000000E+00 0. -1.
         -2   -1    0    0    0  501 -0.00000000000E+00 -0.00000000000E+00 -0.59163500943E+03  0.59163500943E+03  0.00000000000E+00 0.  1.
         23    2    1    2    0    0 -0.10249578434E+04 -0.11650104657E+03  0.58802873761E+02  0.10371499462E+04  0.90061969438E+02 0.  0.
         11    1    3    3    0    0 -0.40330158146E+03 -0.84736396431E+02  0.21850904052E+01  0.41211308776E+03  0.00000000000E+00 0. -1.
        -11    1    3    3    0    0 -0.62165626192E+03 -0.31764650143E+02  0.56617783355E+02  0.62503685841E+03  0.00000000000E+00 0.  1.
         22    1    1    2    0    0  0.10249578434E+04  0.11650104657E+03  0.24939072911E+04  0.26988302376E+04  0.00000000000E+00 0. -1.
<mgrwt>
<rscale>  0 0.27278597E+04</rscale>
<asrwt>0</asrwt>
<pdfrwt beam="1">  1        2 0.48374540E+00 0.27278597E+04</pdfrwt>
<pdfrwt beam="2">  1       -2 0.91020773E-01 0.27278597E+04</pdfrwt>
<totfact> 0.12697282E+00</totfact>
</mgrwt>
</event>
<event>
 6    1  0.1780144E-005  0.1821927E+04  0.7818608E-02  0.8694725E-01
          2   -1    0    0  501    0  0.00000000000E+00  0.00000000000E+00  0.15400205682E+04  0.15400205682E+04  0.00000000000E+00 0. -1.
         -2   -1    0    0    0  501 -0.00000000000E+00 -0.00000000000E+00 -0.53885945372E+03  0.53885945372E+03  0.00000000000E+00 0.  1.
         23    2    1    2    0    0 -0.26842717490E+03 -0.76073622699E+03  0.24247190027E+02  0.81194136079E+03  0.88814930386E+02 0.  0.
         11    1    3    3    0    0 -0.21640059519E+03 -0.51737587617E+03 -0.89284277738E+01  0.56088031848E+03  0.00000000000E+00 0.  1.
        -11    1    3    3    0    0 -0.52026579711E+02 -0.24336035082E+03  0.33175617801E+02  0.25106104231E+03  0.00000000000E+00 0. -1.
         22    1    1    2    0    0  0.26842717490E+03  0.76073622699E+03  0.97691392442E+03  0.12669386611E+04  0.00000000000E+00 0. -1.
<mgrwt>
<rscale>  0 0.18219272E+04</rscale>
<asrwt>0</asrwt>
<pdfrwt beam="1">  1        2 0.23692624E+00 0.18219272E+04</pdfrwt>
<pdfrwt beam="2">  1       -2 0.82901455E-01 0.18219272E+04</pdfrwt>
<totfact> 0.14484173E+01</totfact>
</mgrwt>
</event>
<event>
 6    1  0.1780144E-005  0.1063914E+04  0.7818608E-02  0.9241096E-01
          1   -1    0    0  501    0  0.00000000000E+00  0.00000000000E+00  0.89606968676E+03  0.89606968676E+03  0.00000000000E+00 0. -1.
         -1   -1    0    0    0  501 -0.00000000000E+00 -0.00000000000E+00 -0.31579910247E+03  0.31579910247E+03  0.00000000000E+00 0.  1.
         23    2    1    2    0    0  0.35617370998E+03 -0.11320295675E+03  0.71730986641E+03  0.81380549535E+03  0.89840518215E+02 0.  0.
         13    1    3    3    0    0  0.10849237312E+03 -0.18136117303E+02  0.29759478455E+03  0.31727302055E+03  0.00000000000E+00 0. -1.
        -13    1    3    3    0    0  0.24768133686E+03 -0.95066839445E+02  0.41971508186E+03  0.49653247480E+03  0.00000000000E+00 0.  1.
         22    1    1    2    0    0 -0.35617370998E+03  0.11320295675E+03 -0.13703928211E+03  0.39806329388E+03  0.00000000000E+00 0.  1.
<mgrwt>
<rscale>  0 0.10639135E+04</rscale>
<asrwt>0</asrwt>
<pdfrwt beam="1">  1        1 0.13785687E+00 0.10639135E+04</pdfrwt>
<pdfrwt beam="2">  1       -1 0.48584478E-01 0.10639135E+04</pdfrwt>
<totfact> 0.77586988E+01</totfact>
</mgrwt>
</event>
<event>
 6    1  0.1780144E-005  0.2675321E+04  0.7818608E-02  0.8343057E-01
          1   -1    0    0  501    0  0.00000000000E+00  0.00000000000E+00  0.12346368677E+04  0.12346368677E+04  0.00000000000E+00 0. -1.
         -1   -1    0    0    0  501 -0.00000000000E+00 -0.00000000000E+00 -0.14492808381E+04  0.14492808381E+04  0.00000000000E+00 0.  1.
         23    2    1    2    0    0 -0.12222288057E+04 -0.37787989428E+03 -0.49433156907E+03  0.13743904548E+04  0.89156907803E+02 0.  0.
         11    1    3    3    0    0 -0.48675962209E+03 -0.19041891609E+03 -0.17855027072E+03  0.55233548906E+03  0.00000000000E+00 0. -1.
        -11    1    3    3    0    0 -0.73546918361E+03 -0.18746097819E+03 -0.31578129835E+03  0.82205496578E+03  0.00000000000E+00 0.  1.
         22    1    1    2    0    0  0.12222288057E+04  0.37787989428E+03  0.27968759865E+03  0.13095272509E+04  0.00000000000E+00 0. -1.
<mgrwt>
<rscale>  0 0.26753210E+04</rscale>
<asrwt>0</asrwt>
<pdfrwt beam="1">  1        1 0.18994413E+00 0.26753210E+04</pdfrwt>
<pdfrwt beam="2">  1       -1 0.22296628E+00 0.26753210E+04</pdfrwt>
<totfact> 0.92747137E-01</totfact>
</mgrwt>
</event>
<event>
 6    1  0.1780144E-005  0.1012993E+04  0.7818608E-02  0.9294408E-01
          1   -1    0    0  501    0  0.00000000000E+00  0.00000000000E+00  0.64508534533E+03  0.64508534533E+03  0.00000000000E+00 0. -1.
         -1   -1    0    0    0  501 -0.00000000000E+00 -0.00000000000E+00 -0.39768190871E+03  0.39768190871E+03  0.00000000000E+00 0.  1.
         23    2    1    2    0    0  0.81485027456E+02 -0.10903481714E+03  0.62262953664E+03  0.64361436706E+03  0.89685631717E+02 0.  0.
         13    1    3    3    0    0  0.39835118600E+01 -0.80130667964E+02  0.29759997468E+03  0.30822481608E+03  0.00000000000E+00 0.  1.
        -13    1    3    3    0    0  0.77501515596E+02 -0.28904149175E+02  0.32502956196E+03  0.33538955098E+03  0.00000000000E+00 0. -1.
         22    1    1    2    0    0 -0.81485027456E+02  0.10903481714E+03 -0.37522610002E+03  0.39915288698E+03  0.00000000000E+00 0.  1.
<mgrwt>
<rscale>  0 0.10129931E+04</rscale>
<asrwt>0</asrwt>
<pdfrwt beam="1">  1        1 0.99243899E-01 0.10129931E+04</pdfrwt>
<pdfrwt beam="2">  1       -1 0.61181832E-01 0.10129931E+04</pdfrwt>
<totfact> 0.83625808E+01</totfact>
</mgrwt>
</event>
<event>
 6    1  0.1780144E-005  0.8602849E+03  0.7818608E-02  0.9476636E-01
          1   -1    0    0  501    0  0.00000000000E+00  0.00000000000E+00  0.13143021818E+04  0.13143021818E+04  0.00000000000E+00 0. -1.
         -1   -1    0    0    0  501 -0.00000000000E+00 -0.00000000000E+00 -0.14077623144E+03  0.14077623144E+03  0.00000000000E+00 0.  1.
         23    2    1    2    0    0  0.24336360078E+03 -0.25825890422E+03  0.98983281384E+03  0.10554952902E+04  0.91530347714E+02 0.  0.
         11    1    3    3    0    0  0.99859970022E+02 -0.14560219903E+03  0.59315845474E+03  0.61887718200E+03  0.00000000000E+00 0.  1.
        -11    1    3    3    0    0  0.14350363076E+03 -0.11265670520E+03  0.39667435910E+03  0.43661810823E+03  0.00000000000E+00 0. -1.
         22    1    1    2    0    0 -0.24336360078E+03  0.25825890422E+03  0.18369313653E+03  0.39958312302E+03  0.00000000000E+00 0.  1.
<mgrwt>
<rscale>  0 0.86028486E+03</rscale>
<asrwt>0</asrwt>
<pdfrwt beam="1">  1        1 0.20220033E+00 0.86028486E+03</pdfrwt>
<pdfrwt beam="2">  1       -1 0.21657883E-01 0.86028486E+03</pdfrwt>
<totfact> 0.15950620E+02</totfact>
</mgrwt>
</event>
<event>
 6    1  0.1780144E-005  0.4900890E+03  0.7818608E-02  0.1016399E+00
          1   -1    0    0  501    0  0.00000000000E+00  0.00000000000E+00  0.16525150095E+04  0.16525150095E+04  0.00000000000E+00 0. -1.
         -1   -1    0    0    0  501 -0.00000000000E+00 -0.00000000000E+00 -0.36336612668E+02  0.36336612668E+02  0.00000000000E+00 0.  1.
         23    2    1    2    0    0  0.20892026245E+02  0.64298186137E+02  0.16172641686E+04  0.16212357039E+04  0.91055384607E+02 0.  0.
         11    1    3    3    0    0  0.13970462605E+02  0.22425881176E+02  0.13769001542E+04  0.13771536329E+04  0.00000000000E+00 0. -1.
        -11    1    3    3    0    0  0.69215636397E+01  0.41872304960E+02  0.24036401437E+03  0.24408207097E+03  0.00000000000E+00 0.  1.
         22    1    1    2    0    0 -0.20892026245E+02 -0.64298186137E+02 -0.10857717790E+01  0.67615918255E+02  0.00000000000E+00 0.  1.
<mgrwt>
<rscale>  0 0.49008896E+03</rscale>
<asrwt>0</asrwt>
<pdfrwt beam="1">  1        1 0.25423302E+00 0.49008896E+03</pdfrwt>
<pdfrwt beam="2">  1       -1 0.55902494E-02 0.49008896E+03</pdfrwt>
<totfact> 0.83132212E+02</totfact>
</mgrwt>
</event>
<event>
 6    1  0.1780144E-005  0.4516576E+04  0.7818608E-02  0.7907741E-01
         -2   -1    0    0    0  501 -0.00000000000E+00  0.00000000000E+00  0.28224414985E+04  0.28224414985E+04  0.00000000000E+00 0.  1.
          2   -1    0    0  501    0  0.00000000000E+00 -0.00000000000E+00 -0.18068981342E+04  0.18068981342E+04  0.00000000000E+00 0. -1.
         23    2    1    2    0    0 -0.12692059018E+04  0.93853263346E+03 -0.11459943609E+04  0.19527798140E+04  0.91207464664E+02 0.  0.
         11    1    3    3    0    0 -0.12039165056E+04  0.90333625484E+03 -0.10708949784E+04  0.18472269477E+04  0.00000000000E+00 0.  1.
        -11    1    3    3    0    0 -0.65289396180E+02  0.35196378620E+02 -0.75099382521E+02  0.10555286626E+03  0.00000000000E+00 0. -1.
         22    1    1    2    0    0  0.12692059018E+04 -0.93853263346E+03  0.21615377252E+04  0.26765598186E+04  0.00000000000E+00 0.  1.
<mgrwt>
<rscale>  0 0.45165758E+04</rscale>
<asrwt>0</asrwt>
<pdfrwt beam="1">  1        2 0.27798433E+00 0.45165758E+04</pdfrwt>
<pdfrwt beam="2">  1       -2 0.43422177E+00 0.45165758E+04</pdfrwt>
<totfact> 0.28596378E-02</totfact>
</mgrwt>
</event>
<event>
 6    1  0.1780144E-005  0.3630875E+04  0.7818608E-02  0.8083456E-01
          1   -1    0    0  501    0  0.00000000000E+00  0.00000000000E+00  0.35204202065E+04  0.35204202065E+04  0.00000000000E+00 0. -1.
         -1   -1    0    0    0  501 -0.00000000000E+00 -0.00000000000E+00 -0.93619897305E+03  0.93619897305E+03  0.00000000000E+00 0.  1.
         23    2    1    2    0    0 -0.15277517396E+04 -0.56090722164E+03  0.22772075167E+04  0.28004489856E+04  0.90543679383E+02 0.  0.
         13    1    3    3    0    0 -0.30468054546E+03 -0.13603605130E+03  0.51711217999E+03  0.61541940880E+03  0.00000000000E+00 0.  1.
        -13    1    3    3    0    0 -0.12230711941E+04 -0.42487117035E+03  0.17600953367E+04  0.21850295768E+04  0.00000000000E+00 0. -1.
         22    1    1    2    0    0  0.15277517396E+04  0.56090722164E+03  0.30701371678E+03  0.16561701940E+04  0.00000000000E+00 0.  1.
<mgrwt>
<rscale>  0 0.36308753E+04</rscale>
<asrwt>0</asrwt>
<pdfrwt beam="1">  1        1 0.54160310E+00 0.36308753E+04</pdfrwt>
<pdfrwt beam="2">  1       -1 0.14403061E+00 0.36308753E+04</pdfrwt>
<totfact> 0.75450442E-02</totfact>
</mgrwt>
</event>
<event>
 6    1  0.1780144E-005  0.4385636E+03  0.7818608E-02  0.1031188E+00
          2   -1    0    0  501    0  0.00000000000E+00  0.00000000000E+00  0.11031328593E+03  0.11031328593E+03  0.00000000000E+00 0. -1.
         -2   -1    0    0    0  501 -0.00000000000E+00 -0.00000000000E+00 -0.43589050156E+03  0.43589050156E+03  0.00000000000E+00 0.  1.
         23    2    1    2    0    0  0.16004767199E+03  0.10690129931E+03 -0.27479148148E+03  0.34715018692E+03  0.89217424746E+02 0.  0.
         13    1    3    3    0    0  0.81898042867E+02  0.10565741734E+03 -0.18217710950E+03  0.22596300248E+03  0.00000000000E+00 0.  1.
        -13    1    3    3    0    0  0.78149629124E+02  0.12438819754E+01 -0.92614371978E+02  0.12118718444E+03  0.00000000000E+00 0. -1.
         22    1    1    2    0    0 -0.16004767199E+03 -0.10690129931E+03 -0.50785734152E+02  0.19905360057E+03  0.00000000000E+00 0. -1.
<mgrwt>
<rscale>  0 0.43856363E+03</rscale>
<asrwt>0</asrwt>
<pdfrwt beam="1">  1        2 0.16971274E-01 0.43856363E+03</pdfrwt>
<pdfrwt beam="2">  1       -2 0.67060079E-01 0.43856363E+03</pdfrwt>
<totfact> 0.70836380E+02</totfact>
</mgrwt>
</event>
<event>
 6    1  0.1780144E-005  0.3226483E+04  0.7818608E-02  0.8181858E-01
          2   -1    0    0  501    0  0.00000000000E+00  0.00000000000E+00  0.18702071723E+04  0.18702071723E+04  0.00000000000E+00 0. -1.
         -2   -1    0    0    0  501 -0.00000000000E+00 -0.00000000000E+00 -0.13915825082E+04  0.13915825082E+04  0.00000000000E+00 0.  1.
         23    2    1    2    0    0 -0.12828853614E+04  0.54652272747E+03 -0.57789981337E+03  0.15122966357E+04  0.92687529119E+02 0.  0.
         11    1    3    3    0    0 -0.59938259640E+03  0.30206673338E+03 -0.29628185461E+03  0.73368027482E+03  0.00000000000E+00 0.  1.
        -11    1    3    3    0    0 -0.68350276498E+03  0.24445599408E+03 -0.28161795876E+03  0.77861636091E+03  0.00000000000E+00 0. -1.
         22    1    1    2    0    0  0.12828853614E+04 -0.54652272747E+03  0.10565244775E+04  0.17494930447E+04  0.00000000000E+00 0. -1.
<mgrwt>
<rscale>  0 0.32264827E+04</rscale>
<asrwt>0</asrwt>
<pdfrwt beam="1">  1        2 0.28772418E+00 0.32264827E+04</pdfrwt>
<pdfrwt beam="2">  1       -2 0.21408961E+00 0.32264827E+04</pdfrwt>
<totfact> 0.71446049E-01</totfact>
</mgrwt>
</event>
<event>
 6    1  0.1780144E-005  0.1075066E+04  0.7818608E-02  0.9229841E-01
          1   -1    0    0  501    0  0.00000000000E+00  0.00000000000E+00  0.17422742193E+04  0.17422742193E+04  0.00000000000E+00 0. -1.
         -1   -1    0    0    0  501 -0.00000000000E+00 -0.00000000000E+00 -0.16584174628E+03  0.16584174628E+03  0.00000000000E+00 0.  1.
         23    2    1    2    0    0  0.64641897446E+02 -0.49355127642E+03  0.45942227323E+03  0.68521645057E+03  0.10335047963E+03 0.  0.
         11    1    3    3    0    0  0.22768467263E+02 -0.39411277361E+03  0.31557638873E+03  0.50540255099E+03  0.00000000000E+00 0.  1.
        -11    1    3    3    0    0  0.41873430182E+02 -0.99438502808E+02  0.14384588450E+03  0.17981389958E+03  0.00000000000E+00 0. -1.
         22    1    1    2    0    0 -0.64641897446E+02  0.49355127642E+03  0.11170101998E+04  0.12228995150E+04  0.00000000000E+00 0.  1.
<mgrwt>
<rscale>  0 0.10750661E+04</rscale>
<asrwt>0</asrwt>
<pdfrwt beam="1">  1        1 0.26804218E+00 0.10750661E+04</pdfrwt>
<pdfrwt beam="2">  1       -1 0.25514116E-01 0.10750661E+04</pdfrwt>
<totfact> 0.60269470E+01</totfact>
</mgrwt>
</event>
<event>
 6    1  0.1780144E-005  0.3519584E+04  0.7818608E-02  0.8109164E-01
         -2   -1    0    0    0  501 -0.00000000000E+00  0.00000000000E+00  0.13326627126E+04  0.13326627126E+04  0.00000000000E+00 0.  1.
          2   -1    0    0  501    0  0.00000000000E+00 -0.00000000000E+00 -0.23238197968E+04  0.23238197968E+04  0.00000000000E+00 0. -1.
         23    2    1    2    0    0 -0.10232783092E+04 -0.12532517789E+04 -0.12119414192E+04  0.20235452044E+04  0.90524424152E+02 0.  0.
         11    1    3    3    0    0 -0.41288882532E+03 -0.43824913992E+03 -0.46249953848E+03  0.75923995799E+03  0.00000000000E+00 0. -1.
        -11    1    3    3    0    0 -0.61038948390E+03 -0.81500263899E+03 -0.74944188070E+03  0.12643052464E+04  0.00000000000E+00 0.  1.
         22    1    1    2    0    0  0.10232783092E+04  0.12532517789E+04  0.22078433495E+03  0.16329373050E+04  0.00000000000E+00 0.  1.
<mgrwt>
<rscale>  0 0.35195841E+04</rscale>
<asrwt>0</asrwt>
<pdfrwt beam="1">  1        2 0.35751074E+00 0.35195841E+04</pdfrwt>
<pdfrwt beam="2">  1       -2 0.20502503E+00 0.35195841E+04</pdfrwt>
<totfact> 0.44456756E-01</totfact>
</mgrwt>
</event>
<event>
 6    1  0.1780144E-005  0.2731742E+04  0.7818608E-02  0.8324779E-01
          1   -1    0    0  501    0  0.00000000000E+00  0.00000000000E+00  0.17376061210E+04  0.17376061210E+04  0.00000000000E+00 0. -1.
         -1   -1    0    0    0  501 -0.00000000000E+00 -0.00000000000E+00 -0.10736631988E+04  0.10736631988E+04  0.00000000000E+00 0.  1.
         23    2    1    2    0    0 -0.35474864060E+03 -0.17273859413E+03 -0.10116639838E+04  0.10898327908E+04  0.92662160377E+02 0.  0.
         13    1    3    3    0    0 -0.15585882928E+03 -0.52129313638E+02 -0.53091219161E+03  0.55576721314E+03  0.00000000000E+00 0.  1.
        -13    1    3    3    0    0 -0.19888981132E+03 -0.12060928049E+03 -0.48075179219E+03  0.53406557770E+03  0.00000000000E+00 0. -1.
         22    1    1    2    0    0  0.35474864060E+03  0.17273859413E+03  0.16756069060E+04  0.17214365289E+04  0.00000000000E+00 0. -1.
<mgrwt>
<rscale>  0 0.27317421E+04</rscale>
<asrwt>0</asrwt>
<pdfrwt beam="1">  1        1 0.26732402E+00 0.27317421E+04</pdfrwt>
<pdfrwt beam="2">  1       -1 0.16517895E+00 0.27317421E+04</pdfrwt>
<totfact> 0.10451878E+00</totfact>
</mgrwt>
</event>
<event>
 6    1  0.1780144E-005  0.1597669E+04  0.7818608E-02  0.8821981E-01
          1   -1    0    0  501    0  0.00000000000E+00  0.00000000000E+00  0.79334439688E+03  0.79334439688E+03  0.00000000000E+00 0. -1.
         -1   -1    0    0    0  501 -0.00000000000E+00 -0.00000000000E+00 -0.80436229621E+03  0.80436229621E+03  0.00000000000E+00 0.  1.
         23    2    1    2    0    0 -0.69221796876E+03 -0.18138561309E+03 -0.35480794083E+03  0.80381876048E+03  0.90385108910E+02 0.  0.
         13    1    3    3    0    0 -0.27376410883E+03 -0.45197328828E+02 -0.97766016898E+02  0.29419004042E+03  0.00000000000E+00 0.  1.
        -13    1    3    3    0    0 -0.41845385993E+03 -0.13618828426E+03 -0.25704192393E+03  0.50962872007E+03  0.00000000000E+00 0. -1.
         22    1    1    2    0    0  0.69221796876E+03  0.18138561309E+03  0.34379004150E+03  0.79388793261E+03  0.00000000000E+00 0.  1.
<mgrwt>
<rscale>  0 0.15976687E+04</rscale>
<asrwt>0</asrwt>
<pdfrwt beam="1">  1        1 0.12205298E+00 0.15976687E+04</pdfrwt>
<pdfrwt beam="2">  1       -1 0.12374805E+00 0.15976687E+04</pdfrwt>
<totfact> 0.12343301E+01</totfact>
</mgrwt>
</event>
<event>
 6    1  0.1780144E-005  0.1141344E+04  0.7818608E-02  0.9165806E-01
         -2   -1    0    0    0  501 -0.00000000000E+00  0.00000000000E+00  0.20273285765E+03  0.20273285765E+03  0.00000000000E+00 0.  1.
          2   -1    0    0  501    0  0.00000000000E+00 -0.00000000000E+00 -0.16063823463E+04  0.16063823463E+04  0.00000000000E+00 0. -1.
         23    2    1    2    0    0 -0.17306314988E+03 -0.11208447686E+03 -0.15433727581E+04  0.15600441783E+04  0.96044697887E+02 0.  0.
         11    1    3    3    0    0 -0.62122557757E+02  0.10774564730E+01 -0.62687746705E+03  0.62994899142E+03  0.00000000000E+00 0. -1.
        -11    1    3    3    0    0 -0.11094059212E+03 -0.11316193333E+03 -0.91649529108E+03  0.93009518691E+03  0.00000000000E+00 0.  1.
         22    1    1    2    0    0  0.17306314988E+03  0.11208447686E+03  0.13972326944E+03  0.24907102566E+03  0.00000000000E+00 0.  1.
<mgrwt>
<rscale>  0 0.11413439E+04</rscale>
<asrwt>0</asrwt>
<pdfrwt beam="1">  1        2 0.24713574E+00 0.11413439E+04</pdfrwt>
<pdfrwt beam="2">  1       -2 0.31189671E-01 0.11413439E+04</pdfrwt>
<totfact> 0.10438959E+02</totfact>
</mgrwt>
</event>
<event>
 6    1  0.1780144E-005  0.2554227E+04  0.7818608E-02  0.8383918E-01
         -2   -1    0    0    0  501 -0.00000000000E+00  0.00000000000E+00  0.10854628025E+04  0.10854628025E+04  0.00000000000E+00 0.  1.
          2   -1    0    0  501    0  0.00000000000E+00 -0.00000000000E+00 -0.15026023809E+04  0.15026023809E+04  0.00000000000E+00 0. -1.
         23    2    1    2    0    0 -0.20352142725E+02 -0.60877176697E+03 -0.13444154097E+04  0.14786249005E+04  0.88665261476E+02 0.  0.
         13    1    3    3    0    0 -0.20695362512E+02 -0.14075549406E+03 -0.40122338362E+03  0.42570014177E+03  0.00000000000E+00 0.  1.
        -13    1    3    3    0    0  0.34321978682E+00 -0.46801627292E+03 -0.94319202609E+03  0.10529247588E+04  0.00000000000E+00 0. -1.
         22    1    1    2    0    0  0.20352142725E+02  0.60877176697E+03  0.92727583133E+03  0.11094402829E+04  0.00000000000E+00 0.  1.
<mgrwt>
<rscale>  0 0.25542271E+04</rscale>
<asrwt>0</asrwt>
<pdfrwt beam="1">  1        2 0.23116960E+00 0.25542271E+04</pdfrwt>
<pdfrwt beam="2">  1       -2 0.16699428E+00 0.25542271E+04</pdfrwt>
<totfact> 0.25160993E+00</totfact>
</mgrwt>
</event>
<event>
 6    1  0.1780144E-005  0.5550553E+03  0.7818608E-02  0.1000331E+00
          2   -1    0    0  501    0  0.00000000000E+00  0.00000000000E+00  0.22489173793E+04  0.22489173793E+04  0.00000000000E+00 0. -1.
         -2   -1    0    0    0  501 -0.00000000000E+00 -0.00000000000E+00 -0.34248298891E+02  0.34248298891E+02  0.00000000000E+00 0.  1.
         23    2    1    2    0    0 -0.10000029937E+03  0.24955186947E+03  0.10186381076E+04  0.10572919965E+04  0.89255679246E+02 0.  0.
         13    1    3    3    0    0 -0.15827447507E+02  0.87965063031E+02  0.20727483231E+03  0.22572376153E+03  0.00000000000E+00 0.  1.
        -13    1    3    3    0    0 -0.84172851861E+02  0.16158680644E+03  0.81136327527E+03  0.83156823500E+03  0.00000000000E+00 0. -1.
         22    1    1    2    0    0  0.10000029937E+03 -0.24955186947E+03  0.11960309728E+04  0.12258736816E+04  0.00000000000E+00 0. -1.
<mgrwt>
<rscale>  0 0.55505529E+03</rscale>
<asrwt>0</asrwt>
<pdfrwt beam="1">  1        2 0.34598717E+00 0.55505529E+03</pdfrwt>
<pdfrwt beam="2">  1       -2 0.52689708E-02 0.55505529E+03</pdfrwt>
<totfact> 0.96299506E+02</totfact>
</mgrwt>
</event>
<event>
 6    1  0.1780144E-005  0.2924340E+04  0.7818608E-02  0.8265672E-01
         -1   -1    0    0    0  501 -0.00000000000E+00  0.00000000000E+00  0.22817368958E+04  0.22817368958E+04  0.00000000000E+00 0.  1.
          1   -1    0    0  501    0  0.00000000000E+00 -0.00000000000E+00 -0.93697962954E+03  0.93697962954E+03  0.00000000000E+00 0. -1.
         23    2    1    2    0    0 -0.11607896321E+04 -0.48335901372E+03  0.14913001557E+04  0.19528005232E+04  0.91570862180E+02 0.  0.
         13    1    3    3    0    0 -0.59872216569E+03 -0.20433929690E+03  0.77857800861E+03  0.10031981337E+04  0.00000000000E+00 0.  1.
        -13    1    3    3    0    0 -0.56206746640E+03 -0.27901971682E+03  0.71272214706E+03  0.94960238946E+03  0.00000000000E+00 0. -1.
         22    1    1    2    0    0  0.11607896321E+04  0.48335901372E+03 -0.14654288942E+03  0.12659160022E+04  0.00000000000E+00 0. -1.
<mgrwt>
<rscale>  0 0.29243399E+04</rscale>
<asrwt>0</asrwt>
<pdfrwt beam="1">  1        1 0.14415071E+00 0.29243399E+04</pdfrwt>
<pdfrwt beam="2">  1       -1 0.35103644E+00 0.29243399E+04</pdfrwt>
<totfact> 0.22237237E-01</totfact>
</mgrwt>
</event>
<event>
 6    1  0.1780144E-005  0.2884852E+04  0.7818608E-02  0.8277399E-01
          1   -1    0    0  501    0  0.00000000000E+00  0.00000000000E+00  0.59555372702E+03  0.59555372702E+03  0.00000000000E+00 0. -1.
         -1   -1    0    0    0  501 -0.00000000000E+00 -0.00000000000E+00 -0.34935437861E+04  0.34935437861E+04  0.00000000000E+00 0.  1.
         23    2    1    2    0    0  0.99938256638E+03  0.23185766228E+03 -0.28847340263E+04  0.30630862014E+04  0.91012004256E+02 0.  0.
         11    1    3    3    0    0  0.49291565088E+03  0.10067797268E+03 -0.12849611310E+04  0.13799373179E+04  0.00000000000E+00 0. -1.
        -11    1    3    3    0    0  0.50646691550E+03  0.13117968961E+03 -0.15997728953E+04  0.16831488835E+04  0.00000000000E+00 0.  1.
         22    1    1    2    0    0 -0.99938256638E+03 -0.23185766228E+03 -0.13256032836E+02  0.10260113118E+04  0.00000000000E+00 0. -1.
<mgrwt>
<rscale>  0 0.28848522E+04</rscale>
<asrwt>0</asrwt>
<pdfrwt beam="1">  1        1 0.91623650E-01 0.28848522E+04</pdfrwt>
<pdfrwt beam="2">  1       -1 0.53746828E+00 0.28848522E+04</pdfrwt>
<totfact> 0.26025508E-02</totfact>
</mgrwt>
</event>
<event>
 6    1  0.1780144E-005  0.1815837E+04  0.7818608E-02  0.8697923E-01
          1   -1    0    0  501    0  0.00000000000E+00  0.00000000000E+00  0.82958448977E+03  0.82958448977E+03  0.00000000000E+00 0. -1.
         -1   -1    0    0    0  501 -0.00000000000E+00 -0.00000000000E+00 -0.99364901090E+03  0.99364901090E+03  0.00000000000E+00 0.  1.
         23    2    1    2    0    0  0.13614322074E+03 -0.82408063443E+03 -0.43384958355E+03  0.94549330647E+03  0.89934769936E+02 0.  0.
         11    1    3    3    0    0  0.13524878603E+03 -0.65296904605E+03 -0.31740413849E+03  0.73851621266E+03  0.00000000000E+00 0. -1.
        -11    1    3    3    0    0  0.89443471587E+00 -0.17111158838E+03 -0.11644544505E+03  0.20697709382E+03  0.00000000000E+00 0.  1.
         22    1    1    2    0    0 -0.13614322074E+03  0.82408063443E+03  0.26978506242E+03  0.87774019420E+03  0.00000000000E+00 0.  1.
<mgrwt>
<rscale>  0 0.18158368E+04</rscale>
<asrwt>0</asrwt>
<pdfrwt beam="1">  1        1 0.12762838E+00 0.18158368E+04</pdfrwt>
<pdfrwt beam="2">  1       -1 0.15286908E+00 0.18158368E+04</pdfrwt>
<totfact> 0.65106234E+00</totfact>
</mgrwt>
</event>
<event>
 6    1  0.1780144E-005  0.1519118E+04  0.7818608E-02  0.8871839E-01
          2   -1    0    0  501    0  0.00000000000E+00  0.00000000000E+00  0.17876994422E+04  0.17876994422E+04  0.00000000000E+00 0.  1.
         -2   -1    0    0    0  501 -0.00000000000E+00 -0.00000000000E+00 -0.32272181353E+03  0.32272181353E+03  0.00000000000E+00 0. -1.
         23    2    1    2    0    0 -0.57166708485E+03  0.40824901345E+03  0.34420956190E+03  0.78769998033E+03  0.92306682412E+02 0.  0.
         13    1    3    3    0    0 -0.30712409050E+03  0.16889409873E+03  0.14712486404E+03  0.38012649101E+03  0.00000000000E+00 0.  1.
        -13    1    3    3    0    0 -0.26454299436E+03  0.23935491472E+03  0.19708469787E+03  0.40757348932E+03  0.00000000000E+00 0. -1.
         22    1    1    2    0    0  0.57166708485E+03 -0.40824901345E+03  0.11207680667E+04  0.13227212754E+04  0.00000000000E+00 0.  1.
<mgrwt>
<rscale>  0 0.15191176E+04</rscale>
<asrwt>0</asrwt>
<pdfrwt beam="1">  1        2 0.27503068E+00 0.15191176E+04</pdfrwt>
<pdfrwt beam="2">  1       -2 0.49649511E-01 0.15191176E+04</pdfrwt>
<totfact> 0.32465077E+01</totfact>
</mgrwt>
</event>
<event>
 6    1  0.1780144E-005  0.1454180E+04  0.7818608E-02  0.8915508E-01
         -1   -1    0    0    0  501 -0.00000000000E+00  0.00000000000E+00  0.48543429934E+03  0.48543429934E+03  0.00000000000E+00 0.  1.
          1   -1    0    0  501    0  0.00000000000E+00 -0.00000000000E+00 -0.10890448908E+04  0.10890448908E+04  0.00000000000E+00 0. -1.
         23    2    1    2    0    0  0.42389321576E+03 -0.47106415911E+03 -0.68269194715E+03  0.93585507438E+03  0.90385425717E+02 0.  0.
         13    1    3    3    0    0  0.17766336335E+03 -0.16520763512E+03 -0.20598336660E+03  0.31825615578E+03  0.00000000000E+00 0. -1.
        -13    1    3    3    0    0  0.24622985241E+03 -0.30585652399E+03 -0.47670858055E+03  0.61759891860E+03  0.00000000000E+00 0.  1.
         22    1    1    2    0    0 -0.42389321576E+03  0.47106415911E+03  0.79081355714E+02  0.63862411573E+03  0.00000000000E+00 0.  1.
<mgrwt>
<rscale>  0 0.14541798E+04</rscale>
<asrwt>0</asrwt>
<pdfrwt beam="1">  1        1 0.16754537E+00 0.14541798E+04</pdfrwt>
<pdfrwt beam="2">  1       -1 0.74682201E-01 0.14541798E+04</pdfrwt>
<totfact> 0.22635999E+01</totfact>
</mgrwt>
</event>
<event>
 6    1  0.1780144E-005  0.7591259E+03  0.7818608E-02  0.9621141E-01
         -2   -1    0    0    0  501 -0.00000000000E+00  0.00000000000E+00  0.89592308103E+02  0.89592308103E+02  0.00000000000E+00 0.  1.
          2   -1    0    0  501    0  0.00000000000E+00 -0.00000000000E+00 -0.16080402950E+04  0.16080402950E+04  0.00000000000E+00 0. -1.
         23    2    1    2    0    0  0.25026507021E+03 -0.12378728555E+03 -0.13271872098E+04  0.13592000658E+04  0.89682950904E+02 0.  0.
         13    1    3    3    0    0  0.16150615003E+03 -0.87249291147E+02 -0.10484665183E+04  0.10644147290E+04  0.00000000000E+00 0. -1.
        -13    1    3    3    0    0  0.88758920175E+02 -0.36537994399E+02 -0.27872069145E+03  0.29478533679E+03  0.00000000000E+00 0.  1.
         22    1    1    2    0    0 -0.25026507021E+03  0.12378728555E+03 -0.19126077711E+03  0.33843253728E+03  0.00000000000E+00 0.  1.
<mgrwt>
<rscale>  0 0.75912592E+03</rscale>
<asrwt>0</asrwt>
<pdfrwt beam="1">  1        2 0.24739078E+00 0.75912592E+03</pdfrwt>
<pdfrwt beam="2">  1       -2 0.13783434E-01 0.75912592E+03</pdfrwt>
<totfact> 0.45217663E+02</totfact>
</mgrwt>
</event>
<event>
 6    1  0.1780144E-005  0.4392341E+04  0.7818608E-02  0.7929761E-01
         -1   -1    0    0    0  501 -0.00000000000E+00  0.00000000000E+00  0.22550742753E+04  0.22550742753E+04  0.00000000000E+00 0.  1.
          1   -1    0    0  501    0  0.00000000000E+00 -0.00000000000E+00 -0.21388052487E+04  0.21388052487E+04  0.00000000000E+00 0. -1.
         23    2    1    2    0    0 -0.13779386924E+04  0.13421410139E+04  0.11163489445E+04  0.22258810500E+04  0.90851206953E+02 0.  0.
         13    1    3    3    0    0 -0.10036996257E+04  0.94165469842E+03  0.83492760839E+03  0.16097299838E+04  0.00000000000E+00 0.  1.
        -13    1    3    3    0    0 -0.37423906675E+03  0.40048631545E+03  0.28142133612E+03  0.61615106619E+03  0.00000000000E+00 0. -1.
         22    1    1    2    0    0  0.13779386924E+04 -0.13421410139E+04 -0.10000799178E+04  0.21679984740E+04  0.00000000000E+00 0. -1.
<mgrwt>
<rscale>  0 0.43923409E+04</rscale>
<asrwt>0</asrwt>
<pdfrwt beam="1">  1        1 0.32904696E+00 0.43923409E+04</pdfrwt>
<pdfrwt beam="2">  1       -1 0.34693451E+00 0.43923409E+04</pdfrwt>
<totfact> 0.29594360E-02</totfact>
</mgrwt>
</event>
<event>
 6    1  0.1780144E-005  0.2679994E+04  0.7818608E-02  0.8341526E-01
          2   -1    0    0  501    0  0.00000000000E+00  0.00000000000E+00  0.20350563659E+04  0.20350563659E+04  0.00000000000E+00 0.  1.
         -2   -1    0    0    0  501 -0.00000000000E+00 -0.00000000000E+00 -0.88233001446E+03  0.88233001446E+03  0.00000000000E+00 0. -1.
         23    2    1    2    0    0 -0.10801620166E+04  0.62972241555E+03  0.56990845204E+02  0.12548772518E+04  0.90380628386E+02 0.  0.
         11    1    3    3    0    0 -0.17086268686E+03  0.63458938290E+02  0.23991434539E+01  0.18228233732E+03  0.00000000000E+00 0.  1.
        -11    1    3    3    0    0 -0.90929932975E+03  0.56626347726E+03  0.54591701750E+02  0.10725949145E+04  0.00000000000E+00 0. -1.
         22    1    1    2    0    0  0.10801620166E+04 -0.62972241555E+03  0.10957355062E+04  0.16625091285E+04  0.00000000000E+00 0. -1.
<mgrwt>
<rscale>  0 0.26799935E+04</rscale>
<asrwt>0</asrwt>
<pdfrwt beam="1">  1        2 0.31308559E+00 0.26799935E+04</pdfrwt>
<pdfrwt beam="2">  1       -2 0.13574308E+00 0.26799935E+04</pdfrwt>
<totfact> 0.21835375E+00</totfact>
</mgrwt>
</event>
<event>
 6    1  0.1780144E-005  0.3633090E+04  0.7818608E-02  0.8082954E-01
         -2   -1    0    0    0  501 -0.00000000000E+00  0.00000000000E+00  0.14586967478E+04  0.14586967478E+04  0.00000000000E+00 0.  1.
          2   -1    0    0  501    0  0.00000000000E+00 -0.00000000000E+00 -0.22621812312E+04  0.22621812312E+04  0.00000000000E+00 0. -1.
         23    2    1    2    0    0 -0.12781869919E+04  0.87695466834E+03 -0.13699845553E+04  0.20705041401E+04  0.85546688795E+02 0.  0.
         11    1    3    3    0    0 -0.53088213089E+03  0.39285339630E+03 -0.63044905043E+03  0.91303649054E+03  0.00000000000E+00 0. -1.
        -11    1    3    3    0    0 -0.74730486097E+03  0.48410127204E+03 -0.73953550490E+03  0.11574676496E+04  0.00000000000E+00 0.  1.
         22    1    1    2    0    0  0.12781869919E+04 -0.87695466834E+03  0.56650007200E+03  0.16503738389E+04  0.00000000000E+00 0.  1.
<mgrwt>
<rscale>  0 0.36330904E+04</rscale>
<asrwt>0</asrwt>
<pdfrwt beam="1">  1        2 0.34802788E+00 0.36330904E+04</pdfrwt>
<pdfrwt beam="2">  1       -2 0.22441489E+00 0.36330904E+04</pdfrwt>
<totfact> 0.35884852E-01</totfact>
</mgrwt>
</event>
<event>
 6    1  0.1780144E-005  0.2241439E+04  0.7818608E-02  0.8501375E-01
         -2   -1    0    0    0  501 -0.00000000000E+00  0.00000000000E+00  0.12448181643E+04  0.12448181643E+04  0.00000000000E+00 0.  1.
          2   -1    0    0  501    0  0.00000000000E+00 -0.00000000000E+00 -0.10089927444E+04  0.10089927444E+04  0.00000000000E+00 0. -1.
         23    2    1    2    0    0 -0.87890474344E+03  0.60233469467E+03 -0.22579510795E+03  0.10926157725E+04  0.86862898855E+02 0.  0.
         13    1    3    3    0    0 -0.27045147058E+03  0.21509737903E+03 -0.10643485710E+03  0.36157884231E+03  0.00000000000E+00 0. -1.
        -13    1    3    3    0    0 -0.60845327286E+03  0.38723731564E+03 -0.11936025085E+03  0.73103693023E+03  0.00000000000E+00 0.  1.
         22    1    1    2    0    0  0.87890474344E+03 -0.60233469467E+03  0.46162052782E+03  0.11611951361E+04  0.00000000000E+00 0. -1.
<mgrwt>
<rscale>  0 0.22414393E+04</rscale>
<asrwt>0</asrwt>
<pdfrwt beam="1">  1        2 0.15522965E+00 0.22414393E+04</pdfrwt>
<pdfrwt beam="2">  1       -2 0.19151049E+00 0.22414393E+04</pdfrwt>
<totfact> 0.34279621E+00</totfact>
</mgrwt>
</event>
<event>
 6    1  0.1780144E-005  0.4151552E+03  0.7818608E-02  0.1038655E+00
         -2   -1    0    0    0  501 -0.00000000000E+00  0.00000000000E+00  0.13529601331E+03  0.13529601331E+03  0.00000000000E+00 0. -1.
          2   -1    0    0  501    0  0.00000000000E+00 -0.00000000000E+00 -0.31847551865E+03  0.31847551865E+03  0.00000000000E+00 0.  1.
         23    2    1    2    0    0 -0.90436969909E+02 -0.54348631268E+01  0.95643786332E+02  0.16059784412E+03  0.91845252512E+02 0.  0.
         13    1    3    3    0    0 -0.35637797039E+02  0.22447924736E+02  0.89365112977E+02  0.98793144095E+02  0.00000000000E+00 0. -1.
        -13    1    3    3    0    0 -0.54799172870E+02 -0.27882787863E+02  0.62786733547E+01  0.61804700026E+02  0.00000000000E+00 0.  1.
         22    1    1    2    0    0  0.90436969909E+02  0.54348631268E+01 -0.27882329168E+03  0.29317368784E+03  0.00000000000E+00 0.  1.
<mgrwt>
<rscale>  0 0.41515524E+03</rscale>
<asrwt>0</asrwt>
<pdfrwt beam="1">  1        2 0.48996233E-01 0.41515524E+03</pdfrwt>
<pdfrwt beam="2">  1       -2 0.20814772E-01 0.41515524E+03</pdfrwt>
<totfact> 0.20231261E+03</totfact>
</mgrwt>
</event>
<event>
 6    1  0.1780144E-005  0.2236937E+04  0.7818608E-02  0.8503209E-01
         -2   -1    0    0    0  501 -0.00000000000E+00  0.00000000000E+00  0.46013174295E+03  0.46013174295E+03  0.00000000000E+00 0.  1.
          2   -1    0    0  501    0  0.00000000000E+00 -0.00000000000E+00 -0.27187263072E+04  0.27187263072E+04  0.00000000000E+00 0. -1.
         23    2    1    2    0    0 -0.25334533796E+03 -0.62971098497E+02 -0.26740247335E+04  0.26882141416E+04  0.89094200288E+02 0.  0.
         11    1    3    3    0    0 -0.66887289510E+02  0.17071186896E+02 -0.50045210215E+03  0.50519069812E+03  0.00000000000E+00 0.  1.
        -11    1    3    3    0    0 -0.18645804845E+03 -0.80042285393E+02 -0.21735726313E+04  0.21830234435E+04  0.00000000000E+00 0. -1.
         22    1    1    2    0    0  0.25334533796E+03  0.62971098497E+02  0.41543016920E+03  0.49064390855E+03  0.00000000000E+00 0.  1.
<mgrwt>
<rscale>  0 0.22369374E+04</rscale>
<asrwt>0</asrwt>
<pdfrwt beam="1">  1        2 0.41826559E+00 0.22369374E+04</pdfrwt>
<pdfrwt beam="2">  1       -2 0.70789498E-01 0.22369374E+04</pdfrwt>
<totfact> 0.42793356E+00</totfact>
</mgrwt>
</event>
<event>
 6    1  0.1780144E-005  0.2270259E+04  0.7818608E-02  0.8489741E-01
         -2   -1    0    0    0  501 -0.00000000000E+00  0.00000000000E+00  0.13390933068E+04  0.13390933068E+04  0.00000000000E+00 0.  1.
          2   -1    0    0  501    0  0.00000000000E+00 -0.00000000000E+00 -0.96223279446E+03  0.96223279446E+03  0.00000000000E+00 0. -1.
         23    2    1    2    0    0  0.20654020287E+03 -0.35422527256E+03 -0.88224614255E+03  0.97713428451E+03  0.91097501634E+02 0.  0.
         11    1    3    3    0    0  0.11363533781E+03 -0.15993040084E+03 -0.51899402877E+03  0.55483828726E+03  0.00000000000E+00 0. -1.
        -11    1    3    3    0    0  0.92904865065E+02 -0.19429487172E+03 -0.36325211378E+03  0.42229599725E+03  0.00000000000E+00 0.  1.
         22    1    1    2    0    0 -0.20654020287E+03  0.35422527256E+03  0.12591066549E+04  0.13241918168E+04  0.00000000000E+00 0.  1.
<mgrwt>
<rscale>  0 0.22702595E+04</rscale>
<asrwt>0</asrwt>
<pdfrwt beam="1">  1        2 0.14803581E+00 0.22702595E+04</pdfrwt>
<pdfrwt beam="2">  1       -2 0.20601435E+00 0.22702595E+04</pdfrwt>
<totfact> 0.29422122E+00</totfact>
</mgrwt>
</event>
<event>
 6    1  0.1780144E-005  0.1014935E+04  0.7818608E-02  0.9292315E-01
         -1   -1    0    0    0  501 -0.00000000000E+00  0.00000000000E+00  0.27780899850E+03  0.27780899850E+03  0.00000000000E+00 0.  1.
          1   -1    0    0  501    0  0.00000000000E+00 -0.00000000000E+00 -0.92697900387E+03  0.92697900387E+03  0.00000000000E+00 0. -1.
         23    2    1    2    0    0  0.12971303311E+03 -0.13537258839E+03  0.22776316047E+03  0.30803665111E+03  0.88652763733E+02 0.  0.
         13    1    3    3    0    0  0.48974683304E+02 -0.66527125905E+02  0.16560275888E+03  0.18506391284E+03  0.00000000000E+00 0. -1.
        -13    1    3    3    0    0  0.80738349802E+02 -0.68845462481E+02  0.62160401588E+02  0.12297273827E+03  0.00000000000E+00 0.  1.
         22    1    1    2    0    0 -0.12971303311E+03  0.13537258839E+03 -0.87693316584E+03  0.89675135126E+03  0.00000000000E+00 0. -1.
<mgrwt>
<rscale>  0 0.10149347E+04</rscale>
<asrwt>0</asrwt>
<pdfrwt beam="1">  1        1 0.14261216E+00 0.10149347E+04</pdfrwt>
<pdfrwt beam="2">  1       -1 0.42739846E-01 0.10149347E+04</pdfrwt>
<totfact> 0.93334976E+01</totfact>
</mgrwt>
</event>
<event>
 6    1  0.1780144E-005  0.1309754E+04  0.7818608E-02  0.9021866E-01
         -2   -1    0    0    0  501 -0.00000000000E+00  0.00000000000E+00  0.33465367809E+03  0.33465367809E+03  0.00000000000E+00 0.  1.
          2   -1    0    0  501    0  0.00000000000E+00 -0.00000000000E+00 -0.12815146261E+04  0.12815146261E+04  0.00000000000E+00 0. -1.
         23    2    1    2    0    0  0.31448781980E+02 -0.48822115785E+03  0.57722539568E+02  0.49878882148E+03  0.78163111542E+02 0.  0.
         13    1    3    3    0    0  0.33606841201E+02 -0.13441048415E+03 -0.85770986806E+01  0.13881341666E+03  0.00000000000E+00 0.  1.
        -13    1    3    3    0    0 -0.21580592204E+01 -0.35381067370E+03  0.66299638249E+02  0.35997540482E+03  0.00000000000E+00 0. -1.
         22    1    1    2    0    0 -0.31448781980E+02  0.48822115785E+03 -0.10045834875E+04  0.11173794827E+04  0.00000000000E+00 0. -1.
<mgrwt>
<rscale>  0 0.13097535E+04</rscale>
<asrwt>0</asrwt>
<pdfrwt beam="1">  1        2 0.19715610E+00 0.13097535E+04</pdfrwt>
<pdfrwt beam="2">  1       -2 0.51485181E-01 0.13097535E+04</pdfrwt>
<totfact> 0.59152548E+01</totfact>
</mgrwt>
</event>
<event>
 6    1  0.1780144E-005  0.2584590E+04  0.7818608E-02  0.8373454E-01
          1   -1    0    0  501    0  0.00000000000E+00  0.00000000000E+00  0.17276854638E+04  0.17276854638E+04  0.00000000000E+00 0. -1.
         -1   -1    0    0    0  501 -0.00000000000E+00 -0.00000000000E+00 -0.96662661869E+03  0.96662661869E+03  0.00000000000E+00 0.  1.
         23    2    1    2    0    0  0.18020877267E+01  0.54556721982E+03  0.16003351846E+04  0.16932967914E+04  0.92382259214E+02 0.  0.
         11    1    3    3    0    0  0.65330083681E+01  0.45465968931E+02  0.23020014422E+03  0.23473802616E+03  0.00000000000E+00 0.  1.
        -11    1    3    3    0    0 -0.47309206414E+01  0.50010125089E+03  0.13701350404E+04  0.14585587652E+04  0.00000000000E+00 0. -1.
         22    1    1    2    0    0 -0.18020877267E+01 -0.54556721982E+03 -0.83927633952E+03  0.10010152911E+04  0.00000000000E+00 0.  1.
<mgrwt>
<rscale>  0 0.25845903E+04</rscale>
<asrwt>0</asrwt>
<pdfrwt beam="1">  1        1 0.26579776E+00 0.25845903E+04</pdfrwt>
<pdfrwt beam="2">  1       -1 0.14871179E+00 0.25845903E+04</pdfrwt>
<totfact> 0.14370742E+00</totfact>
</mgrwt>
</event>
<event>
 6    1  0.1780144E-005  0.2000344E+04  0.7818608E-02  0.8606460E-01
         -2   -1    0    0    0  501 -0.00000000000E+00  0.00000000000E+00  0.59099200901E+03  0.59099200901E+03  0.00000000000E+00 0.  1.
          2   -1    0    0  501    0  0.00000000000E+00 -0.00000000000E+00 -0.16926518304E+04  0.16926518304E+04  0.00000000000E+00 0. -1.
         23    2    1    2    0    0 -0.84835982746E+03  0.22024082263E+01  0.48266237272E+02  0.85464097454E+03  0.91445712016E+02 0.  0.
         13    1    3    3    0    0 -0.54119361936E+03  0.11017213407E+00  0.74734599419E+02  0.54632939343E+03  0.00000000000E+00 0.  1.
        -13    1    3    3    0    0 -0.30716620809E+03  0.20922360922E+01 -0.26468362147E+02  0.30831158110E+03  0.00000000000E+00 0. -1.
         22    1    1    2    0    0  0.84835982746E+03 -0.22024082263E+01 -0.11499260587E+04  0.14290028649E+04  0.00000000000E+00 0. -1.
<mgrwt>
<rscale>  0 0.20003437E+04</rscale>
<asrwt>0</asrwt>
<pdfrwt beam="1">  1        2 0.26040797E+00 0.20003437E+04</pdfrwt>
<pdfrwt beam="2">  1       -2 0.90921848E-01 0.20003437E+04</pdfrwt>
<totfact> 0.94933300E+00</totfact>
</mgrwt>
</event>
<event>
 6    1  0.1780144E-005  0.1871050E+04  0.7818608E-02  0.8669402E-01
         -1   -1    0    0    0  501 -0.00000000000E+00  0.00000000000E+00  0.10019339235E+04  0.10019339235E+04  0.00000000000E+00 0.  1.
          1   -1    0    0  501    0  0.00000000000E+00 -0.00000000000E+00 -0.87351796303E+03  0.87351796303E+03  0.00000000000E+00 0. -1.
         23    2    1    2    0    0 -0.71553650926E+03  0.30007916373E+03  0.58416687465E+03  0.97559139931E+03  0.92128390716E+02 0.  0.
         11    1    3    3    0    0 -0.51007843033E+03  0.22197954375E+03  0.36594857966E+03  0.66586281311E+03  0.00000000000E+00 0. -1.
        -11    1    3    3    0    0 -0.20545807893E+03  0.78099619981E+02  0.21821829498E+03  0.30972858620E+03  0.00000000000E+00 0.  1.
         22    1    1    2    0    0  0.71553650926E+03 -0.30007916373E+03 -0.45575091421E+03  0.89986048718E+03  0.00000000000E+00 0. -1.
<mgrwt>
<rscale>  0 0.18710503E+04</rscale>
<asrwt>0</asrwt>
<pdfrwt beam="1">  1        1 0.13438738E+00 0.18710503E+04</pdfrwt>
<pdfrwt beam="2">  1       -1 0.15414368E+00 0.18710503E+04</pdfrwt>
<totfact> 0.58162221E+00</totfact>
</mgrwt>
</event>
<event>
 6    1  0.1780144E-005  0.3239886E+04  0.7818608E-02  0.8178362E-01
         -2   -1    0    0    0  501 -0.00000000000E+00  0.00000000000E+00  0.99162587885E+03  0.99162587885E+03  0.00000000000E+00 0.  1.
          2   -1    0    0  501    0  0.00000000000E+00 -0.00000000000E+00 -0.26463758689E+04  0.26463758689E+04  0.00000000000E+00 0. -1.
         23    2    1    2    0    0 -0.15603452220E+04 -0.27245578795E+03 -0.45337127237E+03  0.16499825850E+04  0.89373663686E+02 0.  0.
         11    1    3    3    0    0 -0.12796322590E+04 -0.25790581658E+03 -0.36989515600E+03  0.13567595789E+04  0.00000000000E+00 0.  1.
        -11    1    3    3    0    0 -0.28071296300E+03 -0.14549971371E+02 -0.83476116373E+02  0.29322300603E+03  0.00000000000E+00 0. -1.
         22    1    1    2    0    0  0.15603452220E+04  0.27245578795E+03 -0.12013787177E+04  0.19880191628E+04  0.00000000000E+00 0.  1.
<mgrwt>
<rscale>  0 0.32398857E+04</rscale>
<asrwt>0</asrwt>
<pdfrwt beam="1">  1        2 0.40713475E+00 0.32398857E+04</pdfrwt>
<pdfrwt beam="2">  1       -2 0.15255783E+00 0.32398857E+04</pdfrwt>
<totfact> 0.68675205E-01</totfact>
</mgrwt>
</event>
<event>
 6    1  0.1780144E-005  0.4213012E+04  0.7818608E-02  0.7962902E-01
         -2   -1    0    0    0  501 -0.00000000000E+00  0.00000000000E+00  0.14749495425E+04  0.14749495425E+04  0.00000000000E+00 0.  1.
          2   -1    0    0  501    0  0.00000000000E+00 -0.00000000000E+00 -0.30084870516E+04  0.30084870516E+04  0.00000000000E+00 0. -1.
         23    2    1    2    0    0  0.17171384892E+04  0.12848862021E+03 -0.20567120970E+04  0.26837739685E+04  0.86626482878E+02 0.  0.
         13    1    3    3    0    0  0.59491183902E+03  0.85904289248E+02 -0.71638127639E+03  0.93514799700E+03  0.00000000000E+00 0.  1.
        -13    1    3    3    0    0  0.11222266502E+04  0.42584330966E+02 -0.13403308206E+04  0.17486259715E+04  0.00000000000E+00 0. -1.
         22    1    1    2    0    0 -0.17171384892E+04 -0.12848862021E+03  0.52317458795E+03  0.17996626256E+04  0.00000000000E+00 0.  1.
<mgrwt>
<rscale>  0 0.42130116E+04</rscale>
<asrwt>0</asrwt>
<pdfrwt beam="1">  1        2 0.46284416E+00 0.42130116E+04</pdfrwt>
<pdfrwt beam="2">  1       -2 0.22691531E+00 0.42130116E+04</pdfrwt>
<totfact> 0.11915402E-01</totfact>
</mgrwt>
</event>
<event>
 6    1  0.1780144E-005  0.8434749E+03  0.7818608E-02  0.9499137E-01
          2   -1    0    0  501    0  0.00000000000E+00  0.00000000000E+00  0.62013163818E+03  0.62013163818E+03  0.00000000000E+00 0. -1.
         -2   -1    0    0    0  501 -0.00000000000E+00 -0.00000000000E+00 -0.28681408283E+03  0.28681408283E+03  0.00000000000E+00 0.  1.
         23    2    1    2    0    0 -0.28979538824E+03 -0.28720952499E+03  0.77385342079E+02  0.42531102949E+03  0.91816677937E+02 0.  0.
         11    1    3    3    0    0 -0.16310129260E+03 -0.97298871027E+02  0.34812594017E+02  0.19308293206E+03  0.00000000000E+00 0. -1.
        -11    1    3    3    0    0 -0.12669409564E+03 -0.18991065396E+03  0.42572748061E+02  0.23222809743E+03  0.00000000000E+00 0.  1.
         22    1    1    2    0    0  0.28979538824E+03  0.28720952499E+03  0.25593221326E+03  0.48163469152E+03  0.00000000000E+00 0.  1.
<mgrwt>
<rscale>  0 0.84347492E+03</rscale>
<asrwt>0</asrwt>
<pdfrwt beam="1">  1        2 0.95404867E-01 0.84347492E+03</pdfrwt>
<pdfrwt beam="2">  1       -2 0.44125244E-01 0.84347492E+03</pdfrwt>
<totfact> 0.23321983E+02</totfact>
</mgrwt>
</event>
<event>
 6    1  0.1780144E-005  0.1507593E+04  0.7818608E-02  0.8879420E-01
          2   -1    0    0  501    0  0.00000000000E+00  0.00000000000E+00  0.19035763928E+04  0.19035763928E+04  0.00000000000E+00 0. -1.
         -2   -1    0    0    0  501 -0.00000000000E+00 -0.00000000000E+00 -0.29849546588E+03  0.29849546588E+03  0.00000000000E+00 0.  1.
         23    2    1    2    0    0  0.42304404726E+03  0.68069191169E+02 -0.95237769299E+02  0.44859435686E+03  0.92558001249E+02 0.  0.
         11    1    3    3    0    0  0.30516048983E+03  0.68758806826E+02 -0.31001453169E+02  0.31434342393E+03  0.00000000000E+00 0.  1.
        -11    1    3    3    0    0  0.11788355743E+03 -0.68961565776E+00 -0.64236316131E+02  0.13425093293E+03  0.00000000000E+00 0. -1.
         22    1    1    2    0    0 -0.42304404726E+03 -0.68069191169E+02  0.17003186963E+04  0.17534775019E+04  0.00000000000E+00 0. -1.
<mgrwt>
<rscale>  0 0.15075927E+04</rscale>
<asrwt>0</asrwt>
<pdfrwt beam="1">  1        2 0.29285790E+00 0.15075927E+04</pdfrwt>
<pdfrwt beam="2">  1       -2 0.45922381E-01 0.15075927E+04</pdfrwt>
<totfact> 0.32823762E+01</totfact>
</mgrwt>
</event>
<event>
 6    1  0.1780144E-005  0.2001894E+04  0.7818608E-02  0.8605736E-01
         -2   -1    0    0    0  501 -0.00000000000E+00  0.00000000000E+00  0.86544744587E+03  0.86544744587E+03  0.00000000000E+00 0.  1.
          2   -1    0    0  501    0  0.00000000000E+00 -0.00000000000E+00 -0.11576615720E+04  0.11576615720E+04  0.00000000000E+00 0. -1.
         23    2    1    2    0    0  0.25332971615E+03  0.13175986190E+03 -0.11136339509E+04  0.11534728095E+04  0.93714137324E+02 0.  0.
         13    1    3    3    0    0  0.76095140128E+02  0.58056944757E+02 -0.54432241126E+03  0.55267347194E+03  0.00000000000E+00 0. -1.
        -13    1    3    3    0    0  0.17723457602E+03  0.73702917147E+02 -0.56931153960E+03  0.60079933760E+03  0.00000000000E+00 0.  1.
         22    1    1    2    0    0 -0.25332971615E+03 -0.13175986190E+03  0.82141982476E+03  0.86963620831E+03  0.00000000000E+00 0.  1.
<mgrwt>
<rscale>  0 0.20018944E+04</rscale>
<asrwt>0</asrwt>
<pdfrwt beam="1">  1        2 0.17810178E+00 0.20018944E+04</pdfrwt>
<pdfrwt beam="2">  1       -2 0.13314576E+00 0.20018944E+04</pdfrwt>
<totfact> 0.76264200E+00</totfact>
</mgrwt>
</event>
<event>
 6    1  0.1780144E-005  0.5501482E+03  0.7818608E-02  0.1001460E+00
         -3   -1    0    0    0  501 -0.00000000000E+00  0.00000000000E+00  0.33078513413E+03  0.33078513413E+03  0.00000000000E+00 0.  1.
          3   -1    0    0  501    0  0.00000000000E+00 -0.00000000000E+00 -0.22874595626E+03  0.22874595626E+03  0.00000000000E+00 0. -1.
         23    2    1    2    0    0  0.26162323660E+03  0.35394911952E+01  0.10958259746E+03  0.29777519436E+03  0.90567515076E+02 0.  0.
         11    1    3    3    0    0  0.90502063322E+01 -0.21229812232E+02  0.82684986933E+01  0.24514877783E+02  0.00000000000E+00 0.  1.
        -11    1    3    3    0    0  0.25257303026E+03  0.24769303427E+02  0.10131409877E+03  0.27326031658E+03  0.00000000000E+00 0. -1.
         22    1    1    2    0    0 -0.26162323660E+03 -0.35394911952E+01 -0.75434195888E+01  0.26175589603E+03  0.00000000000E+00 0.  1.
<mgrwt>
<rscale>  0 0.55014820E+03</rscale>
<asrwt>0</asrwt>
<pdfrwt beam="1">  1        3 0.35191686E-01 0.55014820E+03</pdfrwt>
<pdfrwt beam="2">  1       -3 0.50890021E-01 0.55014820E+03</pdfrwt>
<totfact> 0.79977806E+01</totfact>
</mgrwt>
</event>
<event>
 6    1  0.1780144E-005  0.8820323E+03  0.7818608E-02  0.9448325E-01
         -1   -1    0    0    0  501 -0.00000000000E+00  0.00000000000E+00  0.12163042889E+04  0.12163042889E+04  0.00000000000E+00 0.  1.
          1   -1    0    0  501    0  0.00000000000E+00 -0.00000000000E+00 -0.15990674978E+03  0.15990674978E+03  0.00000000000E+00 0. -1.
         23    2    1    2    0    0 -0.38371003319E+03 -0.19554260456E+03  0.63999547461E+03  0.77716097474E+03  0.94417547998E+02 0.  0.
         11    1    3    3    0    0 -0.29077129601E+03 -0.18932292321E+03  0.48513065003E+03  0.59644183575E+03  0.00000000000E+00 0. -1.
        -11    1    3    3    0    0 -0.92938737182E+02 -0.62196813485E+01  0.15486482458E+03  0.18071913899E+03  0.00000000000E+00 0.  1.
         22    1    1    2    0    0  0.38371003319E+03  0.19554260456E+03  0.41640206452E+03  0.59905006394E+03  0.00000000000E+00 0.  1.
<mgrwt>
<rscale>  0 0.88203235E+03</rscale>
<asrwt>0</asrwt>
<pdfrwt beam="1">  1        1 0.24601039E-01 0.88203235E+03</pdfrwt>
<pdfrwt beam="2">  1       -1 0.18712373E+00 0.88203235E+03</pdfrwt>
<totfact> 0.37378177E+01</totfact>
</mgrwt>
</event>
<event>
 6    1  0.1780144E-005  0.4132123E+04  0.7818608E-02  0.7978411E-01
          2   -1    0    0  501    0  0.00000000000E+00  0.00000000000E+00  0.19425825533E+04  0.19425825533E+04  0.00000000000E+00 0. -1.
         -2   -1    0    0    0  501 -0.00000000000E+00 -0.00000000000E+00 -0.21973890735E+04  0.21973890735E+04  0.00000000000E+00 0.  1.
         23    2    1    2    0    0  0.23883430790E+03  0.43523638963E+03 -0.21357463424E+04  0.21946163492E+04  0.91956182251E+02 0.  0.
         11    1    3    3    0    0  0.28247584388E+02  0.92569115029E+02 -0.29609115745E+03  0.31150752896E+03  0.00000000000E+00 0. -1.
        -11    1    3    3    0    0  0.21058672351E+03  0.34266727461E+03 -0.18396551850E+04  0.18831088202E+04  0.00000000000E+00 0.  1.
         22    1    1    2    0    0 -0.23883430790E+03 -0.43523638963E+03  0.18809398222E+04  0.19453552776E+04  0.00000000000E+00 0. -1.
<mgrwt>
<rscale>  0 0.41321228E+04</rscale>
<asrwt>0</asrwt>
<pdfrwt beam="1">  1        2 0.29885886E+00 0.41321228E+04</pdfrwt>
<pdfrwt beam="2">  1       -2 0.33805986E+00 0.41321228E+04</pdfrwt>
<totfact> 0.10377007E-01</totfact>
</mgrwt>
</event>
<event>
 6    1  0.1780144E-005  0.2077711E+04  0.7818608E-02  0.8571126E-01
          1   -1    0    0  501    0  0.00000000000E+00  0.00000000000E+00  0.18328919177E+04  0.18328919177E+04  0.00000000000E+00 0. -1.
         -1   -1    0    0    0  501 -0.00000000000E+00 -0.00000000000E+00 -0.58880779883E+03  0.58880779883E+03  0.00000000000E+00 0.  1.
         23    2    1    2    0    0  0.81112868933E+03 -0.40817001009E+03  0.40279812883E+02  0.91382793323E+03  0.94480264816E+02 0.  0.
         13    1    3    3    0    0  0.20013786166E+03 -0.72290653946E+02 -0.21461729335E+02  0.21387311225E+03  0.00000000000E+00 0.  1.
        -13    1    3    3    0    0  0.61099082766E+03 -0.33587935614E+03  0.61741542218E+02  0.69995482097E+03  0.00000000000E+00 0. -1.
         22    1    1    2    0    0 -0.81112868933E+03  0.40817001009E+03  0.12038043060E+04  0.15078717833E+04  0.00000000000E+00 0. -1.
<mgrwt>
<rscale>  0 0.20777113E+04</rscale>
<asrwt>0</asrwt>
<pdfrwt beam="1">  1        1 0.28198337E+00 0.20777113E+04</pdfrwt>
<pdfrwt beam="2">  1       -1 0.90585816E-01 0.20777113E+04</pdfrwt>
<totfact> 0.42451683E+00</totfact>
</mgrwt>
</event>
<event>
 6    1  0.1780144E-005  0.1756341E+04  0.7818608E-02  0.8729868E-01
          2   -1    0    0  501    0  0.00000000000E+00  0.00000000000E+00  0.29260068961E+04  0.29260068961E+04  0.00000000000E+00 0. -1.
         -2   -1    0    0    0  501 -0.00000000000E+00 -0.00000000000E+00 -0.26356164897E+03  0.26356164897E+03  0.00000000000E+00 0.  1.
         23    2    1    2    0    0 -0.30459352091E+03  0.31269724997E+03  0.27135957920E+04  0.27500538566E+04  0.92937121289E+02 0.  0.
         11    1    3    3    0    0 -0.14391568765E+03  0.18298353916E+03  0.16778455194E+04  0.16939186190E+04  0.00000000000E+00 0.  1.
        -11    1    3    3    0    0 -0.16067783326E+03  0.12971371080E+03  0.10357502726E+04  0.10561352376E+04  0.00000000000E+00 0. -1.
         22    1    1    2    0    0  0.30459352091E+03 -0.31269724997E+03 -0.51150544937E+02  0.43951468845E+03  0.00000000000E+00 0.  1.
<mgrwt>
<rscale>  0 0.17563407E+04</rscale>
<asrwt>0</asrwt>
<pdfrwt beam="1">  1        2 0.45015488E+00 0.17563407E+04</pdfrwt>
<pdfrwt beam="2">  1       -2 0.40547948E-01 0.17563407E+04</pdfrwt>
<totfact> 0.10601616E+01</totfact>
</mgrwt>
</event>
<event>
 6    1  0.1780144E-005  0.2783914E+04  0.7818608E-02  0.8308280E-01
          2   -1    0    0  501    0  0.00000000000E+00  0.00000000000E+00  0.20503262504E+04  0.20503262504E+04  0.00000000000E+00 0. -1.
         -2   -1    0    0    0  501 -0.00000000000E+00 -0.00000000000E+00 -0.94499298344E+03  0.94499298344E+03  0.00000000000E+00 0.  1.
         23    2    1    2    0    0 -0.76017219318E+03  0.46753009980E+03  0.17004792014E+04  0.19226380880E+04  0.91986660419E+02 0.  0.
         13    1    3    3    0    0 -0.35347498266E+03  0.27049568525E+03  0.86167400532E+03  0.96984254936E+03  0.00000000000E+00 0. -1.
        -13    1    3    3    0    0 -0.40669721052E+03  0.19703441455E+03  0.83880519603E+03  0.95279553864E+03  0.00000000000E+00 0.  1.
         22    1    1    2    0    0  0.76017219318E+03 -0.46753009980E+03 -0.59514593436E+03  0.10726811459E+04  0.00000000000E+00 0.  1.
<mgrwt>
<rscale>  0 0.27839137E+04</rscale>
<asrwt>0</asrwt>
<pdfrwt beam="1">  1        2 0.31543481E+00 0.27839137E+04</pdfrwt>
<pdfrwt beam="2">  1       -2 0.14538354E+00 0.27839137E+04</pdfrwt>
<totfact> 0.17759531E+00</totfact>
</mgrwt>
</event>
<event>
 6    1  0.1780144E-005  0.4510310E+03  0.7818608E-02  0.1027415E+00
          1   -1    0    0  501    0  0.00000000000E+00  0.00000000000E+00  0.11338882695E+04  0.11338882695E+04  0.00000000000E+00 0. -1.
         -1   -1    0    0    0  501 -0.00000000000E+00 -0.00000000000E+00 -0.44852074384E+02  0.44852074384E+02  0.00000000000E+00 0.  1.
         23    2    1    2    0    0 -0.17039422230E+03  0.43676964399E+02  0.88557935893E+03  0.90978578934E+03  0.11188169342E+03 0.  0.
         11    1    3    3    0    0 -0.91536306505E+02  0.76851359965E+02  0.59445878598E+03  0.60635490859E+03  0.00000000000E+00 0. -1.
        -11    1    3    3    0    0 -0.78857915796E+02 -0.33174395566E+02  0.29112057295E+03  0.30343088076E+03  0.00000000000E+00 0.  1.
         22    1    1    2    0    0  0.17039422230E+03 -0.43676964399E+02  0.20345683617E+03  0.26895455452E+03  0.00000000000E+00 0.  1.
<mgrwt>
<rscale>  0 0.45103100E+03</rscale>
<asrwt>0</asrwt>
<pdfrwt beam="1">  1        1 0.17444433E+00 0.45103100E+03</pdfrwt>
<pdfrwt beam="2">  1       -1 0.69003200E-02 0.45103100E+03</pdfrwt>
<totfact> 0.13729226E+03</totfact>
</mgrwt>
</event>
<event>
 6    1  0.1780144E-005  0.3908900E+04  0.7818608E-02  0.8023181E-01
         -1   -1    0    0    0  501 -0.00000000000E+00  0.00000000000E+00  0.11074749345E+04  0.11074749345E+04  0.00000000000E+00 0.  1.
          1   -1    0    0  501    0  0.00000000000E+00 -0.00000000000E+00 -0.34491753389E+04  0.34491753389E+04  0.00000000000E+00 0. -1.
         23    2    1    2    0    0  0.46632094376E+03 -0.43551333006E+03  0.98064246757E+03  0.11735911190E+04  0.92354654257E+02 0.  0.
         13    1    3    3    0    0  0.35837772671E+03 -0.27847899410E+03  0.70688147436E+03  0.84003962047E+03  0.00000000000E+00 0. -1.
        -13    1    3    3    0    0  0.10794321705E+03 -0.15703433595E+03  0.27376099321E+03  0.33355149854E+03  0.00000000000E+00 0.  1.
         22    1    1    2    0    0 -0.46632094376E+03  0.43551333006E+03 -0.33223428719E+04  0.33830591544E+04  0.00000000000E+00 0. -1.
<mgrwt>
<rscale>  0 0.39089002E+04</rscale>
<asrwt>0</asrwt>
<pdfrwt beam="1">  1        1 0.53064235E+00 0.39089002E+04</pdfrwt>
<pdfrwt beam="2">  1       -1 0.17038076E+00 0.39089002E+04</pdfrwt>
<totfact> 0.52731970E-02</totfact>
</mgrwt>
</event>
<event>
 6    1  0.1780144E-005  0.3365123E+04  0.7818608E-02  0.8146520E-01
         -1   -1    0    0    0  501 -0.00000000000E+00  0.00000000000E+00  0.12103683772E+04  0.12103683772E+04  0.00000000000E+00 0.  1.
          1   -1    0    0  501    0  0.00000000000E+00 -0.00000000000E+00 -0.23389683844E+04  0.23389683844E+04  0.00000000000E+00 0. -1.
         23    2    1    2    0    0 -0.12470222916E+04  0.81705052141E+03 -0.13846157651E+04  0.20366635587E+04  0.90562044949E+02 0.  0.
         11    1    3    3    0    0 -0.71140988472E+03  0.44229905481E+03 -0.83239121384E+03  0.11809350578E+04  0.00000000000E+00 0.  1.
        -11    1    3    3    0    0 -0.53561240690E+03  0.37475146661E+03 -0.55222455129E+03  0.85572850087E+03  0.00000000000E+00 0. -1.
         22    1    1    2    0    0  0.12470222916E+04 -0.81705052141E+03  0.25601575797E+03  0.15126732029E+04  0.00000000000E+00 0.  1.
<mgrwt>
<rscale>  0 0.33651231E+04</rscale>
<asrwt>0</asrwt>
<pdfrwt beam="1">  1        1 0.35984129E+00 0.33651231E+04</pdfrwt>
<pdfrwt beam="2">  1       -1 0.18621052E+00 0.33651231E+04</pdfrwt>
<totfact> 0.27131867E-01</totfact>
</mgrwt>
</event>
<event>
 6    1  0.1780144E-005  0.7287711E+03  0.7818608E-02  0.9669257E-01
          2   -1    0    0  501    0  0.00000000000E+00  0.00000000000E+00  0.10494350610E+04  0.10494350610E+04  0.00000000000E+00 0. -1.
         -2   -1    0    0    0  501 -0.00000000000E+00 -0.00000000000E+00 -0.12652220029E+03  0.12652220029E+03  0.00000000000E+00 0.  1.
         23    2    1    2    0    0  0.18826708280E+03  0.14523882643E+03  0.35406776481E+02  0.25715050211E+03  0.91290359553E+02 0.  0.
         11    1    3    3    0    0  0.10507040707E+03  0.69124740948E+02 -0.26474175174E+02  0.12852588146E+03  0.00000000000E+00 0. -1.
        -11    1    3    3    0    0  0.83196675728E+02  0.76114085487E+02  0.61880951655E+02  0.12862462066E+03  0.00000000000E+00 0.  1.
         22    1    1    2    0    0 -0.18826708280E+03 -0.14523882643E+03  0.88750608424E+03  0.91880675919E+03  0.00000000000E+00 0. -1.
<mgrwt>
<rscale>  0 0.72877111E+03</rscale>
<asrwt>0</asrwt>
<pdfrwt beam="1">  1        2 0.16145154E+00 0.72877111E+03</pdfrwt>
<pdfrwt beam="2">  1       -2 0.19464955E-01 0.72877111E+03</pdfrwt>
<totfact> 0.52787463E+02</totfact>
</mgrwt>
</event>
<event>
 6    1  0.1780144E-005  0.1710751E+04  0.7818608E-02  0.8755256E-01
          1   -1    0    0  501    0  0.00000000000E+00  0.00000000000E+00  0.81491201369E+03  0.81491201369E+03  0.00000000000E+00 0. -1.
         -1   -1    0    0    0  501 -0.00000000000E+00 -0.00000000000E+00 -0.89784796201E+03  0.89784796201E+03  0.00000000000E+00 0.  1.
         23    2    1    2    0    0  0.59930626041E+03 -0.19753704507E+03 -0.61611145219E+03  0.88664557934E+03  0.91423103766E+02 0.  0.
         11    1    3    3    0    0  0.39566317919E+03 -0.15400181088E+03 -0.46280319387E+03  0.62805469935E+03  0.00000000000E+00 0.  1.
        -11    1    3    3    0    0  0.20364308122E+03 -0.43535234193E+02 -0.15330825832E+03  0.25859087999E+03  0.00000000000E+00 0. -1.
         22    1    1    2    0    0 -0.59930626041E+03  0.19753704507E+03  0.53317550387E+03  0.82611439636E+03  0.00000000000E+00 0. -1.
<mgrwt>
<rscale>  0 0.17107508E+04</rscale>
<asrwt>0</asrwt>
<pdfrwt beam="1">  1        1 0.12537108E+00 0.17107508E+04</pdfrwt>
<pdfrwt beam="2">  1       -1 0.13813046E+00 0.17107508E+04</pdfrwt>
<totfact> 0.88589568E+00</totfact>
</mgrwt>
</event>
<event>
 6    1  0.1780144E-005  0.1992085E+04  0.7818608E-02  0.8610330E-01
          2   -1    0    0  501    0  0.00000000000E+00  0.00000000000E+00  0.11336363645E+04  0.11336363645E+04  0.00000000000E+00 0. -1.
         -2   -1    0    0    0  501 -0.00000000000E+00 -0.00000000000E+00 -0.87514874639E+03  0.87514874639E+03  0.00000000000E+00 0.  1.
         23    2    1    2    0    0 -0.96422394163E+03 -0.17698512082E+03  0.29511114116E+03  0.10277688904E+04  0.90370148576E+02 0.  0.
         13    1    3    3    0    0 -0.80489272109E+02 -0.24882382165E+02  0.17222782046E+01  0.84265189189E+02  0.00000000000E+00 0.  1.
        -13    1    3    3    0    0 -0.88373466952E+03 -0.15210273865E+03  0.29338886295E+03  0.94350370117E+03  0.00000000000E+00 0. -1.
         22    1    1    2    0    0  0.96422394163E+03  0.17698512082E+03 -0.36623522996E+02  0.98101622058E+03  0.00000000000E+00 0. -1.
<mgrwt>
<rscale>  0 0.19920848E+04</rscale>
<asrwt>0</asrwt>
<pdfrwt beam="1">  1        2 0.17440560E+00 0.19920848E+04</pdfrwt>
<pdfrwt beam="2">  1       -2 0.13463827E+00 0.19920848E+04</pdfrwt>
<totfact> 0.76721493E+00</totfact>
</mgrwt>
</event>
<event>
 6    1  0.1780144E-005  0.2245467E+04  0.7818608E-02  0.8499739E-01
          3   -1    0    0  501    0  0.00000000000E+00  0.00000000000E+00  0.16989000982E+04  0.16989000982E+04  0.00000000000E+00 0. -1.
         -3   -1    0    0    0  501 -0.00000000000E+00 -0.00000000000E+00 -0.74196827822E+03  0.74196827822E+03  0.00000000000E+00 0.  1.
         23    2    1    2    0    0  0.10979266129E+04 -0.64285641668E+02  0.24418986250E+03  0.11303049140E+04  0.91569746733E+02 0.  0.
         13    1    3    3    0    0  0.66084150344E+03 -0.27374253246E+02  0.10221608541E+03  0.66926001712E+03  0.00000000000E+00 0. -1.
        -13    1    3    3    0    0  0.43708510950E+03 -0.36911388423E+02  0.14197377709E+03  0.46104489686E+03  0.00000000000E+00 0.  1.
         22    1    1    2    0    0 -0.10979266129E+04  0.64285641668E+02  0.71274195747E+03  0.13105634624E+04  0.00000000000E+00 0. -1.
<mgrwt>
<rscale>  0 0.22454665E+04</rscale>
<asrwt>0</asrwt>
<pdfrwt beam="1">  1        3 0.26136924E+00 0.22454665E+04</pdfrwt>
<pdfrwt beam="2">  1       -3 0.11414897E+00 0.22454665E+04</pdfrwt>
<totfact> 0.96458943E-02</totfact>
</mgrwt>
</event>
<event>
 6    1  0.1780144E-005  0.2210914E+04  0.7818608E-02  0.8513899E-01
         -2   -1    0    0    0  501 -0.00000000000E+00  0.00000000000E+00  0.15225264162E+04  0.15225264162E+04  0.00000000000E+00 0. -1.
          2   -1    0    0  501    0  0.00000000000E+00 -0.00000000000E+00 -0.80263644287E+03  0.80263644287E+03  0.00000000000E+00 0.  1.
         23    2    1    2    0    0 -0.62911498803E+03  0.13319323510E+01 -0.59308775244E+03  0.86924460910E+03  0.89697637417E+02 0.  0.
         13    1    3    3    0    0 -0.30339434120E+03 -0.13400489489E+02 -0.22798026112E+03  0.37974030449E+03  0.00000000000E+00 0. -1.
        -13    1    3    3    0    0 -0.32572064683E+03  0.14732421840E+02 -0.36510749132E+03  0.48950430462E+03  0.00000000000E+00 0.  1.
         22    1    1    2    0    0  0.62911498803E+03 -0.13319323510E+01  0.13129777258E+04  0.14559182500E+04  0.00000000000E+00 0. -1.
<mgrwt>
<rscale>  0 0.22109140E+04</rscale>
<asrwt>0</asrwt>
<pdfrwt beam="1">  1        2 0.12348253E+00 0.22109140E+04</pdfrwt>
<pdfrwt beam="2">  1       -2 0.23423483E+00 0.22109140E+04</pdfrwt>
<totfact> 0.25186926E+00</totfact>
</mgrwt>
</event>
<event>
 6    1  0.1822762E-005  0.2801848E+04  0.7818608E-02  0.8302695E-01
         -1   -1    0    0    0  501 -0.00000000000E+00  0.00000000000E+00  0.82707937440E+03  0.82707937440E+03  0.00000000000E+00 0.  1.
          1   -1    0    0  501    0  0.00000000000E+00 -0.00000000000E+00 -0.23729143692E+04  0.23729143692E+04  0.00000000000E+00 0. -1.
         23    2    1    2    0    0 -0.11522953406E+04 -0.60975360902E+03 -0.19201809663E+03  0.13205246139E+04  0.85617117542E+02 0.  0.
         11    1    3    3    0    0 -0.67724113272E+03 -0.36279325747E+03 -0.70694305062E+02  0.77153884172E+03  0.00000000000E+00 0. -1.
        -11    1    3    3    0    0 -0.47505420788E+03 -0.24696035155E+03 -0.12132379157E+03  0.54898577219E+03  0.00000000000E+00 0.  1.
         22    1    1    2    0    0  0.11522953406E+04  0.60975360902E+03 -0.13538168982E+04  0.18794691297E+04  0.00000000000E+00 0. -1.
<mgrwt>
<rscale>  0 0.28018483E+04</rscale>
<asrwt>0</asrwt>
<pdfrwt beam="1">  1        1 0.36506374E+00 0.28018483E+04</pdfrwt>
<pdfrwt beam="2">  1       -1 0.12724299E+00 0.28018483E+04</pdfrwt>
<totfact> 0.76814553E-01</totfact>
</mgrwt>
</event>
<event>
 6    1  0.1780144E-005  0.1938301E+04  0.7818608E-02  0.8636023E-01
          2   -1    0    0  501    0  0.00000000000E+00  0.00000000000E+00  0.16687300006E+04  0.16687300006E+04  0.00000000000E+00 0. -1.
         -2   -1    0    0    0  501 -0.00000000000E+00 -0.00000000000E+00 -0.56285457187E+03  0.56285457187E+03  0.00000000000E+00 0.  1.
         23    2    1    2    0    0 -0.69455366828E+03 -0.28494671522E+03 -0.14744663608E+03  0.77062063495E+03  0.92283388991E+02 0.  0.
         13    1    3    3    0    0 -0.42904563478E+03 -0.17277315451E+03 -0.44942646144E+02  0.46470481070E+03  0.00000000000E+00 0. -1.
        -13    1    3    3    0    0 -0.26550803350E+03 -0.11217356071E+03 -0.10250398993E+03  0.30591582425E+03  0.00000000000E+00 0.  1.
         22    1    1    2    0    0  0.69455366828E+03  0.28494671522E+03  0.12533220648E+04  0.14609639376E+04  0.00000000000E+00 0. -1.
<mgrwt>
<rscale>  0 0.19383006E+04</rscale>
<asrwt>0</asrwt>
<pdfrwt beam="1">  1        2 0.25672769E+00 0.19383006E+04</pdfrwt>
<pdfrwt beam="2">  1       -2 0.86593012E-01 0.19383006E+04</pdfrwt>
<totfact> 0.11007320E+01</totfact>
</mgrwt>
</event>
<event>
 6    1  0.1780144E-005  0.3187007E+04  0.7818608E-02  0.8192257E-01
          2   -1    0    0  501    0  0.00000000000E+00  0.00000000000E+00  0.14738797128E+04  0.14738797128E+04  0.00000000000E+00 0.  1.
         -2   -1    0    0    0  501 -0.00000000000E+00 -0.00000000000E+00 -0.17228365900E+04  0.17228365900E+04  0.00000000000E+00 0. -1.
         23    2    1    2    0    0 -0.43428695757E+03 -0.29086923714E+03  0.13838724357E+04  0.14822654753E+04  0.93797368456E+02 0.  0.
         11    1    3    3    0    0 -0.36112981984E+03 -0.24875059081E+03  0.10500516592E+04  0.11379367690E+04  0.00000000000E+00 0. -1.
        -11    1    3    3    0    0 -0.73157137730E+02 -0.42118646334E+02  0.33382077651E+03  0.34432870632E+03  0.00000000000E+00 0.  1.
         22    1    1    2    0    0  0.43428695757E+03  0.29086923714E+03 -0.16328293130E+04  0.17144508275E+04  0.00000000000E+00 0. -1.
<mgrwt>
<rscale>  0 0.31870073E+04</rscale>
<asrwt>0</asrwt>
<pdfrwt beam="1">  1        2 0.22675073E+00 0.31870073E+04</pdfrwt>
<pdfrwt beam="2">  1       -2 0.26505178E+00 0.31870073E+04</pdfrwt>
<totfact> 0.57527449E-01</totfact>
</mgrwt>
</event>
<event>
 6    1  0.1780144E-005  0.1627940E+04  0.7818608E-02  0.8803565E-01
         -2   -1    0    0    0  501 -0.00000000000E+00  0.00000000000E+00  0.13602292964E+04  0.13602292964E+04  0.00000000000E+00 0.  1.
          2   -1    0    0  501    0  0.00000000000E+00 -0.00000000000E+00 -0.48708514122E+03  0.48708514122E+03  0.00000000000E+00 0. -1.
         23    2    1    2    0    0  0.10243951907E+03 -0.76655614594E+03  0.15934726866E+03  0.79488478430E+03  0.91367873669E+02 0.  0.
         13    1    3    3    0    0  0.32496912868E+02 -0.17528449402E+03 -0.10097275729E+01  0.17827429075E+03  0.00000000000E+00 0. -1.
        -13    1    3    3    0    0  0.69942606200E+02 -0.59127165191E+03  0.16035699623E+03  0.61661049355E+03  0.00000000000E+00 0.  1.
         22    1    1    2    0    0 -0.10243951907E+03  0.76655614594E+03  0.71379688647E+03  0.10524296533E+04  0.00000000000E+00 0. -1.
<mgrwt>
<rscale>  0 0.16279404E+04</rscale>
<asrwt>0</asrwt>
<pdfrwt beam="1">  1        2 0.74936176E-01 0.16279404E+04</pdfrwt>
<pdfrwt beam="2">  1       -2 0.20926604E+00 0.16279404E+04</pdfrwt>
<totfact> 0.70257585E+00</totfact>
</mgrwt>
</event>
<event>
 6    1  0.1780144E-005  0.6692699E+04  0.7818608E-02  0.7609985E-01
         -2   -1    0    0    0  501 -0.00000000000E+00  0.00000000000E+00  0.56571934339E+04  0.56571934339E+04  0.00000000000E+00 0.  1.
          2   -1    0    0  501    0  0.00000000000E+00 -0.00000000000E+00 -0.19794362100E+04  0.19794362100E+04  0.00000000000E+00 0. -1.
         23    2    1    2    0    0  0.26016866394E+04  0.14650239885E+04  0.11657661124E+03  0.29893642100E+04  0.87404906561E+02 0.  0.
         13    1    3    3    0    0  0.18362892466E+04  0.10015101638E+04  0.53323164619E+02  0.20923250621E+04  0.00000000000E+00 0.  1.
        -13    1    3    3    0    0  0.76539739276E+03  0.46351382468E+03  0.63253446619E+02  0.89703914799E+03  0.00000000000E+00 0. -1.
         22    1    1    2    0    0 -0.26016866394E+04 -0.14650239885E+04  0.35611806126E+04  0.46472654338E+04  0.00000000000E+00 0.  1.
<mgrwt>
<rscale>  0 0.66926986E+04</rscale>
<asrwt>0</asrwt>
<pdfrwt beam="1">  1        2 0.30452865E+00 0.66926986E+04</pdfrwt>
<pdfrwt beam="2">  1       -2 0.87033744E+00 0.66926986E+04</pdfrwt>
<totfact> 0.89300416E-05</totfact>
</mgrwt>
</event>
<event>
 6    1  0.1780144E-005  0.5179746E+04  0.7818608E-02  0.7801362E-01
         -2   -1    0    0    0  501 -0.00000000000E+00  0.00000000000E+00  0.36432838551E+04  0.36432838551E+04  0.00000000000E+00 0.  1.
          2   -1    0    0  501    0  0.00000000000E+00 -0.00000000000E+00 -0.18410430470E+04  0.18410430470E+04  0.00000000000E+00 0. -1.
         23    2    1    2    0    0 -0.82596232234E+03  0.45269344382E+03  0.34548787974E+04  0.35821288482E+04  0.91183706658E+02 0.  0.
         11    1    3    3    0    0 -0.13821755793E+03  0.83160905083E+02  0.47363313260E+03  0.50034805261E+03  0.00000000000E+00 0.  1.
        -11    1    3    3    0    0 -0.68774476441E+03  0.36953253873E+03  0.29812456648E+04  0.30817807956E+04  0.00000000000E+00 0. -1.
         22    1    1    2    0    0  0.82596232234E+03 -0.45269344382E+03 -0.16526379894E+04  0.19021980538E+04  0.00000000000E+00 0. -1.
<mgrwt>
<rscale>  0 0.51797461E+04</rscale>
<asrwt>0</asrwt>
<pdfrwt beam="1">  1        2 0.28323739E+00 0.51797461E+04</pdfrwt>
<pdfrwt beam="2">  1       -2 0.56050521E+00 0.51797461E+04</pdfrwt>
<totfact> 0.44983622E-03</totfact>
</mgrwt>
</event>
<event>
 6    1  0.1780144E-005  0.2967278E+04  0.7818608E-02  0.8253137E-01
         -1   -1    0    0    0  501 -0.00000000000E+00  0.00000000000E+00  0.17301033366E+04  0.17301033366E+04  0.00000000000E+00 0.  1.
          1   -1    0    0  501    0  0.00000000000E+00 -0.00000000000E+00 -0.12722853004E+04  0.12722853004E+04  0.00000000000E+00 0. -1.
         23    2    1    2    0    0  0.96204370038E+03  0.67129057308E+03 -0.68767502919E+03  0.13627809164E+04  0.90087542615E+02 0.  0.
         13    1    3    3    0    0  0.42776160810E+03  0.24975616132E+03 -0.26711170544E+03  0.56276708918E+03  0.00000000000E+00 0. -1.
        -13    1    3    3    0    0  0.53428209228E+03  0.42153441176E+03 -0.42056332375E+03  0.80001382720E+03  0.00000000000E+00 0.  1.
         22    1    1    2    0    0 -0.96204370038E+03 -0.67129057308E+03  0.11454930654E+04  0.16396077207E+04  0.00000000000E+00 0.  1.
<mgrwt>
<rscale>  0 0.29672782E+04</rscale>
<asrwt>0</asrwt>
<pdfrwt beam="1">  1        1 0.19573620E+00 0.29672782E+04</pdfrwt>
<pdfrwt beam="2">  1       -1 0.26616974E+00 0.29672782E+04</pdfrwt>
<totfact> 0.44215293E-01</totfact>
</mgrwt>
</event>
<event>
 6    1  0.1780144E-005  0.1187356E+04  0.7818608E-02  0.9123996E-01
          1   -1    0    0  501    0  0.00000000000E+00  0.00000000000E+00  0.11999425867E+04  0.11999425867E+04  0.00000000000E+00 0. -1.
         -1   -1    0    0    0  501 -0.00000000000E+00 -0.00000000000E+00 -0.29372559143E+03  0.29372559143E+03  0.00000000000E+00 0.  1.
         23    2    1    2    0    0 -0.10376714518E+03 -0.38798475002E+03 -0.87706312250E+02  0.42166849162E+03  0.93872961774E+02 0.  0.
         13    1    3    3    0    0 -0.71505674747E+02 -0.28914505869E+03 -0.10589152365E+03  0.31611855571E+03  0.00000000000E+00 0.  1.
        -13    1    3    3    0    0 -0.32261470436E+02 -0.98839691329E+02  0.18185211400E+02  0.10554993591E+03  0.00000000000E+00 0. -1.
         22    1    1    2    0    0  0.10376714518E+03  0.38798475002E+03  0.99392330751E+03  0.10719996865E+04  0.00000000000E+00 0. -1.
<mgrwt>
<rscale>  0 0.11873565E+04</rscale>
<asrwt>0</asrwt>
<pdfrwt beam="1">  1        1 0.18460655E+00 0.11873565E+04</pdfrwt>
<pdfrwt beam="2">  1       -1 0.45188553E-01 0.11873565E+04</pdfrwt>
<totfact> 0.51419892E+01</totfact>
</mgrwt>
</event>
<event>
 6    1  0.1780144E-005  0.1818312E+04  0.7818608E-02  0.8696622E-01
         -1   -1    0    0    0  501 -0.00000000000E+00  0.00000000000E+00  0.60680678366E+03  0.60680678366E+03  0.00000000000E+00 0.  1.
          1   -1    0    0  501    0  0.00000000000E+00 -0.00000000000E+00 -0.13621542416E+04  0.13621542416E+04  0.00000000000E+00 0. -1.
         23    2    1    2    0    0 -0.65858118001E+03  0.56688837118E+03 -0.99700531041E+02  0.88040028337E+03  0.10036367387E+03 0.  0.
         11    1    3    3    0    0 -0.39662340517E+02  0.72225880610E+02 -0.72798235346E+01  0.82720462498E+02  0.00000000000E+00 0. -1.
        -11    1    3    3    0    0 -0.61891883950E+03  0.49466249057E+03 -0.92420707506E+02  0.79767982088E+03  0.00000000000E+00 0.  1.
         22    1    1    2    0    0  0.65858118001E+03 -0.56688837118E+03 -0.65564692691E+03  0.10885607419E+04  0.00000000000E+00 0.  1.
<mgrwt>
<rscale>  0 0.18183118E+04</rscale>
<asrwt>0</asrwt>
<pdfrwt beam="1">  1        1 0.20956219E+00 0.18183118E+04</pdfrwt>
<pdfrwt beam="2">  1       -1 0.93354892E-01 0.18183118E+04</pdfrwt>
<totfact> 0.85712800E+00</totfact>
</mgrwt>
</event>
<event>
 6    1  0.1780144E-005  0.1295172E+04  0.7818608E-02  0.9033403E-01
          2   -1    0    0  501    0  0.00000000000E+00  0.00000000000E+00  0.24908122747E+04  0.24908122747E+04  0.00000000000E+00 0.  1.
         -2   -1    0    0    0  501 -0.00000000000E+00 -0.00000000000E+00 -0.16836577642E+03  0.16836577642E+03  0.00000000000E+00 0. -1.
         23    2    1    2    0    0  0.33819830366E+03  0.29567608290E+03  0.21814896520E+03  0.50746465331E+03  0.90160771650E+02 0.  0.
         11    1    3    3    0    0  0.49165835155E+01  0.32163721000E+02  0.23449470049E+02  0.40106799768E+02  0.00000000000E+00 0.  1.
        -11    1    3    3    0    0  0.33328172014E+03  0.26351236190E+03  0.19469949516E+03  0.46735785354E+03  0.00000000000E+00 0. -1.
         22    1    1    2    0    0 -0.33819830366E+03 -0.29567608290E+03  0.21042975331E+04  0.21517133978E+04  0.00000000000E+00 0.  1.
<mgrwt>
<rscale>  0 0.12951719E+04</rscale>
<asrwt>0</asrwt>
<pdfrwt beam="1">  1        2 0.38320186E+00 0.12951719E+04</pdfrwt>
<pdfrwt beam="2">  1       -2 0.25902429E-01 0.12951719E+04</pdfrwt>
<totfact> 0.46692973E+01</totfact>
</mgrwt>
</event>
<event>
 6    1  0.1780144E-005  0.4193869E+04  0.7818608E-02  0.7966539E-01
          2   -1    0    0  501    0  0.00000000000E+00  0.00000000000E+00  0.18388144482E+04  0.18388144482E+04  0.00000000000E+00 0.  1.
         -2   -1    0    0    0  501 -0.00000000000E+00 -0.00000000000E+00 -0.23912882170E+04  0.23912882170E+04  0.00000000000E+00 0. -1.
         23    2    1    2    0    0  0.13299053930E+04  0.15694214850E+04  0.12871513974E+03  0.20631346265E+04  0.90690398257E+02 0.  0.
         13    1    3    3    0    0  0.36545694063E+03  0.49544933941E+03  0.37066658868E+02  0.61676799575E+03  0.00000000000E+00 0. -1.
        -13    1    3    3    0    0  0.96444845232E+03  0.10739721456E+04  0.91648480870E+02  0.14463666308E+04  0.00000000000E+00 0.  1.
         22    1    1    2    0    0 -0.13299053930E+04 -0.15694214850E+04 -0.68118890855E+03  0.21669680387E+04  0.00000000000E+00 0. -1.
<mgrwt>
<rscale>  0 0.41938695E+04</rscale>
<asrwt>0</asrwt>
<pdfrwt beam="1">  1        2 0.28289453E+00 0.41938695E+04</pdfrwt>
<pdfrwt beam="2">  1       -2 0.36789050E+00 0.41938695E+04</pdfrwt>
<totfact> 0.76358178E-02</totfact>
</mgrwt>
</event>
<event>
 6    1  0.1780144E-005  0.6489302E+03  0.7818608E-02  0.9808789E-01
         -1   -1    0    0    0  501 -0.00000000000E+00  0.00000000000E+00  0.11704186101E+03  0.11704186101E+03  0.00000000000E+00 0.  1.
          1   -1    0    0  501    0  0.00000000000E+00 -0.00000000000E+00 -0.89948675591E+03  0.89948675591E+03  0.00000000000E+00 0. -1.
         23    2    1    2    0    0 -0.12572131719E+03 -0.19155114217E+03 -0.53896280038E+02  0.25280041011E+03  0.92225531625E+02 0.  0.
         13    1    3    3    0    0 -0.65189312096E+01 -0.51435807932E+02  0.18582347369E+02  0.55076695938E+02  0.00000000000E+00 0.  1.
        -13    1    3    3    0    0 -0.11920238598E+03 -0.14011533424E+03 -0.72478627407E+02  0.19772371417E+03  0.00000000000E+00 0. -1.
         22    1    1    2    0    0  0.12572131719E+03  0.19155114217E+03 -0.72854861486E+03  0.76372820681E+03  0.00000000000E+00 0. -1.
<mgrwt>
<rscale>  0 0.64893021E+03</rscale>
<asrwt>0</asrwt>
<pdfrwt beam="1">  1        1 0.13838258E+00 0.64893021E+03</pdfrwt>
<pdfrwt beam="2">  1       -1 0.18006440E-01 0.64893021E+03</pdfrwt>
<totfact> 0.44922576E+02</totfact>
</mgrwt>
</event>
<event>
 6    1  0.1780144E-005  0.1488379E+04  0.7818608E-02  0.8892218E-01
         -2   -1    0    0    0  501 -0.00000000000E+00  0.00000000000E+00  0.11484968887E+04  0.11484968887E+04  0.00000000000E+00 0.  1.
          2   -1    0    0  501    0  0.00000000000E+00 -0.00000000000E+00 -0.48221117178E+03  0.48221117178E+03  0.00000000000E+00 0. -1.
         23    2    1    2    0    0 -0.35708500178E+03  0.61513895937E+03  0.56331517868E+03  0.91202275408E+03  0.92497976209E+02 0.  0.
         13    1    3    3    0    0 -0.12285822301E+03  0.28299003456E+03  0.20701348411E+03  0.37152669518E+03  0.00000000000E+00 0. -1.
        -13    1    3    3    0    0 -0.23422677877E+03  0.33214892480E+03  0.35630169457E+03  0.54049605891E+03  0.00000000000E+00 0.  1.
         22    1    1    2    0    0  0.35708500178E+03 -0.61513895937E+03  0.10297053819E+03  0.71868530635E+03  0.00000000000E+00 0. -1.
<mgrwt>
<rscale>  0 0.14883790E+04</rscale>
<asrwt>0</asrwt>
<pdfrwt beam="1">  1        2 0.74186334E-01 0.14883790E+04</pdfrwt>
<pdfrwt beam="2">  1       -2 0.17669183E+00 0.14883790E+04</pdfrwt>
<totfact> 0.11861184E+01</totfact>
</mgrwt>
</event>
<event>
 6    1  0.1780144E-005  0.2174408E+04  0.7818608E-02  0.8529156E-01
         -2   -1    0    0    0  501 -0.00000000000E+00  0.00000000000E+00  0.34239007881E+03  0.34239007881E+03  0.00000000000E+00 0.  1.
          2   -1    0    0  501    0  0.00000000000E+00 -0.00000000000E+00 -0.34522383206E+04  0.34522383206E+04  0.00000000000E+00 0. -1.
         23    2    1    2    0    0 -0.88642825251E+03 -0.60854678170E+03 -0.13004804294E+04  0.16898965607E+04  0.91743153768E+02 0.  0.
         13    1    3    3    0    0 -0.58009078569E+03 -0.34938635038E+03 -0.84542485077E+03  0.10831986520E+04  0.00000000000E+00 0. -1.
        -13    1    3    3    0    0 -0.30633746682E+03 -0.25916043133E+03 -0.45505557865E+03  0.60669790869E+03  0.00000000000E+00 0.  1.
         22    1    1    2    0    0  0.88642825251E+03  0.60854678170E+03 -0.18093678124E+04  0.21047318387E+04  0.00000000000E+00 0. -1.
<mgrwt>
<rscale>  0 0.21744076E+04</rscale>
<asrwt>0</asrwt>
<pdfrwt beam="1">  1        2 0.53111361E+00 0.21744076E+04</pdfrwt>
<pdfrwt beam="2">  1       -2 0.52675395E-01 0.21744076E+04</pdfrwt>
<totfact> 0.27430001E+00</totfact>
</mgrwt>
</event>
<event>
 6    1  0.1780144E-005  0.2287327E+04  0.7818608E-02  0.8482935E-01
          2   -1    0    0  501    0  0.00000000000E+00  0.00000000000E+00  0.13885660002E+04  0.13885660002E+04  0.00000000000E+00 0. -1.
         -2   -1    0    0    0  501 -0.00000000000E+00 -0.00000000000E+00 -0.94195499713E+03  0.94195499713E+03  0.00000000000E+00 0.  1.
         23    2    1    2    0    0 -0.12584961714E+03  0.11345549500E+04  0.19484705877E+03  0.11615735458E+04  0.90745056859E+02 0.  0.
         11    1    3    3    0    0 -0.92910878775E+02  0.64105097138E+03  0.15038577060E+03  0.66497718705E+03  0.00000000000E+00 0. -1.
        -11    1    3    3    0    0 -0.32938738366E+02  0.49350397864E+03  0.44461288170E+02  0.49659635879E+03  0.00000000000E+00 0.  1.
         22    1    1    2    0    0  0.12584961714E+03 -0.11345549500E+04  0.25176394432E+03  0.11689474515E+04  0.00000000000E+00 0.  1.
<mgrwt>
<rscale>  0 0.22873274E+04</rscale>
<asrwt>0</asrwt>
<pdfrwt beam="1">  1        2 0.21362554E+00 0.22873274E+04</pdfrwt>
<pdfrwt beam="2">  1       -2 0.14491615E+00 0.22873274E+04</pdfrwt>
<totfact> 0.43761814E+00</totfact>
</mgrwt>
</event>
<event>
 6    1  0.1780144E-005  0.3114365E+04  0.7818608E-02  0.8211807E-01
         -2   -1    0    0    0  501 -0.00000000000E+00  0.00000000000E+00  0.79017411096E+03  0.79017411096E+03  0.00000000000E+00 0.  1.
          2   -1    0    0  501    0  0.00000000000E+00 -0.00000000000E+00 -0.30687132111E+04  0.30687132111E+04  0.00000000000E+00 0. -1.
         23    2    1    2    0    0  0.44859330095E+03  0.43656515026E+03  0.62459590411E+03  0.88903582190E+03  0.91867127457E+02 0.  0.
         13    1    3    3    0    0  0.18311556608E+03  0.19166765220E+03  0.20299942540E+03  0.33388106588E+03  0.00000000000E+00 0. -1.
        -13    1    3    3    0    0  0.26547773487E+03  0.24489749806E+03  0.42159647871E+03  0.55515475602E+03  0.00000000000E+00 0.  1.
         22    1    1    2    0    0 -0.44859330095E+03 -0.43656515026E+03 -0.29031350042E+04  0.29698515001E+04  0.00000000000E+00 0. -1.
<mgrwt>
<rscale>  0 0.31143653E+04</rscale>
<asrwt>0</asrwt>
<pdfrwt beam="1">  1        2 0.47210972E+00 0.31143653E+04</pdfrwt>
<pdfrwt beam="2">  1       -2 0.12156525E+00 0.31143653E+04</pdfrwt>
<totfact> 0.68643705E-01</totfact>
</mgrwt>
</event>
<event>
 6    1  0.1780144E-005  0.1613580E+04  0.7818608E-02  0.8812249E-01
         -2   -1    0    0    0  501 -0.00000000000E+00  0.00000000000E+00  0.26799310892E+03  0.26799310892E+03  0.00000000000E+00 0.  1.
          2   -1    0    0  501    0  0.00000000000E+00 -0.00000000000E+00 -0.24288313264E+04  0.24288313264E+04  0.00000000000E+00 0. -1.
         23    2    1    2    0    0 -0.50270542375E+03  0.61880235827E+03 -0.90450060455E+03  0.12088683542E+04  0.87248223311E+02 0.  0.
         13    1    3    3    0    0 -0.29599512008E+03  0.42159403937E+03 -0.54969604394E+03  0.75333948912E+03  0.00000000000E+00 0.  1.
        -13    1    3    3    0    0 -0.20671030367E+03  0.19720831891E+03 -0.35480456061E+03  0.45552886508E+03  0.00000000000E+00 0. -1.
         22    1    1    2    0    0  0.50270542375E+03 -0.61880235827E+03 -0.12563376129E+04  0.14879560811E+04  0.00000000000E+00 0.  1.
<mgrwt>
<rscale>  0 0.16135799E+04</rscale>
<asrwt>0</asrwt>
<pdfrwt beam="1">  1        2 0.37366633E+00 0.16135799E+04</pdfrwt>
<pdfrwt beam="2">  1       -2 0.41229712E-01 0.16135799E+04</pdfrwt>
<totfact> 0.20462276E+01</totfact>
</mgrwt>
</event>
<event>
 6    1  0.1780144E-005  0.4647582E+04  0.7818608E-02  0.7885297E-01
          2   -1    0    0  501    0  0.00000000000E+00  0.00000000000E+00  0.37107826510E+04  0.37107826510E+04  0.00000000000E+00 0. -1.
         -2   -1    0    0    0  501 -0.00000000000E+00 -0.00000000000E+00 -0.14552196129E+04  0.14552196129E+04  0.00000000000E+00 0.  1.
         23    2    1    2    0    0 -0.17560954451E+04  0.15096492432E+04  0.92547943997E+03  0.24954153568E+04  0.87598853368E+02 0.  0.
         13    1    3    3    0    0 -0.10967568243E+04  0.93639397460E+03  0.53074164471E+03  0.15366834094E+04  0.00000000000E+00 0.  1.
        -13    1    3    3    0    0 -0.65933862084E+03  0.57325526864E+03  0.39473779526E+03  0.95873194740E+03  0.00000000000E+00 0. -1.
         22    1    1    2    0    0  0.17560954451E+04 -0.15096492432E+04  0.13300835981E+04  0.26705869070E+04  0.00000000000E+00 0. -1.
<mgrwt>
<rscale>  0 0.46475816E+04</rscale>
<asrwt>0</asrwt>
<pdfrwt beam="1">  1        2 0.57088964E+00 0.46475816E+04</pdfrwt>
<pdfrwt beam="2">  1       -2 0.22387994E+00 0.46475816E+04</pdfrwt>
<totfact> 0.39966791E-02</totfact>
</mgrwt>
</event>
<event>
 6    1  0.1780144E-005  0.7402247E+03  0.7818608E-02  0.9650812E-01
          1   -1    0    0  501    0  0.00000000000E+00  0.00000000000E+00  0.23572702239E+04  0.23572702239E+04  0.00000000000E+00 0. -1.
         -1   -1    0    0    0  501 -0.00000000000E+00 -0.00000000000E+00 -0.58110923869E+02  0.58110923869E+02  0.00000000000E+00 0.  1.
         23    2    1    2    0    0 -0.22047326999E+03 -0.28994257474E+03  0.11761500789E+04  0.12347775436E+04  0.93120430922E+02 0.  0.
         11    1    3    3    0    0 -0.18726133681E+03 -0.17829882671E+03  0.84962428138E+03  0.88809836132E+03  0.00000000000E+00 0. -1.
        -11    1    3    3    0    0 -0.33211933172E+02 -0.11164374803E+03  0.32652579756E+03  0.34667918232E+03  0.00000000000E+00 0.  1.
         22    1    1    2    0    0  0.22047326999E+03  0.28994257474E+03  0.11230092211E+04  0.11806036041E+04  0.00000000000E+00 0.  1.
<mgrwt>
<rscale>  0 0.74022470E+03</rscale>
<asrwt>0</asrwt>
<pdfrwt beam="1">  1        1 0.36265688E+00 0.74022470E+03</pdfrwt>
<pdfrwt beam="2">  1       -1 0.89401440E-02 0.74022470E+03</pdfrwt>
<totfact> 0.13310880E+02</totfact>
</mgrwt>
</event>
<event>
 6    1  0.1780144E-005  0.1795210E+04  0.7818608E-02  0.8708851E-01
          2   -1    0    0  501    0  0.00000000000E+00  0.00000000000E+00  0.10687608090E+04  0.10687608090E+04  0.00000000000E+00 0. -1.
         -2   -1    0    0    0  501 -0.00000000000E+00 -0.00000000000E+00 -0.75385858439E+03  0.75385858439E+03  0.00000000000E+00 0.  1.
         23    2    1    2    0    0 -0.26211278039E+03  0.45217413141E+03 -0.58026343257E+03  0.78604517580E+03  0.89424898418E+02 0.  0.
         11    1    3    3    0    0 -0.14509417767E+03  0.20667575441E+03 -0.22185797831E+03  0.33613710059E+03  0.00000000000E+00 0. -1.
        -11    1    3    3    0    0 -0.11701860272E+03  0.24549837700E+03 -0.35840545426E+03  0.44990807521E+03  0.00000000000E+00 0.  1.
         22    1    1    2    0    0  0.26211278039E+03 -0.45217413141E+03  0.89516565720E+03  0.10365742176E+04  0.00000000000E+00 0. -1.
<mgrwt>
<rscale>  0 0.17952097E+04</rscale>
<asrwt>0</asrwt>
<pdfrwt beam="1">  1        2 0.16442474E+00 0.17952097E+04</pdfrwt>
<pdfrwt beam="2">  1       -2 0.11597824E+00 0.17952097E+04</pdfrwt>
<totfact> 0.12428442E+01</totfact>
</mgrwt>
</event>
<event>
 6    1  0.1780144E-005  0.7500545E+03  0.7818608E-02  0.9635265E-01
          2   -1    0    0  501    0  0.00000000000E+00  0.00000000000E+00  0.15881300984E+03  0.15881300984E+03  0.00000000000E+00 0. -1.
         -2   -1    0    0    0  501 -0.00000000000E+00 -0.00000000000E+00 -0.88560395538E+03  0.88560395538E+03  0.00000000000E+00 0.  1.
         23    2    1    2    0    0 -0.74128558758E+01 -0.22642551405E+03  0.37187533728E+02  0.24755651280E+03  0.92616685988E+02 0.  0.
         11    1    3    3    0    0  0.36798508238E+02 -0.16505733534E+03  0.25171675683E+02  0.17097270956E+03  0.00000000000E+00 0.  1.
        -11    1    3    3    0    0 -0.44211364114E+02 -0.61368178709E+02  0.12015858045E+02  0.76583803245E+02  0.00000000000E+00 0. -1.
         22    1    1    2    0    0  0.74128558758E+01  0.22642551405E+03 -0.76397847927E+03  0.79686045242E+03  0.00000000000E+00 0.  1.
<mgrwt>
<rscale>  0 0.75005448E+03</rscale>
<asrwt>0</asrwt>
<pdfrwt beam="1">  1        2 0.24432771E-01 0.75005448E+03</pdfrwt>
<pdfrwt beam="2">  1       -2 0.13624676E+00 0.75005448E+03</pdfrwt>
<totfact> 0.87570826E+01</totfact>
</mgrwt>
</event>
<event>
 6    1  0.1780144E-005  0.3827319E+04  0.7818608E-02  0.8040318E-01
          2   -1    0    0  501    0  0.00000000000E+00  0.00000000000E+00  0.19227351607E+04  0.19227351607E+04  0.00000000000E+00 0.  1.
         -2   -1    0    0    0  501 -0.00000000000E+00 -0.00000000000E+00 -0.19046266861E+04  0.19046266861E+04  0.00000000000E+00 0. -1.
         23    2    1    2    0    0  0.12716779586E+03 -0.14135152069E+04  0.12911441585E+04  0.19208423109E+04  0.91569957235E+02 0.  0.
         11    1    3    3    0    0  0.76179356544E+02 -0.53458564870E+03  0.44457633474E+03  0.69945209098E+03  0.00000000000E+00 0. -1.
        -11    1    3    3    0    0  0.50988439313E+02 -0.87892955815E+03  0.84656782377E+03  0.12213902199E+04  0.00000000000E+00 0.  1.
         22    1    1    2    0    0 -0.12716779586E+03  0.14135152069E+04 -0.12730356839E+04  0.19065195359E+04  0.00000000000E+00 0. -1.
<mgrwt>
<rscale>  0 0.38273190E+04</rscale>
<asrwt>0</asrwt>
<pdfrwt beam="1">  1        2 0.29580541E+00 0.38273190E+04</pdfrwt>
<pdfrwt beam="2">  1       -2 0.29301949E+00 0.38273190E+04</pdfrwt>
<totfact> 0.20693252E-01</totfact>
</mgrwt>
</event>
<event>
 6    1  0.1780144E-005  0.3536485E+04  0.7818608E-02  0.8105197E-01
         -2   -1    0    0    0  501 -0.00000000000E+00  0.00000000000E+00  0.16665046749E+04  0.16665046749E+04  0.00000000000E+00 0.  1.
          2   -1    0    0  501    0  0.00000000000E+00 -0.00000000000E+00 -0.18761916528E+04  0.18761916528E+04  0.00000000000E+00 0. -1.
         23    2    1    2    0    0  0.27252777242E+02  0.55607188759E+03 -0.17849746112E+04  0.18719211227E+04  0.89418503449E+02 0.  0.
         13    1    3    3    0    0  0.31555341280E+02  0.72428226526E+02 -0.29601518432E+03  0.30637652800E+03  0.00000000000E+00 0.  1.
        -13    1    3    3    0    0 -0.43025640379E+01  0.48364366106E+03 -0.14889594269E+04  0.15655445947E+04  0.00000000000E+00 0. -1.
         22    1    1    2    0    0 -0.27252777242E+02 -0.55607188759E+03  0.15752876333E+04  0.16707752050E+04  0.00000000000E+00 0.  1.
<mgrwt>
<rscale>  0 0.35364854E+04</rscale>
<asrwt>0</asrwt>
<pdfrwt beam="1">  1        2 0.28864487E+00 0.35364854E+04</pdfrwt>
<pdfrwt beam="2">  1       -2 0.25638533E+00 0.35364854E+04</pdfrwt>
<totfact> 0.37655628E-01</totfact>
</mgrwt>
</event>
<event>
 6    1  0.1780144E-005  0.1569564E+04  0.7818608E-02  0.8839467E-01
          2   -1    0    0  501    0  0.00000000000E+00  0.00000000000E+00  0.32279855513E+04  0.32279855513E+04  0.00000000000E+00 0. -1.
         -2   -1    0    0    0  501 -0.00000000000E+00 -0.00000000000E+00 -0.19079489650E+03  0.19079489650E+03  0.00000000000E+00 0.  1.
         23    2    1    2    0    0  0.76288039608E+03  0.10573241936E+03  0.18190843368E+04  0.19776181234E+04  0.93486761068E+02 0.  0.
         11    1    3    3    0    0  0.11530460819E+03  0.41140532781E+02  0.23282883457E+03  0.26305315492E+03  0.00000000000E+00 0.  1.
        -11    1    3    3    0    0  0.64757578789E+03  0.64591886576E+02  0.15862555022E+04  0.17145649685E+04  0.00000000000E+00 0. -1.
         22    1    1    2    0    0 -0.76288039608E+03 -0.10573241936E+03  0.12181063180E+04  0.14411623244E+04  0.00000000000E+00 0.  1.
<mgrwt>
<rscale>  0 0.15695645E+04</rscale>
<asrwt>0</asrwt>
<pdfrwt beam="1">  1        2 0.49661312E+00 0.15695645E+04</pdfrwt>
<pdfrwt beam="2">  1       -2 0.29353063E-01 0.15695645E+04</pdfrwt>
<totfact> 0.12875091E+01</totfact>
</mgrwt>
</event>
<event>
 6    1  0.1780144E-005  0.3269213E+04  0.7818608E-02  0.8170774E-01
         -2   -1    0    0    0  501 -0.00000000000E+00  0.00000000000E+00  0.10809303800E+04  0.10809303800E+04  0.00000000000E+00 0.  1.
          2   -1    0    0  501    0  0.00000000000E+00 -0.00000000000E+00 -0.24718875599E+04  0.24718875599E+04  0.00000000000E+00 0. -1.
         23    2    1    2    0    0 -0.10924283472E+04  0.36578597761E+03 -0.19543231147E+04  0.22704060515E+04  0.90364411573E+02 0.  0.
         11    1    3    3    0    0 -0.56835845225E+03  0.14410250357E+03 -0.10134364385E+04  0.11708331549E+04  0.00000000000E+00 0.  1.
        -11    1    3    3    0    0 -0.52406989496E+03  0.22168347403E+03 -0.94088667615E+03  0.10995728966E+04  0.00000000000E+00 0. -1.
         22    1    1    2    0    0  0.10924283472E+04 -0.36578597761E+03  0.56336593471E+03  0.12824118884E+04  0.00000000000E+00 0.  1.
<mgrwt>
<rscale>  0 0.32692130E+04</rscale>
<asrwt>0</asrwt>
<pdfrwt beam="1">  1        2 0.38029039E+00 0.32692130E+04</pdfrwt>
<pdfrwt beam="2">  1       -2 0.16629698E+00 0.32692130E+04</pdfrwt>
<totfact> 0.68550930E-01</totfact>
</mgrwt>
</event>
<event>
 6    1  0.1780144E-005  0.3638998E+04  0.7818608E-02  0.8081617E-01
          2   -1    0    0  501    0  0.00000000000E+00  0.00000000000E+00  0.23501960331E+04  0.23501960331E+04  0.00000000000E+00 0. -1.
         -2   -1    0    0    0  501 -0.00000000000E+00 -0.00000000000E+00 -0.14086387108E+04  0.14086387108E+04  0.00000000000E+00 0.  1.
         23    2    1    2    0    0 -0.56548858896E+03  0.10739536870E+04  0.18696599547E+04  0.22309183973E+04  0.90634888882E+02 0.  0.
         13    1    3    3    0    0 -0.12916282824E+03  0.18851516611E+03  0.30977207647E+03  0.38494122073E+03  0.00000000000E+00 0. -1.
        -13    1    3    3    0    0 -0.43632576072E+03  0.88543852093E+03  0.15598878782E+04  0.18459771765E+04  0.00000000000E+00 0.  1.
         22    1    1    2    0    0  0.56548858896E+03 -0.10739536870E+04 -0.92810263234E+03  0.15279163466E+04  0.00000000000E+00 0.  1.
<mgrwt>
<rscale>  0 0.36389983E+04</rscale>
<asrwt>0</asrwt>
<pdfrwt beam="1">  1        2 0.36156862E+00 0.36389983E+04</pdfrwt>
<pdfrwt beam="2">  1       -2 0.21671365E+00 0.36389983E+04</pdfrwt>
<totfact> 0.35766163E-01</totfact>
</mgrwt>
</event>
<event>
 6    1  0.1780144E-005  0.1732461E+04  0.7818608E-02  0.8743064E-01
         -1   -1    0    0    0  501 -0.00000000000E+00  0.00000000000E+00  0.36130281440E+03  0.36130281440E+03  0.00000000000E+00 0.  1.
          1   -1    0    0  501    0  0.00000000000E+00 -0.00000000000E+00 -0.20768050974E+04  0.20768050974E+04  0.00000000000E+00 0. -1.
         23    2    1    2    0    0  0.34041500118E+03  0.46990582197E+03 -0.17606920328E+04  0.18560976300E+04  0.91477447598E+02 0.  0.
         11    1    3    3    0    0  0.30229325261E+03  0.42004955243E+03 -0.16449174849E+04  0.17244060917E+04  0.00000000000E+00 0. -1.
        -11    1    3    3    0    0  0.38121748575E+02  0.49856269541E+02 -0.11577454786E+03  0.13169153830E+03  0.00000000000E+00 0.  1.
         22    1    1    2    0    0 -0.34041500118E+03 -0.46990582197E+03  0.45189749807E+02  0.58201028173E+03  0.00000000000E+00 0.  1.
<mgrwt>
<rscale>  0 0.17324613E+04</rscale>
<asrwt>0</asrwt>
<pdfrwt beam="1">  1        1 0.31950847E+00 0.17324613E+04</pdfrwt>
<pdfrwt beam="2">  1       -1 0.55585049E-01 0.17324613E+04</pdfrwt>
<totfact> 0.82113131E+00</totfact>
</mgrwt>
</event>
<event>
 6    1  0.1780144E-005  0.9404300E+03  0.7818608E-02  0.9376407E-01
          2   -1    0    0  501    0  0.00000000000E+00  0.00000000000E+00  0.41309249913E+03  0.41309249913E+03  0.00000000000E+00 0. -1.
         -2   -1    0    0    0  501 -0.00000000000E+00 -0.00000000000E+00 -0.53523639564E+03  0.53523639564E+03  0.00000000000E+00 0.  1.
         23    2    1    2    0    0  0.12095689504E+03 -0.40510457711E+02  0.38984721542E+03  0.42068643408E+03  0.93405336073E+02 0.  0.
         13    1    3    3    0    0  0.10157079463E+03  0.11855890124E+02  0.25114406555E+03  0.27116513439E+03  0.00000000000E+00 0.  1.
        -13    1    3    3    0    0  0.19386100409E+02 -0.52366347834E+02  0.13870314987E+03  0.14952129968E+03  0.00000000000E+00 0. -1.
         22    1    1    2    0    0 -0.12095689504E+03  0.40510457711E+02 -0.51199111192E+03  0.52764246069E+03  0.00000000000E+00 0.  1.
<mgrwt>
<rscale>  0 0.94042999E+03</rscale>
<asrwt>0</asrwt>
<pdfrwt beam="1">  1        2 0.63552693E-01 0.94042999E+03</pdfrwt>
<pdfrwt beam="2">  1       -2 0.82344060E-01 0.94042999E+03</pdfrwt>
<totfact> 0.99497049E+01</totfact>
</mgrwt>
</event>
<event>
 6    1  0.1780144E-005  0.6030282E+04  0.7818608E-02  0.7686659E-01
          1   -1    0    0  501    0  0.00000000000E+00  0.00000000000E+00  0.40691998195E+04  0.40691998195E+04  0.00000000000E+00 0. -1.
         -1   -1    0    0    0  501 -0.00000000000E+00 -0.00000000000E+00 -0.22341183527E+04  0.22341183527E+04  0.00000000000E+00 0.  1.
         23    2    1    2    0    0 -0.17972608418E+04  0.11084211764E+03  0.34447787286E+04  0.38880422494E+04  0.89104071393E+02 0.  0.
         13    1    3    3    0    0 -0.13177485263E+04  0.42007837806E+02  0.25086768014E+04  0.28340227823E+04  0.00000000000E+00 0. -1.
        -13    1    3    3    0    0 -0.47951231556E+03  0.68834279830E+02  0.93610192727E+03  0.10540194671E+04  0.00000000000E+00 0.  1.
         22    1    1    2    0    0  0.17972608418E+04 -0.11084211764E+03 -0.16096972618E+04  0.24152759228E+04  0.00000000000E+00 0.  1.
<mgrwt>
<rscale>  0 0.60302816E+04</rscale>
<asrwt>0</asrwt>
<pdfrwt beam="1">  1        1 0.62603074E+00 0.60302816E+04</pdfrwt>
<pdfrwt beam="2">  1       -1 0.34371052E+00 0.60302816E+04</pdfrwt>
<totfact> 0.94520635E-04</totfact>
</mgrwt>
</event>
<event>
 6    1  0.1780144E-005  0.1030600E+04  0.7818608E-02  0.9275606E-01
          2   -1    0    0  501    0  0.00000000000E+00  0.00000000000E+00  0.53698063070E+03  0.53698063070E+03  0.00000000000E+00 0. -1.
         -2   -1    0    0    0  501 -0.00000000000E+00 -0.00000000000E+00 -0.49449477696E+03  0.49449477696E+03  0.00000000000E+00 0.  1.
         23    2    1    2    0    0  0.10904968575E+03 -0.17955026466E+03  0.48826640151E+03  0.53867684001E+03  0.87398670592E+02 0.  0.
         11    1    3    3    0    0  0.25118099141E+02 -0.95704043994E+02  0.14546418747E+03  0.17592615717E+03  0.00000000000E+00 0.  1.
        -11    1    3    3    0    0  0.83931586612E+02 -0.83846220670E+02  0.34280221404E+03  0.36275068284E+03  0.00000000000E+00 0. -1.
         22    1    1    2    0    0 -0.10904968575E+03  0.17955026466E+03 -0.44578054777E+03  0.49279856765E+03  0.00000000000E+00 0.  1.
<mgrwt>
<rscale>  0 0.10306001E+04</rscale>
<asrwt>0</asrwt>
<pdfrwt beam="1">  1        2 0.82612405E-01 0.10306001E+04</pdfrwt>
<pdfrwt beam="2">  1       -2 0.76076119E-01 0.10306001E+04</pdfrwt>
<totfact> 0.87399120E+01</totfact>
</mgrwt>
</event>
<event>
 6    1  0.1780144E-005  0.9428841E+03  0.7818608E-02  0.9373507E-01
         -2   -1    0    0    0  501 -0.00000000000E+00  0.00000000000E+00  0.64122467217E+03  0.64122467217E+03  0.00000000000E+00 0.  1.
          2   -1    0    0  501    0  0.00000000000E+00 -0.00000000000E+00 -0.34661421717E+03  0.34661421717E+03  0.00000000000E+00 0. -1.
         23    2    1    2    0    0  0.29368635216E+03  0.79250640630E+02  0.52001911779E+03  0.60923434268E+03  0.90632576632E+02 0.  0.
         11    1    3    3    0    0  0.27016498743E+03  0.64373424654E+02  0.40624576721E+03  0.49210637226E+03  0.00000000000E+00 0. -1.
        -11    1    3    3    0    0  0.23521364727E+02  0.14877215975E+02  0.11377335058E+03  0.11712797043E+03  0.00000000000E+00 0.  1.
         22    1    1    2    0    0 -0.29368635216E+03 -0.79250640630E+02 -0.22540866279E+03  0.37860454665E+03  0.00000000000E+00 0. -1.
<mgrwt>
<rscale>  0 0.94288406E+03</rscale>
<asrwt>0</asrwt>
<pdfrwt beam="1">  1        2 0.53325264E-01 0.94288406E+03</pdfrwt>
<pdfrwt beam="2">  1       -2 0.98649950E-01 0.94288406E+03</pdfrwt>
<totfact> 0.79808244E+01</totfact>
</mgrwt>
</event>
<event>
 6    1  0.1780144E-005  0.1476091E+04  0.7818608E-02  0.8900510E-01
          1   -1    0    0  501    0  0.00000000000E+00  0.00000000000E+00  0.14999675197E+04  0.14999675197E+04  0.00000000000E+00 0. -1.
         -1   -1    0    0    0  501 -0.00000000000E+00 -0.00000000000E+00 -0.36314839266E+03  0.36314839266E+03  0.00000000000E+00 0.  1.
         23    2    1    2    0    0 -0.51624110456E+03  0.51425618281E+03  0.69355472928E+03  0.10102105097E+04  0.92427332565E+02 0.  0.
         11    1    3    3    0    0 -0.21263675730E+03  0.16883854469E+03  0.30314973246E+03  0.40696511523E+03  0.00000000000E+00 0. -1.
        -11    1    3    3    0    0 -0.30360434725E+03  0.34541763812E+03  0.39040499682E+03  0.60324539446E+03  0.00000000000E+00 0.  1.
         22    1    1    2    0    0  0.51624110456E+03 -0.51425618281E+03  0.44326439780E+03  0.85290540270E+03  0.00000000000E+00 0.  1.
<mgrwt>
<rscale>  0 0.14760905E+04</rscale>
<asrwt>0</asrwt>
<pdfrwt beam="1">  1        1 0.23076423E+00 0.14760905E+04</pdfrwt>
<pdfrwt beam="2">  1       -1 0.55868985E-01 0.14760905E+04</pdfrwt>
<totfact> 0.20546455E+01</totfact>
</mgrwt>
</event>
<event>
 6    1  0.1780144E-005  0.1627179E+04  0.7818608E-02  0.8804023E-01
         -2   -1    0    0    0  501 -0.00000000000E+00  0.00000000000E+00  0.10959828142E+04  0.10959828142E+04  0.00000000000E+00 0.  1.
          2   -1    0    0  501    0  0.00000000000E+00 -0.00000000000E+00 -0.60395814612E+03  0.60395814612E+03  0.00000000000E+00 0. -1.
         23    2    1    2    0    0  0.10220741138E+03  0.29932215667E+03 -0.53245544656E+03  0.62774712817E+03  0.10255508737E+03 0.  0.
         13    1    3    3    0    0  0.64216821708E+02  0.14490195651E+03 -0.35898125470E+03  0.39241294374E+03  0.00000000000E+00 0.  1.
        -13    1    3    3    0    0  0.37990589673E+02  0.15442020016E+03 -0.17347419186E+03  0.23533418443E+03  0.00000000000E+00 0. -1.
         22    1    1    2    0    0 -0.10220741138E+03 -0.29932215667E+03  0.10244801147E+04  0.10721938322E+04  0.00000000000E+00 0.  1.
<mgrwt>
<rscale>  0 0.16271788E+04</rscale>
<asrwt>0</asrwt>
<pdfrwt beam="1">  1        2 0.92916638E-01 0.16271788E+04</pdfrwt>
<pdfrwt beam="2">  1       -2 0.16861274E+00 0.16271788E+04</pdfrwt>
<totfact> 0.10257487E+01</totfact>
</mgrwt>
</event>
<event>
 6    1  0.1780144E-005  0.1524150E+04  0.7818608E-02  0.8868551E-01
          2   -1    0    0  501    0  0.00000000000E+00  0.00000000000E+00  0.13147954605E+04  0.13147954605E+04  0.00000000000E+00 0. -1.
         -2   -1    0    0    0  501 -0.00000000000E+00 -0.00000000000E+00 -0.44170973062E+03  0.44170973062E+03  0.00000000000E+00 0.  1.
         23    2    1    2    0    0 -0.28932474093E+03  0.33942108672E+03 -0.26991025114E+03  0.52957597864E+03  0.93186338406E+02 0.  0.
         13    1    3    3    0    0 -0.19643779442E+02  0.53969774225E+02 -0.90728131083E+01  0.58145769737E+02  0.00000000000E+00 0.  1.
        -13    1    3    3    0    0 -0.26968096149E+03  0.28545131249E+03 -0.26083743803E+03  0.47143020891E+03  0.00000000000E+00 0. -1.
         22    1    1    2    0    0  0.28932474093E+03 -0.33942108672E+03  0.11429959810E+04  0.12269292125E+04  0.00000000000E+00 0. -1.
<mgrwt>
<rscale>  0 0.15241495E+04</rscale>
<asrwt>0</asrwt>
<pdfrwt beam="1">  1        2 0.20227622E+00 0.15241495E+04</pdfrwt>
<pdfrwt beam="2">  1       -2 0.67955344E-01 0.15241495E+04</pdfrwt>
<totfact> 0.30994444E+01</totfact>
</mgrwt>
</event>
<event>
 6    1  0.1780144E-005  0.1028959E+04  0.7818608E-02  0.9277341E-01
          1   -1    0    0  501    0  0.00000000000E+00  0.00000000000E+00  0.36823305632E+03  0.36823305632E+03  0.00000000000E+00 0. -1.
         -1   -1    0    0    0  501 -0.00000000000E+00 -0.00000000000E+00 -0.71880930695E+03  0.71880930695E+03  0.00000000000E+00 0.  1.
         23    2    1    2    0    0 -0.14404253971E+03  0.55540578556E+02 -0.69080500760E+03  0.71342676379E+03  0.89068398741E+02 0.  0.
         13    1    3    3    0    0 -0.87207021141E+01 -0.14554896077E+02 -0.16821894774E+03  0.16907249931E+03  0.00000000000E+00 0.  1.
        -13    1    3    3    0    0 -0.13532183760E+03  0.70095474633E+02 -0.52258605986E+03  0.54435426448E+03  0.00000000000E+00 0. -1.
         22    1    1    2    0    0  0.14404253971E+03 -0.55540578556E+02  0.34022875696E+03  0.37361559948E+03  0.00000000000E+00 0. -1.
<mgrwt>
<rscale>  0 0.10289594E+04</rscale>
<asrwt>0</asrwt>
<pdfrwt beam="1">  1        1 0.56651241E-01 0.10289594E+04</pdfrwt>
<pdfrwt beam="2">  1       -1 0.11058604E+00 0.10289594E+04</pdfrwt>
<totfact> 0.50542897E+01</totfact>
</mgrwt>
</event>
<event>
 6    1  0.1780144E-005  0.1613248E+04  0.7818608E-02  0.8812450E-01
         -1   -1    0    0    0  501 -0.00000000000E+00  0.00000000000E+00  0.14089571544E+04  0.14089571544E+04  0.00000000000E+00 0.  1.
          1   -1    0    0  501    0  0.00000000000E+00 -0.00000000000E+00 -0.46178993649E+03  0.46178993649E+03  0.00000000000E+00 0. -1.
         23    2    1    2    0    0 -0.78134347258E+03 -0.11921934317E+03  0.30428441206E+03  0.85191973752E+03  0.92018268967E+02 0.  0.
         13    1    3    3    0    0 -0.66330982445E+03 -0.12837899977E+03  0.23848697471E+03  0.71647549009E+03  0.00000000000E+00 0.  1.
        -13    1    3    3    0    0 -0.11803364813E+03  0.91596566016E+01  0.65797437348E+02  0.13544424743E+03  0.00000000000E+00 0. -1.
         22    1    1    2    0    0  0.78134347258E+03  0.11921934317E+03  0.64288280585E+03  0.10188273534E+04  0.00000000000E+00 0.  1.
<mgrwt>
<rscale>  0 0.16132479E+04</rscale>
<asrwt>0</asrwt>
<pdfrwt beam="1">  1        1 0.71044606E-01 0.16132479E+04</pdfrwt>
<pdfrwt beam="2">  1       -1 0.21676264E+00 0.16132479E+04</pdfrwt>
<totfact> 0.54816332E+00</totfact>
</mgrwt>
</event>
<event>
 6    1  0.1780144E-005  0.3714407E+04  0.7818608E-02  0.8064777E-01
         -2   -1    0    0    0  501 -0.00000000000E+00  0.00000000000E+00  0.26600013106E+04  0.26600013106E+04  0.00000000000E+00 0.  1.
          2   -1    0    0  501    0  0.00000000000E+00 -0.00000000000E+00 -0.12966926774E+04  0.12966926774E+04  0.00000000000E+00 0. -1.
         23    2    1    2    0    0  0.33279289219E+02  0.73532588828E+03 -0.11329563722E+04  0.13541662456E+04  0.91457127527E+02 0.  0.
         11    1    3    3    0    0  0.14265606153E+02  0.44821689371E+03 -0.60753394793E+03  0.75511548072E+03  0.00000000000E+00 0.  1.
        -11    1    3    3    0    0  0.19013683066E+02  0.28710899457E+03 -0.52542242431E+03  0.59905076486E+03  0.00000000000E+00 0. -1.
         22    1    1    2    0    0 -0.33279289219E+02 -0.73532588828E+03  0.24962650054E+04  0.26025277425E+04  0.00000000000E+00 0.  1.
<mgrwt>
<rscale>  0 0.37144067E+04</rscale>
<asrwt>0</asrwt>
<pdfrwt beam="1">  1        2 0.19949118E+00 0.37144067E+04</pdfrwt>
<pdfrwt beam="2">  1       -2 0.40923097E+00 0.37144067E+04</pdfrwt>
<totfact> 0.86501094E-02</totfact>
</mgrwt>
</event>
<event>
 6    1  0.1780144E-005  0.1023251E+04  0.7818608E-02  0.9283405E-01
          2   -1    0    0  501    0  0.00000000000E+00  0.00000000000E+00  0.63588337070E+03  0.63588337070E+03  0.00000000000E+00 0. -1.
         -2   -1    0    0    0  501 -0.00000000000E+00 -0.00000000000E+00 -0.41164879115E+03  0.41164879115E+03  0.00000000000E+00 0.  1.
         23    2    1    2    0    0  0.79015238415E+02 -0.49916308670E+03  0.15559357410E+03  0.53751374781E+03  0.96459700201E+02 0.  0.
         13    1    3    3    0    0  0.86382797918E+02 -0.26068896763E+03  0.10217001554E+03  0.29301781122E+03  0.00000000000E+00 0. -1.
        -13    1    3    3    0    0 -0.73675595035E+01 -0.23847411907E+03  0.53423558563E+02  0.24449593659E+03  0.00000000000E+00 0.  1.
         22    1    1    2    0    0 -0.79015238415E+02  0.49916308670E+03  0.68641005453E+02  0.51001841403E+03  0.00000000000E+00 0.  1.
<mgrwt>
<rscale>  0 0.10232509E+04</rscale>
<asrwt>0</asrwt>
<pdfrwt beam="1">  1        2 0.97828210E-01 0.10232509E+04</pdfrwt>
<pdfrwt beam="2">  1       -2 0.63330584E-01 0.10232509E+04</pdfrwt>
<totfact> 0.10641823E+02</totfact>
</mgrwt>
</event>
<event>
 6    1  0.1780144E-005  0.2607892E+04  0.7818608E-02  0.8365525E-01
          2   -1    0    0  501    0  0.00000000000E+00  0.00000000000E+00  0.24485400469E+04  0.24485400469E+04  0.00000000000E+00 0. -1.
         -2   -1    0    0    0  501 -0.00000000000E+00 -0.00000000000E+00 -0.69440379182E+03  0.69440379182E+03  0.00000000000E+00 0.  1.
         23    2    1    2    0    0 -0.44391813969E+03  0.14979691038E+03  0.23425744365E+04  0.23907723673E+04  0.92925199082E+02 0.  0.
         13    1    3    3    0    0 -0.15077194170E+03  0.49558191995E+02  0.58728903232E+03  0.60835565279E+03  0.00000000000E+00 0.  1.
        -13    1    3    3    0    0 -0.29314619799E+03  0.10023871838E+03  0.17552854042E+04  0.17824167145E+04  0.00000000000E+00 0. -1.
         22    1    1    2    0    0  0.44391813969E+03 -0.14979691038E+03 -0.58843818140E+03  0.75217147143E+03  0.00000000000E+00 0.  1.
<mgrwt>
<rscale>  0 0.26078922E+04</rscale>
<asrwt>0</asrwt>
<pdfrwt beam="1">  1        2 0.37669846E+00 0.26078922E+04</pdfrwt>
<pdfrwt beam="2">  1       -2 0.10683135E+00 0.26078922E+04</pdfrwt>
<totfact> 0.23232536E+00</totfact>
</mgrwt>
</event>
<event>
 6    1  0.1780144E-005  0.1886987E+04  0.7818608E-02  0.8661361E-01
          2   -1    0    0  501    0  0.00000000000E+00  0.00000000000E+00  0.11175154087E+04  0.11175154087E+04  0.00000000000E+00 0.  1.
         -2   -1    0    0    0  501 -0.00000000000E+00 -0.00000000000E+00 -0.79657059975E+03  0.79657059975E+03  0.00000000000E+00 0. -1.
         23    2    1    2    0    0 -0.72685056067E+03  0.22958679232E+03 -0.39879170483E+03  0.86573373844E+03  0.97150652445E+02 0.  0.
         13    1    3    3    0    0 -0.14334754153E+03  0.74032730153E+02 -0.11728053808E+03  0.19945948814E+03  0.00000000000E+00 0. -1.
        -13    1    3    3    0    0 -0.58350301915E+03  0.15555406217E+03 -0.28151116675E+03  0.66627425030E+03  0.00000000000E+00 0.  1.
         22    1    1    2    0    0  0.72685056067E+03 -0.22958679232E+03  0.71973651378E+03  0.10483522700E+04  0.00000000000E+00 0.  1.
<mgrwt>
<rscale>  0 0.18869869E+04</rscale>
<asrwt>0</asrwt>
<pdfrwt beam="1">  1        2 0.17192545E+00 0.18869869E+04</pdfrwt>
<pdfrwt beam="2">  1       -2 0.12254932E+00 0.18869869E+04</pdfrwt>
<totfact> 0.10040513E+01</totfact>
</mgrwt>
</event>
<event>
 6    1  0.1799514E-005  0.3248880E+04  0.7818608E-02  0.8176026E-01
          1   -1    0    0  501    0  0.00000000000E+00  0.00000000000E+00  0.20232465667E+04  0.20232465667E+04  0.00000000000E+00 0. -1.
         -1   -1    0    0    0  501 -0.00000000000E+00 -0.00000000000E+00 -0.13042433850E+04  0.13042433850E+04  0.00000000000E+00 0.  1.
         23    2    1    2    0    0  0.26074999369E+02  0.16166703038E+04  0.21345313458E+03  0.16334168638E+04  0.90474491275E+02 0.  0.
         13    1    3    3    0    0 -0.17728830676E+01  0.62710405731E+03  0.40026041532E+02  0.62838262691E+03  0.00000000000E+00 0. -1.
        -13    1    3    3    0    0  0.27847882436E+02  0.98956624650E+03  0.17342709304E+03  0.10050342369E+04  0.00000000000E+00 0.  1.
         22    1    1    2    0    0 -0.26074999369E+02 -0.16166703038E+04  0.50555004710E+03  0.16940730878E+04  0.00000000000E+00 0. -1.
<mgrwt>
<rscale>  0 0.32488804E+04</rscale>
<asrwt>0</asrwt>
<pdfrwt beam="1">  1        1 0.31126870E+00 0.32488804E+04</pdfrwt>
<pdfrwt beam="2">  1       -1 0.20065283E+00 0.32488804E+04</pdfrwt>
<totfact> 0.35664360E-01</totfact>
</mgrwt>
</event>
<event>
 6    1  0.1780144E-005  0.3537250E+04  0.7818608E-02  0.8105019E-01
          1   -1    0    0  501    0  0.00000000000E+00  0.00000000000E+00  0.18656482949E+04  0.18656482949E+04  0.00000000000E+00 0. -1.
         -1   -1    0    0    0  501 -0.00000000000E+00 -0.00000000000E+00 -0.16766472593E+04  0.16766472593E+04  0.00000000000E+00 0.  1.
         23    2    1    2    0    0  0.10085848393E+04  0.55414252951E+02  0.15469384435E+04  0.18498688583E+04  0.93177933174E+02 0.  0.
         13    1    3    3    0    0  0.19238345037E+03  0.40674914804E+02  0.26283295034E+03  0.32824838226E+03  0.00000000000E+00 0. -1.
        -13    1    3    3    0    0  0.81620138898E+03  0.14739338147E+02  0.12841054931E+04  0.15216204760E+04  0.00000000000E+00 0.  1.
         22    1    1    2    0    0 -0.10085848393E+04 -0.55414252951E+02 -0.13579374079E+04  0.16924266960E+04  0.00000000000E+00 0.  1.
<mgrwt>
<rscale>  0 0.35372498E+04</rscale>
<asrwt>0</asrwt>
<pdfrwt beam="1">  1        1 0.28702281E+00 0.35372498E+04</pdfrwt>
<pdfrwt beam="2">  1       -1 0.25794573E+00 0.35372498E+04</pdfrwt>
<totfact> 0.18501763E-01</totfact>
</mgrwt>
</event>
<event>
 6    1  0.1780144E-005  0.3448546E+04  0.7818608E-02  0.8126093E-01
          2   -1    0    0  501    0  0.00000000000E+00  0.00000000000E+00  0.13972278257E+04  0.13972278257E+04  0.00000000000E+00 0. -1.
         -2   -1    0    0    0  501 -0.00000000000E+00 -0.00000000000E+00 -0.21278693320E+04  0.21278693320E+04  0.00000000000E+00 0.  1.
         23    2    1    2    0    0 -0.78441788070E+03 -0.77663131257E+02  0.12000651681E+04  0.14396784381E+04  0.10571009366E+03 0.  0.
         13    1    3    3    0    0 -0.35872468005E+03 -0.72548034701E+02  0.48695991659E+03  0.60916054844E+03  0.00000000000E+00 0.  1.
        -13    1    3    3    0    0 -0.42569320065E+03 -0.51150965567E+01  0.71310525155E+03  0.83051788969E+03  0.00000000000E+00 0. -1.
         22    1    1    2    0    0  0.78441788070E+03  0.77663131257E+02 -0.19307066744E+04  0.20854187196E+04  0.00000000000E+00 0.  1.
<mgrwt>
<rscale>  0 0.34485465E+04</rscale>
<asrwt>0</asrwt>
<pdfrwt beam="1">  1        2 0.21495813E+00 0.34485465E+04</pdfrwt>
<pdfrwt beam="2">  1       -2 0.32736451E+00 0.34485465E+04</pdfrwt>
<totfact> 0.25827296E-01</totfact>
</mgrwt>
</event>
<event>
 6    1  0.1780144E-005  0.7114924E+03  0.7818608E-02  0.9697778E-01
         -1   -1    0    0    0  501 -0.00000000000E+00  0.00000000000E+00  0.75900841487E+03  0.75900841487E+03  0.00000000000E+00 0.  1.
          1   -1    0    0  501    0  0.00000000000E+00 -0.00000000000E+00 -0.16673777528E+03  0.16673777528E+03  0.00000000000E+00 0. -1.
         23    2    1    2    0    0 -0.28364902893E+03 -0.19647926121E+03  0.22550866070E+03  0.42218366090E+03  0.91236044312E+02 0.  0.
         11    1    3    3    0    0 -0.17983461457E+03 -0.86521729198E+02  0.89192556396E+02  0.21859050834E+03  0.00000000000E+00 0. -1.
        -11    1    3    3    0    0 -0.10381441435E+03 -0.10995753201E+03  0.13631610430E+03  0.20359315256E+03  0.00000000000E+00 0.  1.
         22    1    1    2    0    0  0.28364902893E+03  0.19647926121E+03  0.36676197889E+03  0.50356252925E+03  0.00000000000E+00 0.  1.
<mgrwt>
<rscale>  0 0.71149244E+03</rscale>
<asrwt>0</asrwt>
<pdfrwt beam="1">  1        1 0.25651966E-01 0.71149244E+03</pdfrwt>
<pdfrwt beam="2">  1       -1 0.11677052E+00 0.71149244E+03</pdfrwt>
<totfact> 0.12695299E+02</totfact>
</mgrwt>
</event>
<event>
 6    1  0.1780144E-005  0.4486869E+04  0.7818608E-02  0.7912940E-01
          2   -1    0    0  501    0  0.00000000000E+00  0.00000000000E+00  0.24296901766E+04  0.24296901766E+04  0.00000000000E+00 0. -1.
         -2   -1    0    0    0  501 -0.00000000000E+00 -0.00000000000E+00 -0.20714566896E+04  0.20714566896E+04  0.00000000000E+00 0.  1.
         23    2    1    2    0    0 -0.12139635607E+04 -0.17312317443E+04  0.92876134540E+03  0.23110845573E+04  0.87426054898E+02 0.  0.
         13    1    3    3    0    0 -0.88519486592E+03 -0.13018756738E+04  0.72454092853E+03  0.17330348461E+04  0.00000000000E+00 0.  1.
        -13    1    3    3    0    0 -0.32876869482E+03 -0.42935607056E+03  0.20422041686E+03  0.57804971126E+03  0.00000000000E+00 0. -1.
         22    1    1    2    0    0  0.12139635607E+04  0.17312317443E+04 -0.57052785836E+03  0.21900623088E+04  0.00000000000E+00 0.  1.
<mgrwt>
<rscale>  0 0.44868688E+04</rscale>
<asrwt>0</asrwt>
<pdfrwt beam="1">  1        2 0.37379849E+00 0.44868688E+04</pdfrwt>
<pdfrwt beam="2">  1       -2 0.31868564E+00 0.44868688E+04</pdfrwt>
<totfact> 0.70732983E-02</totfact>
</mgrwt>
</event>
<event>
 6    1  0.1780144E-005  0.5450141E+04  0.7818608E-02  0.7762587E-01
          2   -1    0    0  501    0  0.00000000000E+00  0.00000000000E+00  0.24371767293E+04  0.24371767293E+04  0.00000000000E+00 0. -1.
         -2   -1    0    0    0  501 -0.00000000000E+00 -0.00000000000E+00 -0.30469724531E+04  0.30469724531E+04  0.00000000000E+00 0.  1.
         23    2    1    2    0    0 -0.14768955234E+04  0.13507061839E+04  0.15548140205E+04  0.25360713464E+04  0.92648008160E+02 0.  0.
         11    1    3    3    0    0 -0.82515565133E+03  0.72007507752E+03  0.89903302370E+03  0.14169157857E+04  0.00000000000E+00 0.  1.
        -11    1    3    3    0    0 -0.65173987204E+03  0.63063110639E+03  0.65578099681E+03  0.11191555607E+04  0.00000000000E+00 0. -1.
         22    1    1    2    0    0  0.14768955234E+04 -0.13507061839E+04 -0.21646097443E+04  0.29480778361E+04  0.00000000000E+00 0.  1.
<mgrwt>
<rscale>  0 0.54501414E+04</rscale>
<asrwt>0</asrwt>
<pdfrwt beam="1">  1        2 0.37495027E+00 0.54501414E+04</pdfrwt>
<pdfrwt beam="2">  1       -2 0.46876499E+00 0.54501414E+04</pdfrwt>
<totfact> 0.69842480E-03</totfact>
</mgrwt>
</event>
<event>
 6    1  0.1780144E-005  0.2887999E+04  0.7818608E-02  0.8276457E-01
         -2   -1    0    0    0  501 -0.00000000000E+00  0.00000000000E+00  0.68734741141E+03  0.68734741141E+03  0.00000000000E+00 0.  1.
          2   -1    0    0  501    0  0.00000000000E+00 -0.00000000000E+00 -0.30335963277E+04  0.30335963277E+04  0.00000000000E+00 0. -1.
         23    2    1    2    0    0 -0.14182524359E+03 -0.14175439716E+04 -0.88236615172E+03  0.16782743925E+04  0.92139023070E+02 0.  0.
         11    1    3    3    0    0 -0.41734165794E+02 -0.41435864615E+03 -0.30798941254E+03  0.51796940688E+03  0.00000000000E+00 0. -1.
        -11    1    3    3    0    0 -0.10009107779E+03 -0.10031853255E+04 -0.57437673918E+03  0.11603049856E+04  0.00000000000E+00 0.  1.
         22    1    1    2    0    0  0.14182524359E+03  0.14175439716E+04 -0.14638827646E+04  0.20426693466E+04  0.00000000000E+00 0.  1.
<mgrwt>
<rscale>  0 0.28879990E+04</rscale>
<asrwt>0</asrwt>
<pdfrwt beam="1">  1        2 0.46670713E+00 0.28879990E+04</pdfrwt>
<pdfrwt beam="2">  1       -2 0.10574576E+00 0.28879990E+04</pdfrwt>
<totfact> 0.10348618E+00</totfact>
</mgrwt>
</event>
<event>
 6    1  0.1780144E-005  0.2052481E+04  0.7818608E-02  0.8582470E-01
         -1   -1    0    0    0  501 -0.00000000000E+00  0.00000000000E+00  0.54578444347E+03  0.54578444347E+03  0.00000000000E+00 0.  1.
          1   -1    0    0  501    0  0.00000000000E+00 -0.00000000000E+00 -0.19296434463E+04  0.19296434463E+04  0.00000000000E+00 0. -1.
         23    2    1    2    0    0  0.56237023163E+03 -0.15154581999E+03  0.31999781346E+03  0.67477399094E+03  0.11702531887E+03 0.  0.
         13    1    3    3    0    0  0.23230756804E+03 -0.84784902379E+01  0.15198529799E+03  0.27773768518E+03  0.00000000000E+00 0. -1.
        -13    1    3    3    0    0  0.33006266359E+03 -0.14306732975E+03  0.16801251546E+03  0.39703630576E+03  0.00000000000E+00 0.  1.
         22    1    1    2    0    0 -0.56237023163E+03  0.15154581999E+03 -0.17038568163E+04  0.18006538988E+04  0.00000000000E+00 0. -1.
<mgrwt>
<rscale>  0 0.20524808E+04</rscale>
<asrwt>0</asrwt>
<pdfrwt beam="1">  1        1 0.29686822E+00 0.20524808E+04</pdfrwt>
<pdfrwt beam="2">  1       -1 0.83966838E-01 0.20524808E+04</pdfrwt>
<totfact> 0.43180295E+00</totfact>
</mgrwt>
</event>
<event>
 6    1  0.1780144E-005  0.1885982E+04  0.7818608E-02  0.8661866E-01
         -1   -1    0    0    0  501 -0.00000000000E+00  0.00000000000E+00  0.11832456469E+04  0.11832456469E+04  0.00000000000E+00 0.  1.
          1   -1    0    0  501    0  0.00000000000E+00 -0.00000000000E+00 -0.75151899802E+03  0.75151899802E+03  0.00000000000E+00 0. -1.
         23    2    1    2    0    0  0.42372596500E+02  0.67747702132E+03 -0.45177075320E+03  0.82061105997E+03  0.92385859039E+02 0.  0.
         11    1    3    3    0    0  0.71911397061E+02  0.46129820940E+03 -0.30872372340E+03  0.55971209064E+03  0.00000000000E+00 0. -1.
        -11    1    3    3    0    0 -0.29538800561E+02  0.21617881192E+03 -0.14304702980E+03  0.26089896933E+03  0.00000000000E+00 0.  1.
         22    1    1    2    0    0 -0.42372596500E+02 -0.67747702132E+03  0.88349740209E+03  0.11141535849E+04  0.00000000000E+00 0.  1.
<mgrwt>
<rscale>  0 0.18859815E+04</rscale>
<asrwt>0</asrwt>
<pdfrwt beam="1">  1        1 0.11561831E+00 0.18859815E+04</pdfrwt>
<pdfrwt beam="2">  1       -1 0.18203779E+00 0.18859815E+04</pdfrwt>
<totfact> 0.46016811E+00</totfact>
</mgrwt>
</event>
<event>
 6    1  0.1780144E-005  0.2495951E+04  0.7818608E-02  0.8404429E-01
         -2   -1    0    0    0  501 -0.00000000000E+00  0.00000000000E+00  0.70656967216E+03  0.70656967216E+03  0.00000000000E+00 0.  1.
          2   -1    0    0  501    0  0.00000000000E+00 -0.00000000000E+00 -0.22042314826E+04  0.22042314826E+04  0.00000000000E+00 0. -1.
         23    2    1    2    0    0  0.47020918088E+03 -0.11017765831E+04 -0.34861002151E+03  0.12508829862E+04  0.90393501890E+02 0.  0.
         13    1    3    3    0    0  0.23590667105E+03 -0.58775380306E+03 -0.13945151590E+03  0.64850074460E+03  0.00000000000E+00 0. -1.
        -13    1    3    3    0    0  0.23430250982E+03 -0.51402278002E+03 -0.20915850561E+03  0.60238224157E+03  0.00000000000E+00 0.  1.
         22    1    1    2    0    0 -0.47020918088E+03  0.11017765831E+04 -0.11490517889E+04  0.16599181686E+04  0.00000000000E+00 0. -1.
<mgrwt>
<rscale>  0 0.24959512E+04</rscale>
<asrwt>0</asrwt>
<pdfrwt beam="1">  1        2 0.33911253E+00 0.24959512E+04</pdfrwt>
<pdfrwt beam="2">  1       -2 0.10870303E+00 0.24959512E+04</pdfrwt>
<totfact> 0.30976685E+00</totfact>
</mgrwt>
</event>
<event>
 6    1  0.1780144E-005  0.3685445E+04  0.7818608E-02  0.8071195E-01
          3   -1    0    0  501    0  0.00000000000E+00  0.00000000000E+00  0.19077944844E+04  0.19077944844E+04  0.00000000000E+00 0. -1.
         -3   -1    0    0    0  501 -0.00000000000E+00 -0.00000000000E+00 -0.17798700925E+04  0.17798700925E+04  0.00000000000E+00 0.  1.
         23    2    1    2    0    0  0.54767873761E+03 -0.48285886020E+03 -0.16276811846E+04  0.17862820224E+04  0.91393360275E+02 0.  0.
         11    1    3    3    0    0  0.28730604421E+03 -0.19335605066E+03 -0.78488057480E+03  0.85788626406E+03  0.00000000000E+00 0. -1.
        -11    1    3    3    0    0  0.26037269340E+03 -0.28950280954E+03 -0.84280060978E+03  0.92839575831E+03  0.00000000000E+00 0.  1.
         22    1    1    2    0    0 -0.54767873761E+03  0.48285886020E+03  0.17556055765E+04  0.19013825545E+04  0.00000000000E+00 0. -1.
<mgrwt>
<rscale>  0 0.36854451E+04</rscale>
<asrwt>0</asrwt>
<pdfrwt beam="1">  1        3 0.29350685E+00 0.36854451E+04</pdfrwt>
<pdfrwt beam="2">  1       -3 0.27382617E+00 0.36854451E+04</pdfrwt>
<totfact> 0.46806978E-03</totfact>
</mgrwt>
</event>
<event>
 6    1  0.1780144E-005  0.4991648E+04  0.7818608E-02  0.7829797E-01
         -2   -1    0    0    0  501 -0.00000000000E+00  0.00000000000E+00  0.17462135960E+04  0.17462135960E+04  0.00000000000E+00 0. -1.
          2   -1    0    0  501    0  0.00000000000E+00 -0.00000000000E+00 -0.35672250217E+04  0.35672250217E+04  0.00000000000E+00 0.  1.
         23    2    1    2    0    0 -0.16145262195E+04 -0.18061998437E+04 -0.27645623105E+03  0.24403386302E+04  0.98852383956E+02 0.  0.
         13    1    3    3    0    0 -0.13631532672E+04 -0.15240714844E+04 -0.19705676147E+03  0.20542181206E+04  0.00000000000E+00 0.  1.
        -13    1    3    3    0    0 -0.25137295222E+03 -0.28212835929E+03 -0.79399469581E+02  0.38612050967E+03  0.00000000000E+00 0. -1.
         22    1    1    2    0    0  0.16145262195E+04  0.18061998437E+04 -0.15445551946E+04  0.28730999875E+04  0.00000000000E+00 0.  1.
<mgrwt>
<rscale>  0 0.49916478E+04</rscale>
<asrwt>0</asrwt>
<pdfrwt beam="1">  1        2 0.54880385E+00 0.49916478E+04</pdfrwt>
<pdfrwt beam="2">  1       -2 0.26864825E+00 0.49916478E+04</pdfrwt>
<totfact> 0.26164981E-02</totfact>
</mgrwt>
</event>
<event>
 6    1  0.1780144E-005  0.2380261E+04  0.7818608E-02  0.8446931E-01
         -2   -1    0    0    0  501 -0.00000000000E+00  0.00000000000E+00  0.12903551235E+04  0.12903551235E+04  0.00000000000E+00 0.  1.
          2   -1    0    0  501    0  0.00000000000E+00 -0.00000000000E+00 -0.10976903309E+04  0.10976903309E+04  0.00000000000E+00 0. -1.
         23    2    1    2    0    0 -0.10840762531E+04 -0.33344078542E+03 -0.25982722322E+03  0.11669176543E+04  0.88218739853E+02 0.  0.
         13    1    3    3    0    0 -0.53584425635E+03 -0.21018819008E+03 -0.13971879709E+03  0.59230860586E+03  0.00000000000E+00 0.  1.
        -13    1    3    3    0    0 -0.54823199674E+03 -0.12325259534E+03 -0.12010842613E+03  0.57460904842E+03  0.00000000000E+00 0. -1.
         22    1    1    2    0    0  0.10840762531E+04  0.33344078542E+03  0.45249201587E+03  0.12211278002E+04  0.00000000000E+00 0.  1.
<mgrwt>
<rscale>  0 0.23802608E+04</rscale>
<asrwt>0</asrwt>
<pdfrwt beam="1">  1        2 0.16887544E+00 0.23802608E+04</pdfrwt>
<pdfrwt beam="2">  1       -2 0.19851617E+00 0.23802608E+04</pdfrwt>
<totfact> 0.26776276E+00</totfact>
</mgrwt>
</event>
<event>
 6    1  0.1780144E-005  0.2147621E+04  0.7818608E-02  0.8540551E-01
          1   -1    0    0  501    0  0.00000000000E+00  0.00000000000E+00  0.10522289307E+04  0.10522289307E+04  0.00000000000E+00 0. -1.
         -1   -1    0    0    0  501 -0.00000000000E+00 -0.00000000000E+00 -0.10958350188E+04  0.10958350188E+04  0.00000000000E+00 0.  1.
         23    2    1    2    0    0  0.26652886700E+03 -0.10281172897E+04 -0.16588068463E+03  0.10789456795E+04  0.92436894685E+02 0.  0.
         13    1    3    3    0    0  0.15613156462E+03 -0.55526351882E+03 -0.44964371842E+02  0.57854683089E+03  0.00000000000E+00 0.  1.
        -13    1    3    3    0    0  0.11039730238E+03 -0.47285377085E+03 -0.12091631278E+03  0.50039884860E+03  0.00000000000E+00 0. -1.
         22    1    1    2    0    0 -0.26652886700E+03  0.10281172897E+04  0.12227459656E+03  0.10691182700E+04  0.00000000000E+00 0.  1.
<mgrwt>
<rscale>  0 0.21476213E+04</rscale>
<asrwt>0</asrwt>
<pdfrwt beam="1">  1        1 0.16188137E+00 0.21476213E+04</pdfrwt>
<pdfrwt beam="2">  1       -1 0.16859000E+00 0.21476213E+04</pdfrwt>
<totfact> 0.31820597E+00</totfact>
</mgrwt>
</event>
<event>
 6    1  0.1780144E-005  0.3566616E+04  0.7818608E-02  0.8098182E-01
          2   -1    0    0  501    0  0.00000000000E+00  0.00000000000E+00  0.26580396447E+04  0.26580396447E+04  0.00000000000E+00 0. -1.
         -2   -1    0    0    0  501 -0.00000000000E+00 -0.00000000000E+00 -0.11964411522E+04  0.11964411522E+04  0.00000000000E+00 0.  1.
         23    2    1    2    0    0 -0.52385269469E+03 -0.10066837384E+04  0.22163072287E+04  0.24916091700E+04  0.90910555205E+02 0.  0.
         13    1    3    3    0    0 -0.12506276313E+03 -0.30624030856E+03  0.70735640725E+03  0.78088213463E+03  0.00000000000E+00 0. -1.
        -13    1    3    3    0    0 -0.39878993156E+03 -0.70044342983E+03  0.15089508215E+04  0.17107270354E+04  0.00000000000E+00 0.  1.
         22    1    1    2    0    0  0.52385269469E+03  0.10066837384E+04 -0.75470873622E+03  0.13628716269E+04  0.00000000000E+00 0.  1.
<mgrwt>
<rscale>  0 0.35666163E+04</rscale>
<asrwt>0</asrwt>
<pdfrwt beam="1">  1        2 0.40892917E+00 0.35666163E+04</pdfrwt>
<pdfrwt beam="2">  1       -2 0.18406787E+00 0.35666163E+04</pdfrwt>
<totfact> 0.39070530E-01</totfact>
</mgrwt>
</event>
<event>
 6    1  0.1780144E-005  0.1783707E+04  0.7818608E-02  0.8715012E-01
          2   -1    0    0  501    0  0.00000000000E+00  0.00000000000E+00  0.18209774672E+04  0.18209774672E+04  0.00000000000E+00 0.  1.
         -2   -1    0    0    0  501 -0.00000000000E+00 -0.00000000000E+00 -0.43679963177E+03  0.43679963177E+03  0.00000000000E+00 0. -1.
         23    2    1    2    0    0 -0.68482050147E+03  0.36166300319E+03  0.13910448888E+03  0.79149374116E+03  0.85633149882E+02 0.  0.
         11    1    3    3    0    0 -0.46258549868E+03  0.20174579745E+03  0.73925697424E+02  0.51005070250E+03  0.00000000000E+00 0. -1.
        -11    1    3    3    0    0 -0.22223500280E+03  0.15991720574E+03  0.65178791458E+02  0.28144303867E+03  0.00000000000E+00 0.  1.
         22    1    1    2    0    0  0.68482050147E+03 -0.36166300319E+03  0.12450733466E+04  0.14662833579E+04  0.00000000000E+00 0.  1.
<mgrwt>
<rscale>  0 0.17837066E+04</rscale>
<asrwt>0</asrwt>
<pdfrwt beam="1">  1        2 0.28015038E+00 0.17837066E+04</pdfrwt>
<pdfrwt beam="2">  1       -2 0.67199944E-01 0.17837066E+04</pdfrwt>
<totfact> 0.16131923E+01</totfact>
</mgrwt>
</event>
<event>
 6    1  0.1780144E-005  0.5525022E+04  0.7818608E-02  0.7752255E-01
          2   -1    0    0  501    0  0.00000000000E+00  0.00000000000E+00  0.37109004838E+04  0.37109004838E+04  0.00000000000E+00 0. -1.
         -2   -1    0    0    0  501 -0.00000000000E+00 -0.00000000000E+00 -0.20565003587E+04  0.20565003587E+04  0.00000000000E+00 0.  1.
         23    2    1    2    0    0 -0.28221528798E+03 -0.12082941841E+04 -0.17481731135E+04  0.21456436794E+04  0.89762241448E+02 0.  0.
         11    1    3    3    0    0 -0.29879733223E+02 -0.28580337981E+03 -0.38376324655E+03  0.47942736652E+03  0.00000000000E+00 0. -1.
        -11    1    3    3    0    0 -0.25233555475E+03 -0.92249080429E+03 -0.13644098670E+04  0.16662163129E+04  0.00000000000E+00 0.  1.
         22    1    1    2    0    0  0.28221528798E+03  0.12082941841E+04  0.34025732387E+04  0.36217571631E+04  0.00000000000E+00 0. -1.
<mgrwt>
<rscale>  0 0.55250224E+04</rscale>
<asrwt>0</asrwt>
<pdfrwt beam="1">  1        2 0.57090777E+00 0.55250224E+04</pdfrwt>
<pdfrwt beam="2">  1       -2 0.31638467E+00 0.55250224E+04</pdfrwt>
<totfact> 0.10055107E-02</totfact>
</mgrwt>
</event>
<event>
 6    1  0.1780144E-005  0.1408684E+04  0.7818608E-02  0.8947557E-01
         -4   -1    0    0    0  501 -0.00000000000E+00  0.00000000000E+00  0.31315313894E+03  0.31315313894E+03  0.00000000000E+00 0.  1.
          4   -1    0    0  501    0  0.00000000000E+00 -0.00000000000E+00 -0.15842005345E+04  0.15842005345E+04  0.00000000000E+00 0. -1.
         23    2    1    2    0    0 -0.37382067989E+03 -0.57106670792E+03 -0.42042883213E+03  0.80675245114E+03  0.90719506947E+02 0.  0.
         11    1    3    3    0    0 -0.12673828087E+03 -0.13118007479E+03 -0.87739594739E+02  0.20240810346E+03  0.00000000000E+00 0. -1.
        -11    1    3    3    0    0 -0.24708239902E+03 -0.43988663313E+03 -0.33268923739E+03  0.60434434769E+03  0.00000000000E+00 0.  1.
         22    1    1    2    0    0  0.37382067989E+03  0.57106670792E+03 -0.85061856341E+03  0.10906012223E+04  0.00000000000E+00 0. -1.
<mgrwt>
<rscale>  0 0.14086836E+04</rscale>
<asrwt>0</asrwt>
<pdfrwt beam="1">  1        4 0.24372316E+00 0.14086836E+04</pdfrwt>
<pdfrwt beam="2">  1       -4 0.48177406E-01 0.14086836E+04</pdfrwt>
<totfact> 0.56177506E-01</totfact>
</mgrwt>
</event>
<event>
 6    1  0.1780144E-005  0.2203414E+04  0.7818608E-02  0.8517008E-01
         -2   -1    0    0    0  501 -0.00000000000E+00  0.00000000000E+00  0.47164990359E+03  0.47164990359E+03  0.00000000000E+00 0.  1.
          2   -1    0    0  501    0  0.00000000000E+00 -0.00000000000E+00 -0.25734305526E+04  0.25734305526E+04  0.00000000000E+00 0. -1.
         23    2    1    2    0    0  0.93722311981E+03 -0.37397918026E+03 -0.44819833482E+03  0.11079222093E+04  0.91445453891E+02 0.  0.
         11    1    3    3    0    0  0.13086588912E+03 -0.58735682820E+02 -0.99386028003E+02  0.17450886492E+03  0.00000000000E+00 0.  1.
        -11    1    3    3    0    0  0.80635723068E+03 -0.31524349744E+03 -0.34881230681E+03  0.93341334442E+03  0.00000000000E+00 0. -1.
         22    1    1    2    0    0 -0.93722311981E+03  0.37397918026E+03 -0.16535823142E+04  0.19371582469E+04  0.00000000000E+00 0. -1.
<mgrwt>
<rscale>  0 0.22034140E+04</rscale>
<asrwt>0</asrwt>
<pdfrwt beam="1">  1        2 0.39591240E+00 0.22034140E+04</pdfrwt>
<pdfrwt beam="2">  1       -2 0.72561523E-01 0.22034140E+04</pdfrwt>
<totfact> 0.49527851E+00</totfact>
</mgrwt>
</event>
<event>
 6    1  0.1780144E-005  0.2204954E+04  0.7818608E-02  0.8516369E-01
          1   -1    0    0  501    0  0.00000000000E+00  0.00000000000E+00  0.27383823004E+04  0.27383823004E+04  0.00000000000E+00 0. -1.
         -1   -1    0    0    0  501 -0.00000000000E+00 -0.00000000000E+00 -0.44385906121E+03  0.44385906121E+03  0.00000000000E+00 0.  1.
         23    2    1    2    0    0 -0.33203192318E+03 -0.92164313542E+03  0.18731778960E+04  0.21158440785E+04  0.91265917601E+02 0.  0.
         11    1    3    3    0    0 -0.61928130254E+02 -0.22674760567E+03  0.37852891991E+03  0.44557122124E+03  0.00000000000E+00 0. -1.
        -11    1    3    3    0    0 -0.27010379293E+03 -0.69489552975E+03  0.14946489761E+04  0.16702728573E+04  0.00000000000E+00 0.  1.
         22    1    1    2    0    0  0.33203192318E+03  0.92164313542E+03  0.42134534322E+03  0.10663972831E+04  0.00000000000E+00 0.  1.
<mgrwt>
<rscale>  0 0.22049542E+04</rscale>
<asrwt>0</asrwt>
<pdfrwt beam="1">  1        1 0.42128957E+00 0.22049542E+04</pdfrwt>
<pdfrwt beam="2">  1       -1 0.68286011E-01 0.22049542E+04</pdfrwt>
<totfact> 0.18244294E+00</totfact>
</mgrwt>
</event>
<event>
 6    1  0.1780144E-005  0.4192866E+04  0.7818608E-02  0.7966731E-01
         -1   -1    0    0    0  501 -0.00000000000E+00  0.00000000000E+00  0.24219967827E+04  0.24219967827E+04  0.00000000000E+00 0.  1.
          1   -1    0    0  501    0  0.00000000000E+00 -0.00000000000E+00 -0.18146317915E+04  0.18146317915E+04  0.00000000000E+00 0. -1.
         23    2    1    2    0    0 -0.74826093508E+02  0.17195409965E+04 -0.90398733103E+03  0.19460814725E+04  0.87291580330E+02 0.  0.
         11    1    3    3    0    0 -0.45233280582E+01  0.88168904899E+03 -0.49386031683E+03  0.10105909420E+04  0.00000000000E+00 0.  1.
        -11    1    3    3    0    0 -0.70302765449E+02  0.83785194753E+03 -0.41012701421E+03  0.93549053046E+03  0.00000000000E+00 0. -1.
         22    1    1    2    0    0  0.74826093508E+02 -0.17195409965E+04  0.15113523223E+04  0.22905471017E+04  0.00000000000E+00 0.  1.
<mgrwt>
<rscale>  0 0.41928665E+04</rscale>
<asrwt>0</asrwt>
<pdfrwt beam="1">  1        1 0.27917412E+00 0.41928665E+04</pdfrwt>
<pdfrwt beam="2">  1       -1 0.37261489E+00 0.41928665E+04</pdfrwt>
<totfact> 0.33647566E-02</totfact>
</mgrwt>
</event>
<event>
 6    1  0.1780144E-005  0.1564400E+04  0.7818608E-02  0.8842722E-01
         -1   -1    0    0    0  501 -0.00000000000E+00  0.00000000000E+00  0.46677399062E+03  0.46677399062E+03  0.00000000000E+00 0.  1.
          1   -1    0    0  501    0  0.00000000000E+00 -0.00000000000E+00 -0.13107779966E+04  0.13107779966E+04  0.00000000000E+00 0. -1.
         23    2    1    2    0    0  0.32137915839E+03 -0.36882333703E+03 -0.11131234335E+04  0.12192147381E+04  0.90142010526E+02 0.  0.
         13    1    3    3    0    0  0.12504703704E+03 -0.13804759507E+03 -0.53512970152E+03  0.56661953499E+03  0.00000000000E+00 0.  1.
        -13    1    3    3    0    0  0.19633212135E+03 -0.23077574196E+03 -0.57799373199E+03  0.65259520314E+03  0.00000000000E+00 0. -1.
         22    1    1    2    0    0 -0.32137915839E+03  0.36882333703E+03  0.26911942757E+03  0.55833724906E+03  0.00000000000E+00 0.  1.
<mgrwt>
<rscale>  0 0.15644003E+04</rscale>
<asrwt>0</asrwt>
<pdfrwt beam="1">  1        1 0.20165815E+00 0.15644003E+04</pdfrwt>
<pdfrwt beam="2">  1       -1 0.71811384E-01 0.15644003E+04</pdfrwt>
<totfact> 0.16737973E+01</totfact>
</mgrwt>
</event>
<event>
 6    1  0.1780144E-005  0.7533638E+03  0.7818608E-02  0.9630088E-01
          2   -1    0    0  501    0  0.00000000000E+00  0.00000000000E+00  0.96155494771E+03  0.96155494771E+03  0.00000000000E+00 0. -1.
         -2   -1    0    0    0  501 -0.00000000000E+00 -0.00000000000E+00 -0.14756230523E+03  0.14756230523E+03  0.00000000000E+00 0.  1.
         23    2    1    2    0    0 -0.34814491252E+03  0.11334884086E+03  0.32865061243E+03  0.50116188783E+03  0.95389585008E+02 0.  0.
         13    1    3    3    0    0 -0.72799812077E+02 -0.36813210640E+01  0.10410489060E+03  0.12708734402E+03  0.00000000000E+00 0.  1.
        -13    1    3    3    0    0 -0.27534510044E+03  0.11703016192E+03  0.22454572183E+03  0.37407454381E+03  0.00000000000E+00 0. -1.
         22    1    1    2    0    0  0.34814491252E+03 -0.11334884086E+03  0.48534203005E+03  0.60795536511E+03  0.00000000000E+00 0. -1.
<mgrwt>
<rscale>  0 0.75336383E+03</rscale>
<asrwt>0</asrwt>
<pdfrwt beam="1">  1        2 0.14793153E+00 0.75336383E+03</pdfrwt>
<pdfrwt beam="2">  1       -2 0.22701894E-01 0.75336383E+03</pdfrwt>
<totfact> 0.45746519E+02</totfact>
</mgrwt>
</event>
<event>
 6    1  0.1780144E-005  0.1657448E+04  0.7818608E-02  0.8786013E-01
         -1   -1    0    0    0  501 -0.00000000000E+00  0.00000000000E+00  0.18276426394E+03  0.18276426394E+03  0.00000000000E+00 0.  1.
          1   -1    0    0  501    0  0.00000000000E+00 -0.00000000000E+00 -0.37577536789E+04  0.37577536789E+04  0.00000000000E+00 0. -1.
         23    2    1    2    0    0 -0.46142748724E+03 -0.66166247818E+03 -0.13679814328E+04  0.15907101221E+04  0.90955654529E+02 0.  0.
         13    1    3    3    0    0 -0.28375140897E+03 -0.32957529580E+03 -0.71329297095E+03  0.83541702168E+03  0.00000000000E+00 0. -1.
        -13    1    3    3    0    0 -0.17767607827E+03 -0.33208718238E+03 -0.65468846188E+03  0.75529310047E+03  0.00000000000E+00 0.  1.
         22    1    1    2    0    0  0.46142748724E+03  0.66166247818E+03 -0.22070079821E+04  0.23498078207E+04  0.00000000000E+00 0. -1.
<mgrwt>
<rscale>  0 0.16574475E+04</rscale>
<asrwt>0</asrwt>
<pdfrwt beam="1">  1        1 0.57811590E+00 0.16574475E+04</pdfrwt>
<pdfrwt beam="2">  1       -1 0.28117581E-01 0.16574475E+04</pdfrwt>
<totfact> 0.17070673E+00</totfact>
</mgrwt>
</event>
<event>
 6    1  0.1780144E-005  0.3580982E+04  0.7818608E-02  0.8094862E-01
          1   -1    0    0  501    0  0.00000000000E+00  0.00000000000E+00  0.28465209125E+04  0.28465209125E+04  0.00000000000E+00 0. -1.
         -1   -1    0    0    0  501 -0.00000000000E+00 -0.00000000000E+00 -0.11262373905E+04  0.11262373905E+04  0.00000000000E+00 0.  1.
         23    2    1    2    0    0 -0.13925713748E+04  0.26821577146E+03 -0.34927136903E+03  0.14639234776E+04  0.99432013435E+02 0.  0.
         11    1    3    3    0    0 -0.26390845723E+03  0.12530966531E+02 -0.74006976849E+02  0.27437516568E+03  0.00000000000E+00 0. -1.
        -11    1    3    3    0    0 -0.11286629175E+04  0.25568480493E+03 -0.27526439218E+03  0.11895483120E+04  0.00000000000E+00 0.  1.
         22    1    1    2    0    0  0.13925713748E+04 -0.26821577146E+03  0.20695548910E+04  0.25088348254E+04  0.00000000000E+00 0. -1.
<mgrwt>
<rscale>  0 0.35809821E+04</rscale>
<asrwt>0</asrwt>
<pdfrwt beam="1">  1        1 0.43792629E+00 0.35809821E+04</pdfrwt>
<pdfrwt beam="2">  1       -1 0.17326729E+00 0.35809821E+04</pdfrwt>
<totfact> 0.14558839E-01</totfact>
</mgrwt>
</event>
<event>
 6    1  0.1780144E-005  0.1385891E+04  0.7818608E-02  0.8964095E-01
         -2   -1    0    0    0  501 -0.00000000000E+00  0.00000000000E+00  0.12139414250E+04  0.12139414250E+04  0.00000000000E+00 0.  1.
          2   -1    0    0  501    0  0.00000000000E+00 -0.00000000000E+00 -0.39554908112E+03  0.39554908112E+03  0.00000000000E+00 0. -1.
         23    2    1    2    0    0 -0.19865571824E+03  0.15626393616E+03  0.11565536275E+04  0.11873109639E+04  0.90600880422E+02 0.  0.
         13    1    3    3    0    0 -0.81639209998E+02  0.79608031541E+02  0.33353133535E+03  0.35248482373E+03  0.00000000000E+00 0. -1.
        -13    1    3    3    0    0 -0.11701650824E+03  0.76655904620E+02  0.82302229213E+03  0.83482614014E+03  0.00000000000E+00 0.  1.
         22    1    1    2    0    0  0.19865571824E+03 -0.15626393616E+03 -0.33816128363E+03  0.42217954223E+03  0.00000000000E+00 0. -1.
<mgrwt>
<rscale>  0 0.13858909E+04</rscale>
<asrwt>0</asrwt>
<pdfrwt beam="1">  1        2 0.60853705E-01 0.13858909E+04</pdfrwt>
<pdfrwt beam="2">  1       -2 0.18676022E+00 0.13858909E+04</pdfrwt>
<totfact> 0.12774555E+01</totfact>
</mgrwt>
</event>
<event>
 6    1  0.1780144E-005  0.9759057E+03  0.7818608E-02  0.9335373E-01
         -1   -1    0    0    0  501 -0.00000000000E+00  0.00000000000E+00  0.50079059275E+03  0.50079059275E+03  0.00000000000E+00 0.  1.
          1   -1    0    0  501    0  0.00000000000E+00 -0.00000000000E+00 -0.47544420224E+03  0.47544420224E+03  0.00000000000E+00 0. -1.
         23    2    1    2    0    0 -0.37458566592E+03 -0.67125154665E+01  0.31873060296E+03  0.50038421436E+03  0.91845989275E+02 0.  0.
         13    1    3    3    0    0 -0.24267867263E+03  0.31821003895E+02  0.17071079490E+03  0.29840859561E+03  0.00000000000E+00 0. -1.
        -13    1    3    3    0    0 -0.13190699328E+03 -0.38533519361E+02  0.14801980806E+03  0.20197561875E+03  0.00000000000E+00 0.  1.
         22    1    1    2    0    0  0.37458566592E+03  0.67125154665E+01 -0.29338421245E+03  0.47585058063E+03  0.00000000000E+00 0. -1.
<mgrwt>
<rscale>  0 0.97590570E+03</rscale>
<asrwt>0</asrwt>
<pdfrwt beam="1">  1        1 0.73145262E-01 0.97590570E+03</pdfrwt>
<pdfrwt beam="2">  1       -1 0.77044706E-01 0.97590570E+03</pdfrwt>
<totfact> 0.80629409E+01</totfact>
</mgrwt>
</event>
<event>
 6    1  0.1780144E-005  0.2530381E+04  0.7818608E-02  0.8392241E-01
          1   -1    0    0  501    0  0.00000000000E+00  0.00000000000E+00  0.79702484576E+03  0.79702484576E+03  0.00000000000E+00 0.  1.
         -1   -1    0    0    0  501 -0.00000000000E+00 -0.00000000000E+00 -0.20083532586E+04  0.20083532586E+04  0.00000000000E+00 0. -1.
         23    2    1    2    0    0 -0.13062210545E+03 -0.51197515056E+03 -0.18789195351E+04  0.19539918255E+04  0.92545911205E+02 0.  0.
         11    1    3    3    0    0 -0.96499788946E+02 -0.30408366208E+03 -0.12778075216E+04  0.13170311861E+04  0.00000000000E+00 0.  1.
        -11    1    3    3    0    0 -0.34122316504E+02 -0.20789148849E+03 -0.60111201344E+03  0.63696063942E+03  0.00000000000E+00 0. -1.
         22    1    1    2    0    0  0.13062210545E+03  0.51197515056E+03  0.66759112226E+03  0.85138627881E+03  0.00000000000E+00 0.  1.
<mgrwt>
<rscale>  0 0.25303814E+04</rscale>
<asrwt>0</asrwt>
<pdfrwt beam="1">  1        1 0.12261921E+00 0.25303814E+04</pdfrwt>
<pdfrwt beam="2">  1       -1 0.30897742E+00 0.25303814E+04</pdfrwt>
<totfact> 0.56914900E-01</totfact>
</mgrwt>
</event>
<event>
 6    1  0.1780144E-005  0.1662715E+04  0.7818608E-02  0.8782920E-01
         -1   -1    0    0    0  501 -0.00000000000E+00  0.00000000000E+00  0.45448508679E+03  0.45448508679E+03  0.00000000000E+00 0.  1.
          1   -1    0    0  501    0  0.00000000000E+00 -0.00000000000E+00 -0.15207427521E+04  0.15207427521E+04  0.00000000000E+00 0. -1.
         23    2    1    2    0    0 -0.56403302888E+03  0.39852282799E+03  0.96815806261E+01  0.69671348111E+03  0.91445282314E+02 0.  0.
         13    1    3    3    0    0 -0.29125563420E+03  0.25722737362E+03 -0.11823438169E+02  0.38876157202E+03  0.00000000000E+00 0. -1.
        -13    1    3    3    0    0 -0.27277739469E+03  0.14129545437E+03  0.21505018795E+02  0.30795190909E+03  0.00000000000E+00 0.  1.
         22    1    1    2    0    0  0.56403302888E+03 -0.39852282799E+03 -0.10759392460E+04  0.12785143578E+04  0.00000000000E+00 0. -1.
<mgrwt>
<rscale>  0 0.16627145E+04</rscale>
<asrwt>0</asrwt>
<pdfrwt beam="1">  1        1 0.23396042E+00 0.16627145E+04</pdfrwt>
<pdfrwt beam="2">  1       -1 0.69920783E-01 0.16627145E+04</pdfrwt>
<totfact> 0.12492850E+01</totfact>
</mgrwt>
</event>
<event>
 6    1  0.1780144E-005  0.7715424E+03  0.7818608E-02  0.9602147E-01
          2   -1    0    0  501    0  0.00000000000E+00  0.00000000000E+00  0.21038952079E+04  0.21038952079E+04  0.00000000000E+00 0.  1.
         -2   -1    0    0    0  501 -0.00000000000E+00 -0.00000000000E+00 -0.70735183598E+02  0.70735183598E+02  0.00000000000E+00 0. -1.
         23    2    1    2    0    0  0.15028509342E+03  0.24089978301E+03  0.17442692987E+04  0.17695672284E+04  0.90964140080E+02 0.  0.
         11    1    3    3    0    0  0.10271546052E+03  0.14931725773E+03  0.13459099265E+04  0.13580573034E+04  0.00000000000E+00 0.  1.
        -11    1    3    3    0    0  0.47569632903E+02  0.91582525277E+02  0.39835937220E+03  0.41150992494E+03  0.00000000000E+00 0. -1.
         22    1    1    2    0    0 -0.15028509342E+03 -0.24089978301E+03  0.28889072569E+03  0.40506316316E+03  0.00000000000E+00 0. -1.
<mgrwt>
<rscale>  0 0.77154239E+03</rscale>
<asrwt>0</asrwt>
<pdfrwt beam="1">  1        2 0.32367614E+00 0.77154239E+03</pdfrwt>
<pdfrwt beam="2">  1       -2 0.10882338E-01 0.77154239E+03</pdfrwt>
<totfact> 0.35811534E+02</totfact>
</mgrwt>
</event>
<event>
 6    1  0.1780144E-005  0.2136458E+04  0.7818608E-02  0.8545351E-01
         -2   -1    0    0    0  501 -0.00000000000E+00  0.00000000000E+00  0.29159042476E+03  0.29159042476E+03  0.00000000000E+00 0. -1.
          2   -1    0    0  501    0  0.00000000000E+00 -0.00000000000E+00 -0.39134128868E+04  0.39134128868E+04  0.00000000000E+00 0.  1.
         23    2    1    2    0    0 -0.68846803331E+03  0.73227598971E+03 -0.25148209264E+04  0.27097880234E+04  0.91708680287E+02 0.  0.
         11    1    3    3    0    0 -0.26693406986E+03  0.25975847148E+03 -0.10440193882E+04  0.11084695504E+04  0.00000000000E+00 0. -1.
        -11    1    3    3    0    0 -0.42153396345E+03  0.47251751823E+03 -0.14708015382E+04  0.16013184730E+04  0.00000000000E+00 0.  1.
         22    1    1    2    0    0  0.68846803331E+03 -0.73227598971E+03 -0.11070015357E+04  0.14952152882E+04  0.00000000000E+00 0. -1.
<mgrwt>
<rscale>  0 0.21364585E+04</rscale>
<asrwt>0</asrwt>
<pdfrwt beam="1">  1        2 0.60206349E+00 0.21364585E+04</pdfrwt>
<pdfrwt beam="2">  1       -2 0.44860068E-01 0.21364585E+04</pdfrwt>
<totfact> 0.17500717E+00</totfact>
</mgrwt>
</event>
<event>
 6    1  0.1780144E-005  0.1798687E+04  0.7818608E-02  0.8706998E-01
          1   -1    0    0  501    0  0.00000000000E+00  0.00000000000E+00  0.18530034347E+04  0.18530034347E+04  0.00000000000E+00 0. -1.
         -1   -1    0    0    0  501 -0.00000000000E+00 -0.00000000000E+00 -0.43649074926E+03  0.43649074926E+03  0.00000000000E+00 0.  1.
         23    2    1    2    0    0  0.25021052519E+03  0.91219613424E+02  0.18003924295E+04  0.18222790485E+04  0.91442361380E+02 0.  0.
         11    1    3    3    0    0  0.11409093889E+03  0.76037862449E+02  0.11096726763E+04  0.11181108833E+04  0.00000000000E+00 0.  1.
        -11    1    3    3    0    0  0.13611958630E+03  0.15181750975E+02  0.69071975324E+03  0.70416816518E+03  0.00000000000E+00 0. -1.
         22    1    1    2    0    0 -0.25021052519E+03 -0.91219613424E+02 -0.38387974415E+03  0.46721513541E+03  0.00000000000E+00 0.  1.
<mgrwt>
<rscale>  0 0.17986871E+04</rscale>
<asrwt>0</asrwt>
<pdfrwt beam="1">  1        1 0.28507745E+00 0.17986871E+04</pdfrwt>
<pdfrwt beam="2">  1       -1 0.67152424E-01 0.17986871E+04</pdfrwt>
<totfact> 0.79487766E+00</totfact>
</mgrwt>
</event>
<event>
 6    1  0.1780144E-005  0.9537176E+03  0.7818608E-02  0.9360816E-01
         -1   -1    0    0    0  501 -0.00000000000E+00  0.00000000000E+00  0.41522941361E+03  0.41522941361E+03  0.00000000000E+00 0.  1.
          1   -1    0    0  501    0  0.00000000000E+00 -0.00000000000E+00 -0.54763538856E+03  0.54763538856E+03  0.00000000000E+00 0. -1.
         23    2    1    2    0    0 -0.16721311451E+02 -0.36979344559E+03  0.23004023210E+03  0.44479719302E+03  0.88877668027E+02 0.  0.
         13    1    3    3    0    0 -0.13321306681E+02 -0.16190532728E+02  0.35417247742E+02  0.41157891094E+02  0.00000000000E+00 0.  1.
        -13    1    3    3    0    0 -0.34000047696E+01 -0.35360291286E+03  0.19462298436E+03  0.40363930192E+03  0.00000000000E+00 0. -1.
         22    1    1    2    0    0  0.16721311451E+02  0.36979344559E+03 -0.36244620705E+03  0.51806760916E+03  0.00000000000E+00 0. -1.
<mgrwt>
<rscale>  0 0.95371761E+03</rscale>
<asrwt>0</asrwt>
<pdfrwt beam="1">  1        1 0.84251598E-01 0.95371761E+03</pdfrwt>
<pdfrwt beam="2">  1       -1 0.63881448E-01 0.95371761E+03</pdfrwt>
<totfact> 0.97522958E+01</totfact>
</mgrwt>
</event>
<event>
 6    1  0.1780144E-005  0.3562120E+04  0.7818608E-02  0.8099224E-01
         -2   -1    0    0    0  501 -0.00000000000E+00  0.00000000000E+00  0.13167530247E+04  0.13167530247E+04  0.00000000000E+00 0. -1.
          2   -1    0    0  501    0  0.00000000000E+00 -0.00000000000E+00 -0.24090880137E+04  0.24090880137E+04  0.00000000000E+00 0.  1.
         23    2    1    2    0    0 -0.10960072828E+04 -0.39709028360E+03  0.86035334378E+03  0.14516589037E+04  0.90515408867E+02 0.  0.
         13    1    3    3    0    0 -0.74556405933E+03 -0.28706477769E+03  0.63689146785E+03  0.10217155646E+04  0.00000000000E+00 0. -1.
        -13    1    3    3    0    0 -0.35044322344E+03 -0.11002550591E+03  0.22346187593E+03  0.42994333906E+03  0.00000000000E+00 0.  1.
         22    1    1    2    0    0  0.10960072828E+04  0.39709028360E+03 -0.19526883327E+04  0.22741821347E+04  0.00000000000E+00 0.  1.
<mgrwt>
<rscale>  0 0.35621196E+04</rscale>
<asrwt>0</asrwt>
<pdfrwt beam="1">  1        2 0.37062892E+00 0.35621196E+04</pdfrwt>
<pdfrwt beam="2">  1       -2 0.20257739E+00 0.35621196E+04</pdfrwt>
<totfact> 0.41080740E-01</totfact>
</mgrwt>
</event>
<event>
 6    1  0.1780144E-005  0.3171117E+04  0.7818608E-02  0.8196487E-01
         -2   -1    0    0    0  501 -0.00000000000E+00  0.00000000000E+00  0.71796009574E+03  0.71796009574E+03  0.00000000000E+00 0.  1.
          2   -1    0    0  501    0  0.00000000000E+00 -0.00000000000E+00 -0.35015821475E+04  0.35015821475E+04  0.00000000000E+00 0. -1.
         23    2    1    2    0    0 -0.26643759138E+03  0.11920190293E+04 -0.50428295659E+02  0.12258411117E+04  0.90802322722E+02 0.  0.
         13    1    3    3    0    0 -0.27947690864E+02  0.21969503757E+03  0.19080790282E+02  0.22228598588E+03  0.00000000000E+00 0.  1.
        -13    1    3    3    0    0 -0.23848990052E+03  0.97232399175E+03 -0.69509085940E+02  0.10035551258E+04  0.00000000000E+00 0. -1.
         22    1    1    2    0    0  0.26643759138E+03 -0.11920190293E+04 -0.27331937561E+04  0.29937011315E+04  0.00000000000E+00 0. -1.
<mgrwt>
<rscale>  0 0.31711173E+04</rscale>
<asrwt>0</asrwt>
<pdfrwt beam="1">  1        2 0.53870493E+00 0.31711173E+04</pdfrwt>
<pdfrwt beam="2">  1       -2 0.11045540E+00 0.31711173E+04</pdfrwt>
<totfact> 0.44467383E-01</totfact>
</mgrwt>
</event>
<event>
 6    1  0.1780144E-005  0.5840936E+04  0.7818608E-02  0.7710443E-01
          2   -1    0    0  501    0  0.00000000000E+00  0.00000000000E+00  0.27980823233E+04  0.27980823233E+04  0.00000000000E+00 0. -1.
         -2   -1    0    0    0  501 -0.00000000000E+00 -0.00000000000E+00 -0.30482063125E+04  0.30482063125E+04  0.00000000000E+00 0.  1.
         23    2    1    2    0    0  0.13042931191E+04 -0.17525994785E+04 -0.20639316707E+04  0.30068021016E+04  0.90881595240E+02 0.  0.
         11    1    3    3    0    0  0.11405041926E+04 -0.15039043570E+04 -0.17458797933E+04  0.25711037281E+04  0.00000000000E+00 0. -1.
        -11    1    3    3    0    0  0.16378892649E+03 -0.24869512151E+03 -0.31805187740E+03  0.43569837344E+03  0.00000000000E+00 0.  1.
         22    1    1    2    0    0 -0.13042931191E+04  0.17525994785E+04  0.18138076816E+04  0.28394865342E+04  0.00000000000E+00 0. -1.
<mgrwt>
<rscale>  0 0.58409356E+04</rscale>
<asrwt>0</asrwt>
<pdfrwt beam="1">  1        2 0.43047421E+00 0.58409356E+04</pdfrwt>
<pdfrwt beam="2">  1       -2 0.46895481E+00 0.58409356E+04</pdfrwt>
<totfact> 0.41418436E-03</totfact>
</mgrwt>
</event>
<event>
 6    1  0.1780144E-005  0.3073958E+04  0.7818608E-02  0.8222922E-01
         -1   -1    0    0    0  501 -0.00000000000E+00  0.00000000000E+00  0.18629429986E+04  0.18629429986E+04  0.00000000000E+00 0.  1.
          1   -1    0    0  501    0  0.00000000000E+00 -0.00000000000E+00 -0.12680494551E+04  0.12680494551E+04  0.00000000000E+00 0. -1.
         23    2    1    2    0    0 -0.25204057618E+03 -0.15124224576E+04  0.21224578743E+03  0.15506869618E+04  0.92928128749E+02 0.  0.
         11    1    3    3    0    0 -0.11950374259E+03 -0.45802027807E+03  0.60244213703E+02  0.47717196575E+03  0.00000000000E+00 0. -1.
        -11    1    3    3    0    0 -0.13253683359E+03 -0.10544021795E+04  0.15200157373E+03  0.10735149961E+04  0.00000000000E+00 0.  1.
         22    1    1    2    0    0  0.25204057618E+03  0.15124224576E+04  0.38264775605E+03  0.15803054918E+04  0.00000000000E+00 0.  1.
<mgrwt>
<rscale>  0 0.30739576E+04</rscale>
<asrwt>0</asrwt>
<pdfrwt beam="1">  1        1 0.19508453E+00 0.30739576E+04</pdfrwt>
<pdfrwt beam="2">  1       -1 0.28660661E+00 0.30739576E+04</pdfrwt>
<totfact> 0.32523727E-01</totfact>
</mgrwt>
</event>
<event>
 6    1  0.1780144E-005  0.2945481E+04  0.7818608E-02  0.8259473E-01
          1   -1    0    0  501    0  0.00000000000E+00  0.00000000000E+00  0.10092770527E+04  0.10092770527E+04  0.00000000000E+00 0. -1.
         -1   -1    0    0    0  501 -0.00000000000E+00 -0.00000000000E+00 -0.21490274676E+04  0.21490274676E+04  0.00000000000E+00 0.  1.
         23    2    1    2    0    0 -0.12291273483E+04  0.41917911655E+03 -0.13120255635E+04  0.18482877659E+04  0.91057214637E+02 0.  0.
         13    1    3    3    0    0 -0.39394090444E+03  0.17732536829E+03 -0.41639359998E+03  0.60001446027E+03  0.00000000000E+00 0.  1.
        -13    1    3    3    0    0 -0.83518644381E+03  0.24185374826E+03 -0.89563196350E+03  0.12482733056E+04  0.00000000000E+00 0. -1.
         22    1    1    2    0    0  0.12291273483E+04 -0.41917911655E+03  0.17227514855E+03  0.13100167544E+04  0.00000000000E+00 0. -1.
<mgrwt>
<rscale>  0 0.29454807E+04</rscale>
<asrwt>0</asrwt>
<pdfrwt beam="1">  1        1 0.15527339E+00 0.29454807E+04</pdfrwt>
<pdfrwt beam="2">  1       -1 0.33061961E+00 0.29454807E+04</pdfrwt>
<totfact> 0.26530244E-01</totfact>
</mgrwt>
</event>
<event>
 6    1  0.1780144E-005  0.3806067E+04  0.7818608E-02  0.8044854E-01
          1   -1    0    0  501    0  0.00000000000E+00  0.00000000000E+00  0.26998248714E+04  0.26998248714E+04  0.00000000000E+00 0. -1.
         -1   -1    0    0    0  501 -0.00000000000E+00 -0.00000000000E+00 -0.13413966629E+04  0.13413966629E+04  0.00000000000E+00 0.  1.
         23    2    1    2    0    0 -0.16101984120E+04 -0.96288673874E+03  0.10114003207E+04  0.21332597546E+04  0.89312789716E+02 0.  0.
         13    1    3    3    0    0 -0.87244618093E+03 -0.53512744568E+03  0.60039682536E+03  0.11865917873E+04  0.00000000000E+00 0. -1.
        -13    1    3    3    0    0 -0.73775223105E+03 -0.42775929305E+03  0.41100349539E+03  0.94666796736E+03  0.00000000000E+00 0.  1.
         22    1    1    2    0    0  0.16101984120E+04  0.96288673874E+03  0.34702788774E+03  0.19079617796E+04  0.00000000000E+00 0. -1.
<mgrwt>
<rscale>  0 0.38060668E+04</rscale>
<asrwt>0</asrwt>
<pdfrwt beam="1">  1        1 0.41535767E+00 0.38060668E+04</pdfrwt>
<pdfrwt beam="2">  1       -1 0.20636872E+00 0.38060668E+04</pdfrwt>
<totfact> 0.10622037E-01</totfact>
</mgrwt>
</event>
<event>
 6    1  0.2760155E-005  0.3377385E+04  0.7818608E-02  0.8143479E-01
         -1   -1    0    0    0  501 -0.00000000000E+00  0.00000000000E+00  0.16077914289E+04  0.16077914289E+04  0.00000000000E+00 0.  1.
          1   -1    0    0  501    0  0.00000000000E+00 -0.00000000000E+00 -0.17736644343E+04  0.17736644343E+04  0.00000000000E+00 0. -1.
         23    2    1    2    0    0 -0.39572685344E+01 -0.46693906256E+03 -0.17065184905E+04  0.17715998887E+04  0.91175979464E+02 0.  0.
         13    1    3    3    0    0 -0.31964758152E+02 -0.23461588193E+03 -0.73029656080E+03  0.76772353392E+03  0.00000000000E+00 0.  1.
        -13    1    3    3    0    0  0.28007489618E+02 -0.23232318064E+03 -0.97622192968E+03  0.10038763548E+04  0.00000000000E+00 0. -1.
         22    1    1    2    0    0  0.39572685344E+01  0.46693906256E+03  0.15406454850E+04  0.16098559745E+04  0.00000000000E+00 0.  1.
<mgrwt>
<rscale>  0 0.33773851E+04</rscale>
<asrwt>0</asrwt>
<pdfrwt beam="1">  1        1 0.27287145E+00 0.33773851E+04</pdfrwt>
<pdfrwt beam="2">  1       -1 0.24735253E+00 0.33773851E+04</pdfrwt>
<totfact> 0.25391936E-01</totfact>
</mgrwt>
</event>
<event>
 6    1  0.1780144E-005  0.1226820E+04  0.7818608E-02  0.9089700E-01
         -1   -1    0    0    0  501 -0.00000000000E+00  0.00000000000E+00  0.21032921009E+03  0.21032921009E+03  0.00000000000E+00 0.  1.
          1   -1    0    0  501    0  0.00000000000E+00 -0.00000000000E+00 -0.17889659814E+04  0.17889659814E+04  0.00000000000E+00 0. -1.
         23    2    1    2    0    0 -0.63408412151E+02 -0.35756819378E+03  0.52846160817E+01  0.37427746809E+03  0.90443662106E+02 0.  0.
         13    1    3    3    0    0 -0.11814479039E+02 -0.20276013485E+03 -0.35247030448E+02  0.20613977626E+03  0.00000000000E+00 0.  1.
        -13    1    3    3    0    0 -0.51593933112E+02 -0.15480805893E+03  0.40531646530E+02  0.16813769183E+03  0.00000000000E+00 0. -1.
         22    1    1    2    0    0  0.63408412151E+02  0.35756819378E+03 -0.15839213874E+04  0.16250177234E+04  0.00000000000E+00 0. -1.
<mgrwt>
<rscale>  0 0.12268200E+04</rscale>
<asrwt>0</asrwt>
<pdfrwt beam="1">  1        1 0.27522554E+00 0.12268200E+04</pdfrwt>
<pdfrwt beam="2">  1       -1 0.32358340E-01 0.12268200E+04</pdfrwt>
<totfact> 0.36574468E+01</totfact>
</mgrwt>
</event>
<event>
 6    1  0.1780144E-005  0.2115147E+04  0.7818608E-02  0.8554600E-01
         -2   -1    0    0    0  501 -0.00000000000E+00  0.00000000000E+00  0.10355033693E+04  0.10355033693E+04  0.00000000000E+00 0.  1.
          2   -1    0    0  501    0  0.00000000000E+00 -0.00000000000E+00 -0.10801137285E+04  0.10801137285E+04  0.00000000000E+00 0. -1.
         23    2    1    2    0    0  0.29639575419E+03 -0.33355278230E+03 -0.97919591065E+03  0.10799733103E+04  0.91705059248E+02 0.  0.
         11    1    3    3    0    0  0.11091032215E+02 -0.46615615740E+02 -0.14711402581E+03  0.15472092042E+03  0.00000000000E+00 0. -1.
        -11    1    3    3    0    0  0.28530472198E+03 -0.28693716656E+03 -0.83208188484E+03  0.92525238990E+03  0.00000000000E+00 0.  1.
         22    1    1    2    0    0 -0.29639575419E+03  0.33355278230E+03  0.93458555144E+03  0.10356437875E+04  0.00000000000E+00 0.  1.
<mgrwt>
<rscale>  0 0.21151467E+04</rscale>
<asrwt>0</asrwt>
<pdfrwt beam="1">  1        2 0.16617134E+00 0.21151467E+04</pdfrwt>
<pdfrwt beam="2">  1       -2 0.15930821E+00 0.21151467E+04</pdfrwt>
<totfact> 0.52579125E+00</totfact>
</mgrwt>
</event>
<event>
 6    1  0.1780144E-005  0.3273135E+04  0.7818608E-02  0.8169765E-01
          1   -1    0    0  501    0  0.00000000000E+00  0.00000000000E+00  0.24014974313E+04  0.24014974313E+04  0.00000000000E+00 0. -1.
         -1   -1    0    0    0  501 -0.00000000000E+00 -0.00000000000E+00 -0.11152847038E+04  0.11152847038E+04  0.00000000000E+00 0.  1.
         23    2    1    2    0    0  0.34765171441E+03 -0.14259814072E+04  0.14182736573E+04  0.20431048376E+04  0.92154883609E+02 0.  0.
         13    1    3    3    0    0  0.24244053321E+03 -0.11340986049E+04  0.11433436951E+04  0.16285551458E+04  0.00000000000E+00 0. -1.
        -13    1    3    3    0    0  0.10521118120E+03 -0.29188280228E+03  0.27492996214E+03  0.41454969183E+03  0.00000000000E+00 0.  1.
         22    1    1    2    0    0 -0.34765171441E+03  0.14259814072E+04 -0.13206092978E+03  0.14736772975E+04  0.00000000000E+00 0. -1.
<mgrwt>
<rscale>  0 0.32731351E+04</rscale>
<asrwt>0</asrwt>
<pdfrwt beam="1">  1        1 0.36946114E+00 0.32731351E+04</pdfrwt>
<pdfrwt beam="2">  1       -1 0.17158226E+00 0.32731351E+04</pdfrwt>
<totfact> 0.31565269E-01</totfact>
</mgrwt>
</event>
<event>
 6    1  0.1780144E-005  0.1191433E+04  0.7818608E-02  0.9120389E-01
         -1   -1    0    0    0  501 -0.00000000000E+00  0.00000000000E+00  0.19959586318E+03  0.19959586318E+03  0.00000000000E+00 0.  1.
          1   -1    0    0  501    0  0.00000000000E+00 -0.00000000000E+00 -0.17779830654E+04  0.17779830654E+04  0.00000000000E+00 0. -1.
         23    2    1    2    0    0 -0.22644027204E+03 -0.48246767848E+03 -0.12227443739E+04  0.13368511557E+04  0.89537428748E+02 0.  0.
         11    1    3    3    0    0 -0.62835265119E+02 -0.61717143602E+02 -0.22982877849E+03  0.24612708868E+03  0.00000000000E+00 0.  1.
        -11    1    3    3    0    0 -0.16360500692E+03 -0.42075053488E+03 -0.99291559536E+03  0.10907240670E+04  0.00000000000E+00 0. -1.
         22    1    1    2    0    0  0.22644027204E+03  0.48246767848E+03 -0.35564282841E+03  0.64072777291E+03  0.00000000000E+00 0.  1.
<mgrwt>
<rscale>  0 0.11914329E+04</rscale>
<asrwt>0</asrwt>
<pdfrwt beam="1">  1        1 0.27353586E+00 0.11914329E+04</pdfrwt>
<pdfrwt beam="2">  1       -1 0.30707056E-01 0.11914329E+04</pdfrwt>
<totfact> 0.40929021E+01</totfact>
</mgrwt>
</event>
<event>
 6    1  0.3047770E-005  0.3681224E+04  0.7818608E-02  0.8072136E-01
         -1   -1    0    0    0  501 -0.00000000000E+00  0.00000000000E+00  0.12759654393E+04  0.12759654393E+04  0.00000000000E+00 0.  1.
          1   -1    0    0  501    0  0.00000000000E+00 -0.00000000000E+00 -0.26551280647E+04  0.26551280647E+04  0.00000000000E+00 0. -1.
         23    2    1    2    0    0 -0.79750457176E+03  0.12831948857E+04 -0.18103089930E+04  0.23599506565E+04  0.97702580408E+02 0.  0.
         13    1    3    3    0    0 -0.55659736234E+03  0.81712146745E+03 -0.11495159367E+04  0.15162041436E+04  0.00000000000E+00 0. -1.
        -13    1    3    3    0    0 -0.24090720942E+03  0.46607341825E+03 -0.66079305630E+03  0.84374651289E+03  0.00000000000E+00 0.  1.
         22    1    1    2    0    0  0.79750457176E+03 -0.12831948857E+04  0.43114636763E+03  0.15711428474E+04  0.00000000000E+00 0.  1.
<mgrwt>
<rscale>  0 0.36812235E+04</rscale>
<asrwt>0</asrwt>
<pdfrwt beam="1">  1        1 0.40848124E+00 0.36812235E+04</pdfrwt>
<pdfrwt beam="2">  1       -1 0.19630238E+00 0.36812235E+04</pdfrwt>
<totfact> 0.13538482E-01</totfact>
</mgrwt>
</event>
<event>
 6    1  0.1780144E-005  0.8717423E+03  0.7818608E-02  0.9461611E-01
         -1   -1    0    0    0  501 -0.00000000000E+00  0.00000000000E+00  0.16317126973E+04  0.16317126973E+04  0.00000000000E+00 0.  1.
          1   -1    0    0  501    0  0.00000000000E+00 -0.00000000000E+00 -0.11643205696E+03  0.11643205696E+03  0.00000000000E+00 0. -1.
         23    2    1    2    0    0 -0.21519569833E+03  0.13919465660E+03  0.71083167509E+02  0.28138278258E+03  0.91864642948E+02 0.  0.
         13    1    3    3    0    0 -0.62316337070E+02  0.80382627002E+02  0.57940846429E+02  0.11705483448E+03  0.00000000000E+00 0.  1.
        -13    1    3    3    0    0 -0.15287936126E+03  0.58812029601E+02  0.13142321080E+02  0.16432794810E+03  0.00000000000E+00 0. -1.
         22    1    1    2    0    0  0.21519569833E+03 -0.13919465660E+03  0.14441974728E+04  0.14667619717E+04  0.00000000000E+00 0.  1.
<mgrwt>
<rscale>  0 0.87174231E+03</rscale>
<asrwt>0</asrwt>
<pdfrwt beam="1">  1        1 0.17912625E-01 0.87174231E+03</pdfrwt>
<pdfrwt beam="2">  1       -1 0.25103271E+00 0.87174231E+03</pdfrwt>
<totfact> 0.21284929E+01</totfact>
</mgrwt>
</event>
<event>
 6    1  0.1780144E-005  0.5192558E+04  0.7818608E-02  0.7799471E-01
          2   -1    0    0  501    0  0.00000000000E+00  0.00000000000E+00  0.20984607363E+04  0.20984607363E+04  0.00000000000E+00 0. -1.
         -2   -1    0    0    0  501 -0.00000000000E+00 -0.00000000000E+00 -0.32121943873E+04  0.32121943873E+04  0.00000000000E+00 0.  1.
         23    2    1    2    0    0 -0.88768179247E+03 -0.28872655559E+02  0.19372723419E+04  0.21330065961E+04  0.88771715871E+02 0.  0.
         13    1    3    3    0    0 -0.47976140413E+03 -0.19668030838E+02  0.11518150342E+04  0.12478925072E+04  0.00000000000E+00 0. -1.
        -13    1    3    3    0    0 -0.40792038835E+03 -0.92046247211E+01  0.78545730767E+03  0.88511408898E+03  0.00000000000E+00 0.  1.
         22    1    1    2    0    0  0.88768179247E+03  0.28872655559E+02 -0.30510059929E+04  0.31776485274E+04  0.00000000000E+00 0.  1.
<mgrwt>
<rscale>  0 0.51925577E+04</rscale>
<asrwt>0</asrwt>
<pdfrwt beam="1">  1        2 0.32284011E+00 0.51925577E+04</pdfrwt>
<pdfrwt beam="2">  1       -2 0.49418375E+00 0.51925577E+04</pdfrwt>
<totfact> 0.76255421E-03</totfact>
</mgrwt>
</event>
<event>
 6    1  0.1780144E-005  0.3169860E+04  0.7818608E-02  0.8196823E-01
         -2   -1    0    0    0  501 -0.00000000000E+00  0.00000000000E+00  0.92933860335E+03  0.92933860335E+03  0.00000000000E+00 0.  1.
          2   -1    0    0  501    0  0.00000000000E+00 -0.00000000000E+00 -0.27030012221E+04  0.27030012221E+04  0.00000000000E+00 0. -1.
         23    2    1    2    0    0 -0.15239614787E+03 -0.13081424537E+04  0.11990254606E+03  0.13258164030E+04  0.94611039983E+02 0.  0.
         11    1    3    3    0    0 -0.12026645907E+03 -0.80405353500E+03  0.36094425874E+02  0.81379906359E+03  0.00000000000E+00 0.  1.
        -11    1    3    3    0    0 -0.32129688802E+02 -0.50408891867E+03  0.83808120183E+02  0.51201733939E+03  0.00000000000E+00 0. -1.
         22    1    1    2    0    0  0.15239614787E+03  0.13081424537E+04 -0.18935651648E+04  0.23065234224E+04  0.00000000000E+00 0. -1.
<mgrwt>
<rscale>  0 0.31698602E+04</rscale>
<asrwt>0</asrwt>
<pdfrwt beam="1">  1        2 0.41584634E+00 0.31698602E+04</pdfrwt>
<pdfrwt beam="2">  1       -2 0.14297517E+00 0.31698602E+04</pdfrwt>
<totfact> 0.75870855E-01</totfact>
</mgrwt>
</event>
<event>
 6    1  0.1780144E-005  0.9934096E+03  0.7818608E-02  0.9315803E-01
         -2   -1    0    0    0  501 -0.00000000000E+00  0.00000000000E+00  0.15856312051E+03  0.15856312051E+03  0.00000000000E+00 0.  1.
          2   -1    0    0  501    0  0.00000000000E+00 -0.00000000000E+00 -0.15559459899E+04  0.15559459899E+04  0.00000000000E+00 0. -1.
         23    2    1    2    0    0  0.25157267114E+02  0.38566158348E+03 -0.12318395061E+04  0.12940660700E+04  0.88378050793E+02 0.  0.
         13    1    3    3    0    0 -0.28858097967E+02  0.67284139244E+02 -0.20813807293E+03  0.22063862449E+03  0.00000000000E+00 0. -1.
        -13    1    3    3    0    0  0.54015365081E+02  0.31837744424E+03 -0.10237014331E+04  0.10734274456E+04  0.00000000000E+00 0.  1.
         22    1    1    2    0    0 -0.25157267114E+02 -0.38566158348E+03 -0.16554336335E+03  0.42044304039E+03  0.00000000000E+00 0.  1.
<mgrwt>
<rscale>  0 0.99340959E+03</rscale>
<asrwt>0</asrwt>
<pdfrwt beam="1">  1        2 0.23937631E+00 0.99340959E+03</pdfrwt>
<pdfrwt beam="2">  1       -2 0.24394326E-01 0.99340959E+03</pdfrwt>
<totfact> 0.17673162E+02</totfact>
</mgrwt>
</event>
<event>
 6    1  0.1780144E-005  0.4023558E+04  0.7818608E-02  0.7999811E-01
         -2   -1    0    0    0  501 -0.00000000000E+00  0.00000000000E+00  0.42709205293E+04  0.42709205293E+04  0.00000000000E+00 0.  1.
          2   -1    0    0  501    0  0.00000000000E+00 -0.00000000000E+00 -0.94763073361E+03  0.94763073361E+03  0.00000000000E+00 0. -1.
         23    2    1    2    0    0 -0.72681281844E+02  0.20071465485E+04  0.15405522410E+04  0.25330209569E+04  0.94731859195E+02 0.  0.
         13    1    3    3    0    0 -0.12497860654E+02  0.51158474180E+03  0.44479234203E+03  0.67802313536E+03  0.00000000000E+00 0.  1.
        -13    1    3    3    0    0 -0.60183421190E+02  0.14955618067E+04  0.10957598990E+04  0.18549978216E+04  0.00000000000E+00 0. -1.
         22    1    1    2    0    0  0.72681281844E+02 -0.20071465485E+04  0.17827375547E+04  0.26855303060E+04  0.00000000000E+00 0. -1.
<mgrwt>
<rscale>  0 0.40235584E+04</rscale>
<asrwt>0</asrwt>
<pdfrwt beam="1">  1        2 0.14578935E+00 0.40235584E+04</pdfrwt>
<pdfrwt beam="2">  1       -2 0.65706468E+00 0.40235584E+04</pdfrwt>
<totfact> 0.68209584E-03</totfact>
</mgrwt>
</event>
<event>
 6    1  0.1780144E-005  0.2055497E+04  0.7818608E-02  0.8581105E-01
          2   -1    0    0  501    0  0.00000000000E+00  0.00000000000E+00  0.16206388806E+04  0.16206388806E+04  0.00000000000E+00 0. -1.
         -2   -1    0    0    0  501 -0.00000000000E+00 -0.00000000000E+00 -0.65175961622E+03  0.65175961622E+03  0.00000000000E+00 0.  1.
         23    2    1    2    0    0 -0.79266910182E+03  0.64186893659E+03  0.61615240350E+03  0.11931690147E+04  0.60732828976E+02 0.  0.
         11    1    3    3    0    0 -0.12169608332E+03  0.11661952446E+03  0.12280832797E+03  0.20854720233E+03  0.00000000000E+00 0. -1.
        -11    1    3    3    0    0 -0.67097301850E+03  0.52524941213E+03  0.49334407553E+03  0.98462181235E+03  0.00000000000E+00 0.  1.
         22    1    1    2    0    0  0.79266910182E+03 -0.64186893659E+03  0.35272686088E+03  0.10792294821E+04  0.00000000000E+00 0.  1.
<mgrwt>
<rscale>  0 0.20554970E+04</rscale>
<asrwt>0</asrwt>
<pdfrwt beam="1">  1        2 0.24932906E+00 0.20554970E+04</pdfrwt>
<pdfrwt beam="2">  1       -2 0.10027071E+00 0.20554970E+04</pdfrwt>
<totfact> 0.82436708E+00</totfact>
</mgrwt>
</event>
<event>
 6    1  0.1780144E-005  0.2298180E+04  0.7818608E-02  0.8478639E-01
         -4   -1    0    0    0  501 -0.00000000000E+00  0.00000000000E+00  0.12227462291E+04  0.12227462291E+04  0.00000000000E+00 0.  1.
          4   -1    0    0  501    0  0.00000000000E+00 -0.00000000000E+00 -0.10798709790E+04  0.10798709790E+04  0.00000000000E+00 0. -1.
         23    2    1    2    0    0 -0.40394389511E+03  0.30421617125E+03  0.11033339633E+04  0.12171684120E+04  0.91842035645E+02 0.  0.
         13    1    3    3    0    0 -0.13814602910E+03  0.67809645780E+02  0.26421910115E+03  0.30576822404E+03  0.00000000000E+00 0.  1.
        -13    1    3    3    0    0 -0.26579786600E+03  0.23640652547E+03  0.83911486212E+03  0.91140018800E+03  0.00000000000E+00 0. -1.
         22    1    1    2    0    0  0.40394389511E+03 -0.30421617125E+03 -0.96045871317E+03  0.10854487961E+04  0.00000000000E+00 0. -1.
<mgrwt>
<rscale>  0 0.22981803E+04</rscale>
<asrwt>0</asrwt>
<pdfrwt beam="1">  1        4 0.16613400E+00 0.22981803E+04</pdfrwt>
<pdfrwt beam="2">  1       -4 0.18811480E+00 0.22981803E+04</pdfrwt>
<totfact> 0.64576680E-02</totfact>
</mgrwt>
</event>
<event>
 6    1  0.1780144E-005  0.2979692E+04  0.7818608E-02  0.8249554E-01
          2   -1    0    0  501    0  0.00000000000E+00  0.00000000000E+00  0.12950773860E+04  0.12950773860E+04  0.00000000000E+00 0. -1.
         -2   -1    0    0    0  501 -0.00000000000E+00 -0.00000000000E+00 -0.17139056128E+04  0.17139056128E+04  0.00000000000E+00 0.  1.
         23    2    1    2    0    0  0.10270559206E+04 -0.32111117076E+03 -0.12479756919E+04  0.16505126212E+04  0.93767462344E+02 0.  0.
         11    1    3    3    0    0  0.25296440025E+03 -0.11541976763E+03 -0.28883945733E+03  0.40092510855E+03  0.00000000000E+00 0.  1.
        -11    1    3    3    0    0  0.77409152039E+03 -0.20569140312E+03 -0.95913623454E+03  0.12495875126E+04  0.00000000000E+00 0. -1.
         22    1    1    2    0    0 -0.10270559206E+04  0.32111117076E+03  0.82914746506E+03  0.13584703776E+04  0.00000000000E+00 0.  1.
<mgrwt>
<rscale>  0 0.29796915E+04</rscale>
<asrwt>0</asrwt>
<pdfrwt beam="1">  1        2 0.19924267E+00 0.29796915E+04</pdfrwt>
<pdfrwt beam="2">  1       -2 0.26367779E+00 0.29796915E+04</pdfrwt>
<totfact> 0.75591259E-01</totfact>
</mgrwt>
</event>
<event>
 6    1  0.1780144E-005  0.4708293E+04  0.7818608E-02  0.7875152E-01
         -1   -1    0    0    0  501 -0.00000000000E+00  0.00000000000E+00  0.53333600629E+04  0.53333600629E+04  0.00000000000E+00 0.  1.
          1   -1    0    0  501    0  0.00000000000E+00 -0.00000000000E+00 -0.10391207328E+04  0.10391207328E+04  0.00000000000E+00 0. -1.
         23    2    1    2    0    0  0.12898452394E+04 -0.18311492129E+04  0.31249215851E+04  0.38458007268E+04  0.90775192479E+02 0.  0.
         11    1    3    3    0    0  0.33205829046E+03 -0.43400602614E+03  0.81887898045E+03  0.98447281507E+03  0.00000000000E+00 0.  1.
        -11    1    3    3    0    0  0.95778694896E+03 -0.13971431867E+04  0.23060426047E+04  0.28613279117E+04  0.00000000000E+00 0. -1.
         22    1    1    2    0    0 -0.12898452394E+04  0.18311492129E+04  0.11693177450E+04  0.25266800688E+04  0.00000000000E+00 0. -1.
<mgrwt>
<rscale>  0 0.47082927E+04</rscale>
<asrwt>0</asrwt>
<pdfrwt beam="1">  1        1 0.15986473E+00 0.47082927E+04</pdfrwt>
<pdfrwt beam="2">  1       -1 0.82051692E+00 0.47082927E+04</pdfrwt>
<totfact> 0.53080992E-04</totfact>
</mgrwt>
</event>
<event>
 6    1  0.1780144E-005  0.2740144E+04  0.7818608E-02  0.8322096E-01
          1   -1    0    0  501    0  0.00000000000E+00  0.00000000000E+00  0.18972441585E+04  0.18972441585E+04  0.00000000000E+00 0. -1.
         -1   -1    0    0    0  501 -0.00000000000E+00 -0.00000000000E+00 -0.98938108558E+03  0.98938108558E+03  0.00000000000E+00 0.  1.
         23    2    1    2    0    0  0.12512624216E+04  0.39819726256E+03  0.86036769888E+03  0.15726714709E+04  0.94043982283E+02 0.  0.
         13    1    3    3    0    0  0.75736800066E+03  0.19401185349E+03  0.52441395218E+03  0.94141217379E+03  0.00000000000E+00 0.  1.
        -13    1    3    3    0    0  0.49389442091E+03  0.20418540907E+03  0.33595374670E+03  0.63125929712E+03  0.00000000000E+00 0. -1.
         22    1    1    2    0    0 -0.12512624216E+04 -0.39819726256E+03  0.47495374075E+02  0.13139537732E+04  0.00000000000E+00 0.  1.
<mgrwt>
<rscale>  0 0.27401441E+04</rscale>
<asrwt>0</asrwt>
<pdfrwt beam="1">  1        1 0.29188372E+00 0.27401441E+04</pdfrwt>
<pdfrwt beam="2">  1       -1 0.15221247E+00 0.27401441E+04</pdfrwt>
<totfact> 0.10209730E+00</totfact>
</mgrwt>
</event>
<event>
 6    1  0.1780144E-005  0.3443185E+04  0.7818608E-02  0.8127388E-01
         -2   -1    0    0    0  501 -0.00000000000E+00  0.00000000000E+00  0.10505465298E+04  0.10505465298E+04  0.00000000000E+00 0. -1.
          2   -1    0    0  501    0  0.00000000000E+00 -0.00000000000E+00 -0.28212747268E+04  0.28212747268E+04  0.00000000000E+00 0.  1.
         23    2    1    2    0    0  0.86877189129E+03  0.25120686460E+03 -0.25316643306E+04  0.26899188548E+04  0.92030835976E+02 0.  0.
         13    1    3    3    0    0  0.49277498266E+03  0.16069963775E+03 -0.13238717940E+04  0.14217201145E+04  0.00000000000E+00 0.  1.
        -13    1    3    3    0    0  0.37599690863E+03  0.90507226853E+02 -0.12077925366E+04  0.12681987403E+04  0.00000000000E+00 0. -1.
         22    1    1    2    0    0 -0.86877189129E+03 -0.25120686460E+03  0.76093613356E+03  0.11819024018E+04  0.00000000000E+00 0. -1.
<mgrwt>
<rscale>  0 0.34431848E+04</rscale>
<asrwt>0</asrwt>
<pdfrwt beam="1">  1        2 0.43404226E+00 0.34431848E+04</pdfrwt>
<pdfrwt beam="2">  1       -2 0.16162255E+00 0.34431848E+04</pdfrwt>
<totfact> 0.45387310E-01</totfact>
</mgrwt>
</event>
<event>
 6    1  0.1979415E-005  0.3388615E+04  0.7818608E-02  0.8140706E-01
         -2   -1    0    0    0  501 -0.00000000000E+00  0.00000000000E+00  0.19960257650E+04  0.19960257650E+04  0.00000000000E+00 0. -1.
          2   -1    0    0  501    0  0.00000000000E+00 -0.00000000000E+00 -0.14381967850E+04  0.14381967850E+04  0.00000000000E+00 0.  1.
         23    2    1    2    0    0 -0.17521154368E+02 -0.57995199134E+03  0.18905919609E+04  0.19806378546E+04  0.10925678536E+03 0.  0.
         11    1    3    3    0    0  0.30056363831E+02 -0.43525466300E+03  0.13307470229E+04  0.14004419465E+04  0.00000000000E+00 0.  1.
        -11    1    3    3    0    0 -0.47577518199E+02 -0.14469732834E+03  0.55984493807E+03  0.58019590808E+03  0.00000000000E+00 0. -1.
         22    1    1    2    0    0  0.17521154368E+02  0.57995199134E+03 -0.13327629810E+04  0.14535846953E+04  0.00000000000E+00 0.  1.
<mgrwt>
<rscale>  0 0.33886150E+04</rscale>
<asrwt>0</asrwt>
<pdfrwt beam="1">  1        2 0.22126104E+00 0.33886150E+04</pdfrwt>
<pdfrwt beam="2">  1       -2 0.30708089E+00 0.33886150E+04</pdfrwt>
<totfact> 0.32812296E-01</totfact>
</mgrwt>
</event>
<event>
 6    1  0.1780144E-005  0.3505081E+04  0.7818608E-02  0.8112587E-01
         -1   -1    0    0    0  501 -0.00000000000E+00  0.00000000000E+00  0.16029527168E+04  0.16029527168E+04  0.00000000000E+00 0.  1.
          1   -1    0    0  501    0  0.00000000000E+00 -0.00000000000E+00 -0.19160878739E+04  0.19160878739E+04  0.00000000000E+00 0. -1.
         23    2    1    2    0    0  0.13156143906E+04  0.35066310849E+03  0.94925207853E+03  0.16623156856E+04  0.91695636590E+02 0.  0.
         13    1    3    3    0    0  0.36881229818E+03  0.13422162283E+03  0.24574112244E+03  0.46306225778E+03  0.00000000000E+00 0.  1.
        -13    1    3    3    0    0  0.94680209239E+03  0.21644148566E+03  0.70351095609E+03  0.11992534279E+04  0.00000000000E+00 0. -1.
         22    1    1    2    0    0 -0.13156143906E+04 -0.35066310849E+03 -0.12623872356E+04  0.18567249050E+04  0.00000000000E+00 0. -1.
<mgrwt>
<rscale>  0 0.35050810E+04</rscale>
<asrwt>0</asrwt>
<pdfrwt beam="1">  1        1 0.29478275E+00 0.35050810E+04</pdfrwt>
<pdfrwt beam="2">  1       -1 0.24660811E+00 0.35050810E+04</pdfrwt>
<totfact> 0.20331369E-01</totfact>
</mgrwt>
</event>
<event>
 6    1  0.1780144E-005  0.2641200E+04  0.7818608E-02  0.8354340E-01
         -2   -1    0    0    0  501 -0.00000000000E+00  0.00000000000E+00  0.71049816703E+03  0.71049816703E+03  0.00000000000E+00 0. -1.
          2   -1    0    0  501    0  0.00000000000E+00 -0.00000000000E+00 -0.24545935813E+04  0.24545935813E+04  0.00000000000E+00 0.  1.
         23    2    1    2    0    0  0.51607812294E+03 -0.45406176233E+03  0.47605593252E+03  0.84096164965E+03  0.89880655877E+02 0.  0.
         11    1    3    3    0    0  0.26907134683E+03 -0.19183624735E+03  0.26381259958E+03  0.42284467973E+03  0.00000000000E+00 0. -1.
        -11    1    3    3    0    0  0.24700677611E+03 -0.26222551498E+03  0.21224333294E+03  0.41811696991E+03  0.00000000000E+00 0.  1.
         22    1    1    2    0    0 -0.51607812294E+03  0.45406176233E+03 -0.22201513468E+04  0.23241300987E+04  0.00000000000E+00 0.  1.
<mgrwt>
<rscale>  0 0.26411999E+04</rscale>
<asrwt>0</asrwt>
<pdfrwt beam="1">  1        2 0.37762979E+00 0.26411999E+04</pdfrwt>
<pdfrwt beam="2">  1       -2 0.10930741E+00 0.26411999E+04</pdfrwt>
<totfact> 0.21745335E+00</totfact>
</mgrwt>
</event>
<event>
 6    1  0.1780144E-005  0.3189403E+04  0.7818608E-02  0.8191621E-01
          1   -1    0    0  501    0  0.00000000000E+00  0.00000000000E+00  0.96188421307E+03  0.96188421307E+03  0.00000000000E+00 0. -1.
         -1   -1    0    0    0  501 -0.00000000000E+00 -0.00000000000E+00 -0.26438453810E+04  0.26438453810E+04  0.00000000000E+00 0.  1.
         23    2    1    2    0    0 -0.74243917397E+02 -0.14632112761E+04 -0.13325603869E+03  0.14738320883E+04  0.89019406787E+02 0.  0.
         11    1    3    3    0    0 -0.68482416477E+02 -0.98523119366E+03 -0.12731099737E+03  0.99578031532E+03  0.00000000000E+00 0.  1.
        -11    1    3    3    0    0 -0.57615009197E+01 -0.47798008246E+03 -0.59450413178E+01  0.47805177297E+03  0.00000000000E+00 0. -1.
         22    1    1    2    0    0  0.74243917397E+02  0.14632112761E+04 -0.15487051292E+04  0.21318975058E+04  0.00000000000E+00 0.  1.
<mgrwt>
<rscale>  0 0.31894032E+04</rscale>
<asrwt>0</asrwt>
<pdfrwt beam="1">  1        1 0.14798219E+00 0.31894032E+04</pdfrwt>
<pdfrwt beam="2">  1       -1 0.40674544E+00 0.31894032E+04</pdfrwt>
<totfact> 0.87265759E-02</totfact>
</mgrwt>
</event>
<event>
 6    1  0.1780144E-005  0.1581544E+04  0.7818608E-02  0.8831967E-01
          2   -1    0    0  501    0  0.00000000000E+00  0.00000000000E+00  0.35911814903E+04  0.35911814903E+04  0.00000000000E+00 0. -1.
         -2   -1    0    0    0  501 -0.00000000000E+00 -0.00000000000E+00 -0.17412667711E+03  0.17412667711E+03  0.00000000000E+00 0.  1.
         23    2    1    2    0    0  0.23112045871E+03  0.22828127583E+03  0.34238166952E+04  0.34403855145E+04  0.90568864242E+02 0.  0.
         11    1    3    3    0    0  0.11938460158E+03  0.15951691864E+03  0.17138008262E+04  0.17253439085E+04  0.00000000000E+00 0. -1.
        -11    1    3    3    0    0  0.11173585713E+03  0.68764357184E+02  0.17100158689E+04  0.17150416061E+04  0.00000000000E+00 0.  1.
         22    1    1    2    0    0 -0.23112045871E+03 -0.22828127583E+03 -0.67618819398E+01  0.32492265291E+03  0.00000000000E+00 0.  1.
<mgrwt>
<rscale>  0 0.15815442E+04</rscale>
<asrwt>0</asrwt>
<pdfrwt beam="1">  1        2 0.55248940E+00 0.15815442E+04</pdfrwt>
<pdfrwt beam="2">  1       -2 0.26788722E-01 0.15815442E+04</pdfrwt>
<totfact> 0.86240571E+00</totfact>
</mgrwt>
</event>
<event>
 6    1  0.1780144E-005  0.1666067E+04  0.7818608E-02  0.8780958E-01
         -1   -1    0    0    0  501 -0.00000000000E+00  0.00000000000E+00  0.40553985074E+03  0.40553985074E+03  0.00000000000E+00 0.  1.
          1   -1    0    0  501    0  0.00000000000E+00 -0.00000000000E+00 -0.17111633896E+04  0.17111633896E+04  0.00000000000E+00 0. -1.
         23    2    1    2    0    0  0.20908976002E+03 -0.25943842265E+03  0.31182599736E+03  0.46528874813E+03  0.90726752481E+02 0.  0.
         11    1    3    3    0    0  0.15131082647E+03 -0.23810851885E+03  0.27237749661E+03  0.39214810164E+03  0.00000000000E+00 0.  1.
        -11    1    3    3    0    0  0.57778933552E+02 -0.21329903797E+02  0.39448500746E+02  0.73140646493E+02  0.00000000000E+00 0. -1.
         22    1    1    2    0    0 -0.20908976002E+03  0.25943842265E+03 -0.16174495362E+04  0.16514144922E+04  0.00000000000E+00 0. -1.
<mgrwt>
<rscale>  0 0.16660672E+04</rscale>
<asrwt>0</asrwt>
<pdfrwt beam="1">  1        1 0.26325590E+00 0.16660672E+04</pdfrwt>
<pdfrwt beam="2">  1       -1 0.62390748E-01 0.16660672E+04</pdfrwt>
<totfact> 0.11645089E+01</totfact>
</mgrwt>
</event>
<event>
 6    1  0.1780144E-005  0.3032665E+04  0.7818608E-02  0.8234464E-01
         -1   -1    0    0    0  501 -0.00000000000E+00  0.00000000000E+00  0.44772383818E+04  0.44772383818E+04  0.00000000000E+00 0.  1.
          1   -1    0    0  501    0  0.00000000000E+00 -0.00000000000E+00 -0.51354531428E+03  0.51354531428E+03  0.00000000000E+00 0. -1.
         23    2    1    2    0    0  0.33449166631E+03  0.13920143934E+04  0.27993004187E+04  0.31454113795E+04  0.89113218139E+02 0.  0.
         13    1    3    3    0    0  0.27584792698E+03  0.97432761064E+03  0.19786973688E+04  0.22227572177E+04  0.00000000000E+00 0. -1.
        -13    1    3    3    0    0  0.58643739331E+02  0.41768678276E+03  0.82060304990E+03  0.92265416173E+03  0.00000000000E+00 0.  1.
         22    1    1    2    0    0 -0.33449166631E+03 -0.13920143934E+04  0.11643926488E+04  0.18453723166E+04  0.00000000000E+00 0. -1.
<mgrwt>
<rscale>  0 0.30326654E+04</rscale>
<asrwt>0</asrwt>
<pdfrwt beam="1">  1        1 0.79006974E-01 0.30326654E+04</pdfrwt>
<pdfrwt beam="2">  1       -1 0.68880588E+00 0.30326654E+04</pdfrwt>
<totfact> 0.78570592E-03</totfact>
</mgrwt>
</event>
<event>
 6    1  0.1780144E-005  0.1601963E+04  0.7818608E-02  0.8819343E-01
         -2   -1    0    0    0  501 -0.00000000000E+00  0.00000000000E+00  0.12088118102E+04  0.12088118102E+04  0.00000000000E+00 0. -1.
          2   -1    0    0  501    0  0.00000000000E+00 -0.00000000000E+00 -0.53074572696E+03  0.53074572696E+03  0.00000000000E+00 0.  1.
         23    2    1    2    0    0 -0.56014162025E+03 -0.56369065147E+03  0.42459022429E+03  0.90543776380E+03  0.89637605177E+02 0.  0.
         11    1    3    3    0    0 -0.13399200761E+03 -0.97980946379E+02  0.11801465783E+03  0.20367028114E+03  0.00000000000E+00 0. -1.
        -11    1    3    3    0    0 -0.42614961264E+03 -0.46570970509E+03  0.30657556645E+03  0.70176748266E+03  0.00000000000E+00 0.  1.
         22    1    1    2    0    0  0.56014162025E+03  0.56369065147E+03  0.25347585899E+03  0.83411977340E+03  0.00000000000E+00 0.  1.
<mgrwt>
<rscale>  0 0.16019634E+04</rscale>
<asrwt>0</asrwt>
<pdfrwt beam="1">  1        2 0.81653189E-01 0.16019634E+04</pdfrwt>
<pdfrwt beam="2">  1       -2 0.18597105E+00 0.16019634E+04</pdfrwt>
<totfact> 0.90760324E+00</totfact>
</mgrwt>
</event>
<event>
 6    1  0.1780144E-005  0.2281316E+04  0.7818608E-02  0.8485324E-01
         -3   -1    0    0    0  501 -0.00000000000E+00  0.00000000000E+00  0.74283930463E+03  0.74283930463E+03  0.00000000000E+00 0.  1.
          3   -1    0    0  501    0  0.00000000000E+00 -0.00000000000E+00 -0.17515240952E+04  0.17515240952E+04  0.00000000000E+00 0. -1.
         23    2    1    2    0    0  0.15446683111E+03 -0.78447725795E+03  0.38193930608E+03  0.89027488970E+03  0.86297019296E+02 0.  0.
         13    1    3    3    0    0  0.15731705952E+03 -0.70576838980E+03  0.36381475773E+03  0.80945590071E+03  0.00000000000E+00 0. -1.
        -13    1    3    3    0    0 -0.28502284102E+01 -0.78708868150E+02  0.18124548355E+02  0.80818988985E+02  0.00000000000E+00 0.  1.
         22    1    1    2    0    0 -0.15446683111E+03  0.78447725795E+03 -0.13906240967E+04  0.16040885101E+04  0.00000000000E+00 0. -1.
<mgrwt>
<rscale>  0 0.22813162E+04</rscale>
<asrwt>0</asrwt>
<pdfrwt beam="1">  1        3 0.26946524E+00 0.22813162E+04</pdfrwt>
<pdfrwt beam="2">  1       -3 0.11428297E+00 0.22813162E+04</pdfrwt>
<totfact> 0.86285124E-02</totfact>
</mgrwt>
</event>
<event>
 6    1  0.1780144E-005  0.2696707E+04  0.7818608E-02  0.8336074E-01
          2   -1    0    0  501    0  0.00000000000E+00  0.00000000000E+00  0.26225640145E+04  0.26225640145E+04  0.00000000000E+00 0.  1.
         -2   -1    0    0    0  501 -0.00000000000E+00 -0.00000000000E+00 -0.69323674696E+03  0.69323674696E+03  0.00000000000E+00 0. -1.
         23    2    1    2    0    0  0.50511658171E+03 -0.76369772255E+03 -0.24798246151E+03  0.95379851151E+03  0.99294142839E+02 0.  0.
         11    1    3    3    0    0  0.30624564414E+03 -0.53138359546E+03 -0.13664970557E+03  0.62835345317E+03  0.00000000000E+00 0. -1.
        -11    1    3    3    0    0  0.19887093756E+03 -0.23231412709E+03 -0.11133275594E+03  0.32544505834E+03  0.00000000000E+00 0.  1.
         22    1    1    2    0    0 -0.50511658171E+03  0.76369772255E+03  0.21773097290E+04  0.23620022499E+04  0.00000000000E+00 0.  1.
<mgrwt>
<rscale>  0 0.26967074E+04</rscale>
<asrwt>0</asrwt>
<pdfrwt beam="1">  1        2 0.40347138E+00 0.26967074E+04</pdfrwt>
<pdfrwt beam="2">  1       -2 0.10665181E+00 0.26967074E+04</pdfrwt>
<totfact> 0.18332284E+00</totfact>
</mgrwt>
</event>
<event>
 6    1  0.1780144E-005  0.2422862E+04  0.7818608E-02  0.8430993E-01
         -2   -1    0    0    0  501 -0.00000000000E+00  0.00000000000E+00  0.12834581934E+04  0.12834581934E+04  0.00000000000E+00 0.  1.
          2   -1    0    0  501    0  0.00000000000E+00 -0.00000000000E+00 -0.11434463774E+04  0.11434463774E+04  0.00000000000E+00 0. -1.
         23    2    1    2    0    0  0.85226938477E+03 -0.69977921796E+01 -0.78969098077E+03  0.11656514782E+04  0.93377996525E+02 0.  0.
         13    1    3    3    0    0  0.77692352364E+03 -0.88809459680E+01 -0.75236330825E+03  0.10815449969E+04  0.00000000000E+00 0.  1.
        -13    1    3    3    0    0  0.75345861136E+02  0.18831537884E+01 -0.37327672526E+02  0.84106481288E+02  0.00000000000E+00 0. -1.
         22    1    1    2    0    0 -0.85226938477E+03  0.69977921796E+01  0.92970279675E+03  0.12612530926E+04  0.00000000000E+00 0.  1.
<mgrwt>
<rscale>  0 0.24228625E+04</rscale>
<asrwt>0</asrwt>
<pdfrwt beam="1">  1        2 0.17591483E+00 0.24228625E+04</pdfrwt>
<pdfrwt beam="2">  1       -2 0.19745511E+00 0.24228625E+04</pdfrwt>
<totfact> 0.25420549E+00</totfact>
</mgrwt>
</event>
<event>
 6    1  0.1780144E-005  0.1341765E+04  0.7818608E-02  0.8997085E-01
         -2   -1    0    0    0  501 -0.00000000000E+00  0.00000000000E+00  0.38263711462E+03  0.38263711462E+03  0.00000000000E+00 0.  1.
          2   -1    0    0  501    0  0.00000000000E+00 -0.00000000000E+00 -0.11762668651E+04  0.11762668651E+04  0.00000000000E+00 0. -1.
         23    2    1    2    0    0  0.64340987221E+03  0.13524303711E+03 -0.26205128110E+03  0.71342032413E+03  0.89614408493E+02 0.  0.
         13    1    3    3    0    0  0.53501853050E+03  0.14356864305E+03 -0.23253505749E+03  0.60077394768E+03  0.00000000000E+00 0.  1.
        -13    1    3    3    0    0  0.10839134171E+03 -0.83256059343E+01 -0.29516223615E+02  0.11264637645E+03  0.00000000000E+00 0. -1.
         22    1    1    2    0    0 -0.64340987221E+03 -0.13524303711E+03 -0.53157846937E+03  0.84548365557E+03  0.00000000000E+00 0. -1.
<mgrwt>
<rscale>  0 0.13417650E+04</rscale>
<asrwt>0</asrwt>
<pdfrwt beam="1">  1        2 0.18096413E+00 0.13417650E+04</pdfrwt>
<pdfrwt beam="2">  1       -2 0.58867249E-01 0.13417650E+04</pdfrwt>
<totfact> 0.51578875E+01</totfact>
</mgrwt>
</event>
<event>
 6    1  0.1780144E-005  0.1591236E+04  0.7818608E-02  0.8825950E-01
          2   -1    0    0  501    0  0.00000000000E+00  0.00000000000E+00  0.25095106227E+04  0.25095106227E+04  0.00000000000E+00 0.  1.
         -2   -1    0    0    0  501 -0.00000000000E+00 -0.00000000000E+00 -0.25224364280E+03  0.25224364280E+03  0.00000000000E+00 0. -1.
         23    2    1    2    0    0  0.70478273700E+03 -0.22778665456E+03  0.16243582394E+04  0.17874961169E+04  0.89427129992E+02 0.  0.
         13    1    3    3    0    0  0.87968670429E+02 -0.35390910810E+02  0.14574730227E+03  0.17387719708E+03  0.00000000000E+00 0.  1.
        -13    1    3    3    0    0  0.61681406657E+03 -0.19239574375E+03  0.14786109371E+04  0.16136189198E+04  0.00000000000E+00 0. -1.
         22    1    1    2    0    0 -0.70478273700E+03  0.22778665456E+03  0.63290874049E+03  0.97425814862E+03  0.00000000000E+00 0. -1.
<mgrwt>
<rscale>  0 0.15912361E+04</rscale>
<asrwt>0</asrwt>
<pdfrwt beam="1">  1        2 0.38607854E+00 0.15912361E+04</pdfrwt>
<pdfrwt beam="2">  1       -2 0.38806716E-01 0.15912361E+04</pdfrwt>
<totfact> 0.20743150E+01</totfact>
</mgrwt>
</event>
<event>
 6    1  0.1780144E-005  0.2166629E+04  0.7818608E-02  0.8532447E-01
         -2   -1    0    0    0  501 -0.00000000000E+00  0.00000000000E+00  0.37513258117E+03  0.37513258117E+03  0.00000000000E+00 0.  1.
          2   -1    0    0  501    0  0.00000000000E+00 -0.00000000000E+00 -0.31284155710E+04  0.31284155710E+04  0.00000000000E+00 0. -1.
         23    2    1    2    0    0  0.14267099837E+03  0.75079834313E+03 -0.14183719709E+03  0.78257364030E+03  0.90832517296E+02 0.  0.
         11    1    3    3    0    0  0.18036540917E+02  0.20174525008E+03 -0.24934221541E+01  0.20256524848E+03  0.00000000000E+00 0.  1.
        -11    1    3    3    0    0  0.12463445745E+03  0.54905309305E+03 -0.13934377494E+03  0.58000839182E+03  0.00000000000E+00 0. -1.
         22    1    1    2    0    0 -0.14267099837E+03 -0.75079834313E+03 -0.26114457928E+04  0.27209745119E+04  0.00000000000E+00 0. -1.
<mgrwt>
<rscale>  0 0.21666293E+04</rscale>
<asrwt>0</asrwt>
<pdfrwt beam="1">  1        2 0.48129471E+00 0.21666293E+04</pdfrwt>
<pdfrwt beam="2">  1       -2 0.57712704E-01 0.21666293E+04</pdfrwt>
<totfact> 0.37250968E+00</totfact>
</mgrwt>
</event>
<event>
 6    1  0.1780144E-005  0.3362646E+04  0.7818608E-02  0.8147136E-01
          2   -1    0    0  501    0  0.00000000000E+00  0.00000000000E+00  0.24099241113E+04  0.24099241113E+04  0.00000000000E+00 0. -1.
         -2   -1    0    0    0  501 -0.00000000000E+00 -0.00000000000E+00 -0.11730023886E+04  0.11730023886E+04  0.00000000000E+00 0.  1.
         23    2    1    2    0    0 -0.10312945751E+04 -0.27447506583E+03  0.20015625997E+04  0.22700743631E+04  0.89887212812E+02 0.  0.
         13    1    3    3    0    0 -0.73096276491E+03 -0.18547388320E+03  0.13265796501E+04  0.15259491122E+04  0.00000000000E+00 0. -1.
        -13    1    3    3    0    0 -0.30033181017E+03 -0.89001182631E+02  0.67498294955E+03  0.74412525081E+03  0.00000000000E+00 0.  1.
         22    1    1    2    0    0  0.10312945751E+04  0.27447506583E+03 -0.76464087704E+03  0.13128521368E+04  0.00000000000E+00 0.  1.
<mgrwt>
<rscale>  0 0.33626458E+04</rscale>
<asrwt>0</asrwt>
<pdfrwt beam="1">  1        2 0.37075756E+00 0.33626458E+04</pdfrwt>
<pdfrwt beam="2">  1       -2 0.18046191E+00 0.33626458E+04</pdfrwt>
<totfact> 0.58682872E-01</totfact>
</mgrwt>
</event>
<event>
 6    1  0.1780144E-005  0.3209250E+04  0.7818608E-02  0.8186379E-01
         -1   -1    0    0    0  501 -0.00000000000E+00  0.00000000000E+00  0.95585281292E+03  0.95585281292E+03  0.00000000000E+00 0.  1.
          1   -1    0    0  501    0  0.00000000000E+00 -0.00000000000E+00 -0.26937427969E+04  0.26937427969E+04  0.00000000000E+00 0. -1.
         23    2    1    2    0    0  0.99391193741E+03  0.46697555358E+03  0.45882503113E+03  0.11936876383E+04  0.91883957648E+02 0.  0.
         11    1    3    3    0    0  0.14242784585E+03  0.44273223426E+02  0.37012816523E+02  0.15367419488E+03  0.00000000000E+00 0.  1.
        -11    1    3    3    0    0  0.85148409156E+03  0.42270233016E+03  0.42181221461E+03  0.10400134434E+04  0.00000000000E+00 0. -1.
         22    1    1    2    0    0 -0.99391193741E+03 -0.46697555358E+03 -0.21967150151E+04  0.24559079715E+04  0.00000000000E+00 0. -1.
<mgrwt>
<rscale>  0 0.32092501E+04</rscale>
<asrwt>0</asrwt>
<pdfrwt beam="1">  1        1 0.41442197E+00 0.32092501E+04</pdfrwt>
<pdfrwt beam="2">  1       -1 0.14705428E+00 0.32092501E+04</pdfrwt>
<totfact> 0.30485223E-01</totfact>
</mgrwt>
</event>
<event>
 6    1  0.1780144E-005  0.2307511E+04  0.7818608E-02  0.8474965E-01
          2   -1    0    0  501    0  0.00000000000E+00  0.00000000000E+00  0.21040835311E+04  0.21040835311E+04  0.00000000000E+00 0. -1.
         -2   -1    0    0    0  501 -0.00000000000E+00 -0.00000000000E+00 -0.63265183408E+03  0.63265183408E+03  0.00000000000E+00 0.  1.
         23    2    1    2    0    0  0.94353331557E+03  0.17223141114E+03  0.14935771591E+04  0.17773557749E+04  0.91115553552E+02 0.  0.
         13    1    3    3    0    0  0.24704770613E+03  0.37411690458E+02  0.31958308903E+03  0.40566680230E+03  0.00000000000E+00 0.  1.
        -13    1    3    3    0    0  0.69648560944E+03  0.13481972068E+03  0.11739940700E+04  0.13716889727E+04  0.00000000000E+00 0. -1.
         22    1    1    2    0    0 -0.94353331557E+03 -0.17223141114E+03 -0.22145462081E+02  0.95937959019E+03  0.00000000000E+00 0.  1.
<mgrwt>
<rscale>  0 0.23075115E+04</rscale>
<asrwt>0</asrwt>
<pdfrwt beam="1">  1        2 0.32370515E+00 0.23075115E+04</pdfrwt>
<pdfrwt beam="2">  1       -2 0.97331053E-01 0.23075115E+04</pdfrwt>
<totfact> 0.46625179E+00</totfact>
</mgrwt>
</event>
<event>
 6    1  0.1780144E-005  0.1389791E+04  0.7818608E-02  0.8961241E-01
         -2   -1    0    0    0  501 -0.00000000000E+00  0.00000000000E+00  0.24278953482E+03  0.24278953482E+03  0.00000000000E+00 0.  1.
          2   -1    0    0  501    0  0.00000000000E+00 -0.00000000000E+00 -0.19888833290E+04  0.19888833290E+04  0.00000000000E+00 0. -1.
         23    2    1    2    0    0  0.50865170993E+03 -0.20743992326E+03 -0.20103119256E+03  0.59186301915E+03  0.90168782185E+02 0.  0.
         13    1    3    3    0    0  0.95402874769E+02 -0.41615474717E+02 -0.77497526150E+02  0.12976680165E+03  0.00000000000E+00 0. -1.
        -13    1    3    3    0    0  0.41324883516E+03 -0.16582444854E+03 -0.12353366641E+03  0.46209621751E+03  0.00000000000E+00 0.  1.
         22    1    1    2    0    0 -0.50865170993E+03  0.20743992326E+03 -0.15450626016E+04  0.16398098447E+04  0.00000000000E+00 0. -1.
<mgrwt>
<rscale>  0 0.13897914E+04</rscale>
<asrwt>0</asrwt>
<pdfrwt beam="1">  1        2 0.30598204E+00 0.13897914E+04</pdfrwt>
<pdfrwt beam="2">  1       -2 0.37352237E-01 0.13897914E+04</pdfrwt>
<totfact> 0.44640385E+01</totfact>
</mgrwt>
</event>
<event>
 6    1  0.1780144E-005  0.4551788E+04  0.7818608E-02  0.7901633E-01
          2   -1    0    0  501    0  0.00000000000E+00  0.00000000000E+00  0.20605795684E+04  0.20605795684E+04  0.00000000000E+00 0. -1.
         -2   -1    0    0    0  501 -0.00000000000E+00 -0.00000000000E+00 -0.25137067782E+04  0.25137067782E+04  0.00000000000E+00 0.  1.
         23    2    1    2    0    0 -0.15599967857E+03 -0.21091297092E+04 -0.10690161354E+04  0.23715418770E+04  0.93012616718E+02 0.  0.
         13    1    3    3    0    0 -0.49996874680E+02 -0.26403163707E+03 -0.12925726258E+03  0.29819428697E+03  0.00000000000E+00 0.  1.
        -13    1    3    3    0    0 -0.10600280389E+03 -0.18450980721E+04 -0.93975887284E+03  0.20733475900E+04  0.00000000000E+00 0. -1.
         22    1    1    2    0    0  0.15599967857E+03  0.21091297092E+04  0.61588892563E+03  0.22027444696E+04  0.00000000000E+00 0.  1.
<mgrwt>
<rscale>  0 0.45517877E+04</rscale>
<asrwt>0</asrwt>
<pdfrwt beam="1">  1        2 0.31701224E+00 0.45517877E+04</pdfrwt>
<pdfrwt beam="2">  1       -2 0.38672412E+00 0.45517877E+04</pdfrwt>
<totfact> 0.42251234E-02</totfact>
</mgrwt>
</event>
<event>
 6    1  0.1780144E-005  0.2705743E+04  0.7818608E-02  0.8333144E-01
         -2   -1    0    0    0  501 -0.00000000000E+00  0.00000000000E+00  0.13134684792E+04  0.13134684792E+04  0.00000000000E+00 0.  1.
          2   -1    0    0  501    0  0.00000000000E+00 -0.00000000000E+00 -0.13934570847E+04  0.13934570847E+04  0.00000000000E+00 0. -1.
         23    2    1    2    0    0 -0.76276206813E+03 -0.10928835878E+04 -0.26359418320E+03  0.13615960439E+04  0.90892158124E+02 0.  0.
         11    1    3    3    0    0 -0.24938696117E+03 -0.32400094242E+03 -0.11906613739E+03  0.42584881374E+03  0.00000000000E+00 0.  1.
        -11    1    3    3    0    0 -0.51337510696E+03 -0.76888264535E+03 -0.14452804582E+03  0.93574723018E+03  0.00000000000E+00 0. -1.
         22    1    1    2    0    0  0.76276206813E+03  0.10928835878E+04  0.18360557773E+03  0.13453295199E+04  0.00000000000E+00 0.  1.
<mgrwt>
<rscale>  0 0.27057435E+04</rscale>
<asrwt>0</asrwt>
<pdfrwt beam="1">  1        2 0.21437801E+00 0.27057435E+04</pdfrwt>
<pdfrwt beam="2">  1       -2 0.20207207E+00 0.27057435E+04</pdfrwt>
<totfact> 0.16499917E+00</totfact>
</mgrwt>
</event>
<event>
 6    1  0.1780144E-005  0.3113876E+04  0.7818608E-02  0.8211940E-01
         -1   -1    0    0    0  501 -0.00000000000E+00  0.00000000000E+00  0.45261475848E+04  0.45261475848E+04  0.00000000000E+00 0.  1.
          1   -1    0    0  501    0  0.00000000000E+00 -0.00000000000E+00 -0.53556701080E+03  0.53556701080E+03  0.00000000000E+00 0. -1.
         23    2    1    2    0    0 -0.12595503744E+04  0.39396516188E+03  0.65827028006E+03  0.14775874230E+04  0.90934791691E+02 0.  0.
         13    1    3    3    0    0 -0.90227892732E+03  0.31804306622E+03  0.45162697332E+03  0.10579345810E+04  0.00000000000E+00 0.  1.
        -13    1    3    3    0    0 -0.35727144712E+03  0.75922095659E+02  0.20664330674E+03  0.41965284195E+03  0.00000000000E+00 0. -1.
         22    1    1    2    0    0  0.12595503744E+04 -0.39396516188E+03  0.33323102939E+04  0.35841271726E+04  0.00000000000E+00 0.  1.
<mgrwt>
<rscale>  0 0.31138756E+04</rscale>
<asrwt>0</asrwt>
<pdfrwt beam="1">  1        1 0.82394928E-01 0.31138756E+04</pdfrwt>
<pdfrwt beam="2">  1       -1 0.69633037E+00 0.31138756E+04</pdfrwt>
<totfact> 0.69474702E-03</totfact>
</mgrwt>
</event>
<event>
 6    1  0.1780144E-005  0.8547916E+03  0.7818608E-02  0.9483928E-01
         -1   -1    0    0    0  501 -0.00000000000E+00  0.00000000000E+00  0.10004157458E+04  0.10004157458E+04  0.00000000000E+00 0.  1.
          1   -1    0    0  501    0  0.00000000000E+00 -0.00000000000E+00 -0.18259126825E+03  0.18259126825E+03  0.00000000000E+00 0. -1.
         23    2    1    2    0    0  0.32694053139E+03 -0.14246281426E+03  0.10033534621E+03  0.38177270493E+03  0.92181625167E+02 0.  0.
         11    1    3    3    0    0  0.15919561870E+03 -0.26196181727E+02  0.68202053522E+02  0.17515994135E+03  0.00000000000E+00 0.  1.
        -11    1    3    3    0    0  0.16774491270E+03 -0.11626663253E+03  0.32133292684E+02  0.20661276358E+03  0.00000000000E+00 0. -1.
         22    1    1    2    0    0 -0.32694053139E+03  0.14246281426E+03  0.71748913135E+03  0.80123430913E+03  0.00000000000E+00 0.  1.
<mgrwt>
<rscale>  0 0.85479162E+03</rscale>
<asrwt>0</asrwt>
<pdfrwt beam="1">  1        1 0.28090965E-01 0.85479162E+03</pdfrwt>
<pdfrwt beam="2">  1       -1 0.15391011E+00 0.85479162E+03</pdfrwt>
<totfact> 0.55159918E+01</totfact>
</mgrwt>
</event>
<event>
 6    1  0.1915199E-005  0.3427440E+04  0.7818608E-02  0.8131204E-01
         -4   -1    0    0    0  501 -0.00000000000E+00  0.00000000000E+00  0.12043963779E+04  0.12043963779E+04  0.00000000000E+00 0. -1.
          4   -1    0    0  501    0  0.00000000000E+00 -0.00000000000E+00 -0.24384294794E+04  0.24384294794E+04  0.00000000000E+00 0.  1.
         23    2    1    2    0    0  0.10017698176E+04  0.13864564937E+04 -0.70410773804E+03  0.18521206144E+04  0.93694647988E+02 0.  0.
         11    1    3    3    0    0  0.33871734582E+03  0.52226364519E+03 -0.22115813681E+03  0.66060553806E+03  0.00000000000E+00 0.  1.
        -11    1    3    3    0    0  0.66305247181E+03  0.86419284850E+03 -0.48294960123E+03  0.11915150763E+04  0.00000000000E+00 0. -1.
         22    1    1    2    0    0 -0.10017698176E+04 -0.13864564937E+04 -0.52992536346E+03  0.17907052430E+04  0.00000000000E+00 0. -1.
<mgrwt>
<rscale>  0 0.34274396E+04</rscale>
<asrwt>0</asrwt>
<pdfrwt beam="1">  1        4 0.37514299E+00 0.34274396E+04</pdfrwt>
<pdfrwt beam="2">  1       -4 0.18529175E+00 0.34274396E+04</pdfrwt>
<totfact> 0.27205354E-03</totfact>
</mgrwt>
</event>
<event>
 6    1  0.1780144E-005  0.2178529E+04  0.7818608E-02  0.8527418E-01
         -2   -1    0    0    0  501 -0.00000000000E+00  0.00000000000E+00  0.75551650744E+03  0.75551650744E+03  0.00000000000E+00 0.  1.
          2   -1    0    0  501    0  0.00000000000E+00 -0.00000000000E+00 -0.15704443494E+04  0.15704443494E+04  0.00000000000E+00 0. -1.
         23    2    1    2    0    0  0.89846832559E+03  0.35034054719E+03  0.12808135472E+03  0.97716503238E+03  0.91993673578E+02 0.  0.
         11    1    3    3    0    0  0.45868418812E+03  0.17067880779E+03  0.11073598585E+03  0.50178172389E+03  0.00000000000E+00 0.  1.
        -11    1    3    3    0    0  0.43978413747E+03  0.17966173939E+03  0.17345368874E+02  0.47538330849E+03  0.00000000000E+00 0. -1.
         22    1    1    2    0    0 -0.89846832559E+03 -0.35034054719E+03 -0.94300919671E+03  0.13487958245E+04  0.00000000000E+00 0. -1.
<mgrwt>
<rscale>  0 0.21785285E+04</rscale>
<asrwt>0</asrwt>
<pdfrwt beam="1">  1        2 0.24160682E+00 0.21785285E+04</pdfrwt>
<pdfrwt beam="2">  1       -2 0.11623331E+00 0.21785285E+04</pdfrwt>
<totfact> 0.60949643E+00</totfact>
</mgrwt>
</event>
<event>
 6    1  0.1780144E-005  0.1895962E+04  0.7818608E-02  0.8656869E-01
         -2   -1    0    0    0  501 -0.00000000000E+00  0.00000000000E+00  0.12818093364E+04  0.12818093364E+04  0.00000000000E+00 0.  1.
          2   -1    0    0  501    0  0.00000000000E+00 -0.00000000000E+00 -0.70109304789E+03  0.70109304789E+03  0.00000000000E+00 0. -1.
         23    2    1    2    0    0  0.42326151886E+03  0.78149296793E+03 -0.46889335892E+02  0.89489025566E+03  0.93532815550E+02 0.  0.
         13    1    3    3    0    0  0.23589026962E+03  0.52782511197E+03 -0.22307770300E+02  0.57856823689E+03  0.00000000000E+00 0.  1.
        -13    1    3    3    0    0  0.18737124924E+03  0.25366785596E+03 -0.24581565592E+02  0.31632201877E+03  0.00000000000E+00 0. -1.
         22    1    1    2    0    0 -0.42326151886E+03 -0.78149296793E+03  0.62760562441E+03  0.10880121286E+04  0.00000000000E+00 0.  1.
<mgrwt>
<rscale>  0 0.18959616E+04</rscale>
<asrwt>0</asrwt>
<pdfrwt beam="1">  1        2 0.10786047E+00 0.18959616E+04</pdfrwt>
<pdfrwt beam="2">  1       -2 0.19720144E+00 0.18959616E+04</pdfrwt>
<totfact> 0.53127683E+00</totfact>
</mgrwt>
</event>
<event>
 6    1  0.1780144E-005  0.3254601E+04  0.7818608E-02  0.8174544E-01
          2   -1    0    0  501    0  0.00000000000E+00  0.00000000000E+00  0.23277223068E+04  0.23277223068E+04  0.00000000000E+00 0. -1.
         -2   -1    0    0    0  501 -0.00000000000E+00 -0.00000000000E+00 -0.11376387964E+04  0.11376387964E+04  0.00000000000E+00 0.  1.
         23    2    1    2    0    0  0.10548733029E+04 -0.69884089326E+03  0.16823198616E+04  0.21076303107E+04  0.10377442282E+03 0.  0.
         11    1    3    3    0    0  0.77601295139E+03 -0.56641368367E+03  0.12586683370E+04  0.15834350458E+04  0.00000000000E+00 0. -1.
        -11    1    3    3    0    0  0.27886035155E+03 -0.13242720959E+03  0.42365152460E+03  0.52419526495E+03  0.00000000000E+00 0.  1.
         22    1    1    2    0    0 -0.10548733029E+04  0.69884089326E+03 -0.49223635117E+03  0.13577307924E+04  0.00000000000E+00 0.  1.
<mgrwt>
<rscale>  0 0.32546012E+04</rscale>
<asrwt>0</asrwt>
<pdfrwt beam="1">  1        2 0.35811112E+00 0.32546012E+04</pdfrwt>
<pdfrwt beam="2">  1       -2 0.17502135E+00 0.32546012E+04</pdfrwt>
<totfact> 0.71981744E-01</totfact>
</mgrwt>
</event>
<event>
 6    1  0.1780144E-005  0.2580991E+04  0.7818608E-02  0.8374687E-01
         -2   -1    0    0    0  501 -0.00000000000E+00  0.00000000000E+00  0.71932739514E+03  0.71932739514E+03  0.00000000000E+00 0.  1.
          2   -1    0    0  501    0  0.00000000000E+00 -0.00000000000E+00 -0.23151894026E+04  0.23151894026E+04  0.00000000000E+00 0. -1.
         23    2    1    2    0    0 -0.50203811332E+02 -0.11063708545E+04 -0.24484854354E+02  0.11120696469E+04  0.97583303989E+02 0.  0.
         11    1    3    3    0    0 -0.78186338690E+02 -0.67527811694E+03 -0.17348446525E+02  0.68001074063E+03  0.00000000000E+00 0.  1.
        -11    1    3    3    0    0  0.27982527358E+02 -0.43109273755E+03 -0.71364078294E+01  0.43205890631E+03  0.00000000000E+00 0. -1.
         22    1    1    2    0    0  0.50203811332E+02  0.11063708545E+04 -0.15713771531E+04  0.19224471508E+04  0.00000000000E+00 0. -1.
<mgrwt>
<rscale>  0 0.25809914E+04</rscale>
<asrwt>0</asrwt>
<pdfrwt beam="1">  1        2 0.35618299E+00 0.25809914E+04</pdfrwt>
<pdfrwt beam="2">  1       -2 0.11066575E+00 0.25809914E+04</pdfrwt>
<totfact> 0.25490266E+00</totfact>
</mgrwt>
</event>
<event>
 6    1  0.1780144E-005  0.1956640E+04  0.7818608E-02  0.8627165E-01
          2   -1    0    0  501    0  0.00000000000E+00  0.00000000000E+00  0.51844921404E+04  0.51844921404E+04  0.00000000000E+00 0.  1.
         -2   -1    0    0    0  501 -0.00000000000E+00 -0.00000000000E+00 -0.18461025350E+03  0.18461025350E+03  0.00000000000E+00 0. -1.
         23    2    1    2    0    0  0.33623300058E+03 -0.52178132865E+03  0.45729319028E+04  0.46157136002E+04  0.88303259911E+02 0.  0.
         11    1    3    3    0    0  0.27162123206E+03 -0.35227287785E+03  0.31438561523E+04  0.31751701971E+04  0.00000000000E+00 0. -1.
        -11    1    3    3    0    0  0.64611768513E+02 -0.16950845081E+03  0.14290757505E+04  0.14405434031E+04  0.00000000000E+00 0.  1.
         22    1    1    2    0    0 -0.33623300058E+03  0.52178132865E+03  0.42694998415E+03  0.75338879376E+03  0.00000000000E+00 0. -1.
<mgrwt>
<rscale>  0 0.19566404E+04</rscale>
<asrwt>0</asrwt>
<pdfrwt beam="1">  1        2 0.79761407E+00 0.19566404E+04</pdfrwt>
<pdfrwt beam="2">  1       -2 0.28401581E-01 0.19566404E+04</pdfrwt>
<totfact> 0.21200933E-01</totfact>
</mgrwt>
</event>
<event>
 6    1  0.1780144E-005  0.1033299E+04  0.7818608E-02  0.9272759E-01
         -3   -1    0    0    0  501 -0.00000000000E+00  0.00000000000E+00  0.52331329954E+03  0.52331329954E+03  0.00000000000E+00 0.  1.
          3   -1    0    0  501    0  0.00000000000E+00 -0.00000000000E+00 -0.51007034066E+03  0.51007034066E+03  0.00000000000E+00 0. -1.
         23    2    1    2    0    0 -0.61459697710E+02 -0.36569819621E+03  0.36119342037E+03  0.52487406427E+03  0.86715807485E+02 0.  0.
         13    1    3    3    0    0 -0.33529507968E+02 -0.27574937312E+03  0.21631254752E+03  0.35206968471E+03  0.00000000000E+00 0. -1.
        -13    1    3    3    0    0 -0.27930189741E+02 -0.89948823092E+02  0.14488087286E+03  0.17280437956E+03  0.00000000000E+00 0.  1.
         22    1    1    2    0    0  0.61459697710E+02  0.36569819621E+03 -0.34795046149E+03  0.50850957592E+03  0.00000000000E+00 0.  1.
<mgrwt>
<rscale>  0 0.10332988E+04</rscale>
<asrwt>0</asrwt>
<pdfrwt beam="1">  1        3 0.78472360E-01 0.10332988E+04</pdfrwt>
<pdfrwt beam="2">  1       -3 0.80509739E-01 0.10332988E+04</pdfrwt>
<totfact> 0.56886084E+00</totfact>
</mgrwt>
</event>
<event>
 6    1  0.1780144E-005  0.2055258E+04  0.7818608E-02  0.8581213E-01
          1   -1    0    0  501    0  0.00000000000E+00  0.00000000000E+00  0.11611374392E+04  0.11611374392E+04  0.00000000000E+00 0. -1.
         -1   -1    0    0    0  501 -0.00000000000E+00 -0.00000000000E+00 -0.90947176334E+03  0.90947176334E+03  0.00000000000E+00 0.  1.
         23    2    1    2    0    0  0.31023715762E+03  0.90727963610E+03 -0.23948289614E+03  0.99328364737E+03  0.99281995118E+02 0.  0.
         11    1    3    3    0    0  0.19893307555E+03  0.46481885871E+03 -0.92856658972E+02  0.51405573538E+03  0.00000000000E+00 0. -1.
        -11    1    3    3    0    0  0.11130408208E+03  0.44246077738E+03 -0.14662623717E+03  0.47922791200E+03  0.00000000000E+00 0.  1.
         22    1    1    2    0    0 -0.31023715762E+03 -0.90727963610E+03  0.49114857199E+03  0.10773255552E+04  0.00000000000E+00 0. -1.
<mgrwt>
<rscale>  0 0.20552583E+04</rscale>
<asrwt>0</asrwt>
<pdfrwt beam="1">  1        1 0.17863653E+00 0.20552583E+04</pdfrwt>
<pdfrwt beam="2">  1       -1 0.13991873E+00 0.20552583E+04</pdfrwt>
<totfact> 0.44239192E+00</totfact>
</mgrwt>
</event>
<event>
 6    1  0.1780144E-005  0.2003213E+04  0.7818608E-02  0.8605120E-01
         -2   -1    0    0    0  501 -0.00000000000E+00  0.00000000000E+00  0.88786255470E+03  0.88786255470E+03  0.00000000000E+00 0.  1.
          2   -1    0    0  501    0  0.00000000000E+00 -0.00000000000E+00 -0.11299223386E+04  0.11299223386E+04  0.00000000000E+00 0. -1.
         23    2    1    2    0    0 -0.31699791733E+03  0.35867475480E+02 -0.10753686320E+04  0.11254969399E+04  0.92474383626E+02 0.  0.
         11    1    3    3    0    0 -0.28108172095E+03  0.61871387735E+02 -0.93263789280E+03  0.97603711075E+03  0.00000000000E+00 0.  1.
        -11    1    3    3    0    0 -0.35916196387E+02 -0.26003912254E+02 -0.14273073924E+03  0.14945982918E+03  0.00000000000E+00 0. -1.
         22    1    1    2    0    0  0.31699791733E+03 -0.35867475480E+02  0.83330884813E+03  0.89228795339E+03  0.00000000000E+00 0.  1.
<mgrwt>
<rscale>  0 0.20032132E+04</rscale>
<asrwt>0</asrwt>
<pdfrwt beam="1">  1        2 0.17383421E+00 0.20032132E+04</pdfrwt>
<pdfrwt beam="2">  1       -2 0.13659424E+00 0.20032132E+04</pdfrwt>
<totfact> 0.74259380E+00</totfact>
</mgrwt>
</event>
<event>
 6    1  0.1780144E-005  0.1311592E+04  0.7818608E-02  0.9020423E-01
          1   -1    0    0  501    0  0.00000000000E+00  0.00000000000E+00  0.41544393772E+03  0.41544393772E+03  0.00000000000E+00 0.  1.
         -1   -1    0    0    0  501 -0.00000000000E+00 -0.00000000000E+00 -0.10352015104E+04  0.10352015104E+04  0.00000000000E+00 0. -1.
         23    2    1    2    0    0 -0.60380956917E+03  0.22193293225E+03 -0.43333449284E+03  0.78087400434E+03  0.90250793522E+02 0.  0.
         13    1    3    3    0    0 -0.13158926620E+03  0.40161690570E+02 -0.51228831008E+02  0.14680970504E+03  0.00000000000E+00 0. -1.
        -13    1    3    3    0    0 -0.47222030297E+03  0.18177124168E+03 -0.38210566183E+03  0.63406429930E+03  0.00000000000E+00 0.  1.
         22    1    1    2    0    0  0.60380956917E+03 -0.22193293225E+03 -0.18642307988E+03  0.66977144382E+03  0.00000000000E+00 0. -1.
<mgrwt>
<rscale>  0 0.13115917E+04</rscale>
<asrwt>0</asrwt>
<pdfrwt beam="1">  1        1 0.63914452E-01 0.13115917E+04</pdfrwt>
<pdfrwt beam="2">  1       -1 0.15926177E+00 0.13115917E+04</pdfrwt>
<totfact> 0.16573778E+01</totfact>
</mgrwt>
</event>
<event>
 6    1  0.1780144E-005  0.2841900E+04  0.7818608E-02  0.8290377E-01
          2   -1    0    0  501    0  0.00000000000E+00  0.00000000000E+00  0.35512627315E+04  0.35512627315E+04  0.00000000000E+00 0. -1.
         -2   -1    0    0    0  501 -0.00000000000E+00 -0.00000000000E+00 -0.56855784621E+03  0.56855784621E+03  0.00000000000E+00 0.  1.
         23    2    1    2    0    0  0.19676353332E+02  0.90889021266E+03 -0.87622812737E+02  0.91773051795E+03  0.89905331943E+02 0.  0.
         11    1    3    3    0    0  0.72697095144E+01  0.51627964844E+03 -0.94278645968E+02  0.52486759012E+03  0.00000000000E+00 0. -1.
        -11    1    3    3    0    0  0.12406643818E+02  0.39261056422E+03  0.66558332313E+01  0.39286292783E+03  0.00000000000E+00 0.  1.
         22    1    1    2    0    0 -0.19676353332E+02 -0.90889021266E+03  0.30703276980E+04  0.32020900598E+04  0.00000000000E+00 0. -1.
<mgrwt>
<rscale>  0 0.28418996E+04</rscale>
<asrwt>0</asrwt>
<pdfrwt beam="1">  1        2 0.54634810E+00 0.28418996E+04</pdfrwt>
<pdfrwt beam="2">  1       -2 0.87470440E-01 0.28418996E+04</pdfrwt>
<totfact> 0.73183937E-01</totfact>
</mgrwt>
</event>
<event>
 6    1  0.1780144E-005  0.3234015E+04  0.7818608E-02  0.8179891E-01
         -2   -1    0    0    0  501 -0.00000000000E+00  0.00000000000E+00  0.13658410080E+04  0.13658410080E+04  0.00000000000E+00 0. -1.
          2   -1    0    0  501    0  0.00000000000E+00 -0.00000000000E+00 -0.19143608695E+04  0.19143608695E+04  0.00000000000E+00 0.  1.
         23    2    1    2    0    0 -0.14541026323E+04  0.70167622607E+03 -0.21108506095E+03  0.16307697824E+04  0.89939917383E+02 0.  0.
         11    1    3    3    0    0 -0.58668634239E+03  0.32758672882E+03 -0.10687655478E+03  0.68039439093E+03  0.00000000000E+00 0.  1.
        -11    1    3    3    0    0 -0.86741628993E+03  0.37408949725E+03 -0.10420850617E+03  0.95037539149E+03  0.00000000000E+00 0. -1.
         22    1    1    2    0    0  0.14541026323E+04 -0.70167622607E+03 -0.33743480057E+03  0.16494320951E+04  0.00000000000E+00 0.  1.
<mgrwt>
<rscale>  0 0.32340146E+04</rscale>
<asrwt>0</asrwt>
<pdfrwt beam="1">  1        2 0.29451705E+00 0.32340146E+04</pdfrwt>
<pdfrwt beam="2">  1       -2 0.21012939E+00 0.32340146E+04</pdfrwt>
<totfact> 0.71554714E-01</totfact>
</mgrwt>
</event>
<event>
 6    1  0.1780144E-005  0.1262830E+04  0.7818608E-02  0.9059572E-01
         -2   -1    0    0    0  501 -0.00000000000E+00  0.00000000000E+00  0.13297425550E+03  0.13297425550E+03  0.00000000000E+00 0.  1.
          2   -1    0    0  501    0  0.00000000000E+00 -0.00000000000E+00 -0.29982134778E+04  0.29982134778E+04  0.00000000000E+00 0. -1.
         23    2    1    2    0    0  0.35134633024E+03 -0.48045497432E+03 -0.94262460847E+03  0.11185456440E+04  0.91224882672E+02 0.  0.
         11    1    3    3    0    0  0.14411913945E+03 -0.20460975315E+03 -0.31474292541E+03  0.40211762774E+03  0.00000000000E+00 0.  1.
        -11    1    3    3    0    0  0.20722719079E+03 -0.27584522117E+03 -0.62788168306E+03  0.71642801631E+03  0.00000000000E+00 0. -1.
         22    1    1    2    0    0 -0.35134633024E+03  0.48045497432E+03 -0.19226146138E+04  0.20126420893E+04  0.00000000000E+00 0. -1.
<mgrwt>
<rscale>  0 0.12628305E+04</rscale>
<asrwt>0</asrwt>
<pdfrwt beam="1">  1        2 0.46126365E+00 0.12628305E+04</pdfrwt>
<pdfrwt beam="2">  1       -2 0.20457576E-01 0.12628305E+04</pdfrwt>
<totfact> 0.35672978E+01</totfact>
</mgrwt>
</event>
<event>
 6    1  0.1780144E-005  0.2567849E+04  0.7818608E-02  0.8379205E-01
         -2   -1    0    0    0  501 -0.00000000000E+00  0.00000000000E+00  0.66809982148E+03  0.66809982148E+03  0.00000000000E+00 0. -1.
          2   -1    0    0  501    0  0.00000000000E+00 -0.00000000000E+00 -0.24673893912E+04  0.24673893912E+04  0.00000000000E+00 0.  1.
         23    2    1    2    0    0 -0.12006745477E+04  0.44948871250E+03 -0.93011240867E+03  0.15865772043E+04  0.91970975262E+02 0.  0.
         13    1    3    3    0    0 -0.81690035134E+03  0.31635801860E+03 -0.58321735366E+03  0.10524025188E+04  0.00000000000E+00 0.  1.
        -13    1    3    3    0    0 -0.38377419640E+03  0.13313069390E+03 -0.34689505501E+03  0.53417468554E+03  0.00000000000E+00 0. -1.
         22    1    1    2    0    0  0.12006745477E+04 -0.44948871250E+03 -0.86917716100E+03  0.15489120083E+04  0.00000000000E+00 0. -1.
<mgrwt>
<rscale>  0 0.25678492E+04</rscale>
<asrwt>0</asrwt>
<pdfrwt beam="1">  1        2 0.37959837E+00 0.25678492E+04</pdfrwt>
<pdfrwt beam="2">  1       -2 0.10278459E+00 0.25678492E+04</pdfrwt>
<totfact> 0.24942075E+00</totfact>
</mgrwt>
</event>
<event>
 6    1  0.1780144E-005  0.2232784E+04  0.7818608E-02  0.8504905E-01
          1   -1    0    0  501    0  0.00000000000E+00  0.00000000000E+00  0.20148223485E+04  0.20148223485E+04  0.00000000000E+00 0. -1.
         -1   -1    0    0    0  501 -0.00000000000E+00 -0.00000000000E+00 -0.61858124632E+03  0.61858124632E+03  0.00000000000E+00 0.  1.
         23    2    1    2    0    0 -0.54973460447E+03 -0.86423142547E+03  0.12176711840E+04  0.15936962765E+04  0.89669489347E+02 0.  0.
         13    1    3    3    0    0 -0.43356676917E+03 -0.67256503965E+03  0.89161751218E+03  0.11980424299E+04  0.00000000000E+00 0.  1.
        -13    1    3    3    0    0 -0.11616783530E+03 -0.19166638582E+03  0.32605367182E+03  0.39565384659E+03  0.00000000000E+00 0. -1.
         22    1    1    2    0    0  0.54973460447E+03  0.86423142547E+03  0.17856991822E+03  0.10397073183E+04  0.00000000000E+00 0.  1.
<mgrwt>
<rscale>  0 0.22327842E+04</rscale>
<asrwt>0</asrwt>
<pdfrwt beam="1">  1        1 0.30997267E+00 0.22327842E+04</pdfrwt>
<pdfrwt beam="2">  1       -1 0.95166347E-01 0.22327842E+04</pdfrwt>
<totfact> 0.28228113E+00</totfact>
</mgrwt>
</event>
<event>
 6    1  0.1780144E-005  0.2973470E+04  0.7818608E-02  0.8251347E-01
          2   -1    0    0  501    0  0.00000000000E+00  0.00000000000E+00  0.80774944290E+03  0.80774944290E+03  0.00000000000E+00 0. -1.
         -2   -1    0    0    0  501 -0.00000000000E+00 -0.00000000000E+00 -0.27364692499E+04  0.27364692499E+04  0.00000000000E+00 0.  1.
         23    2    1    2    0    0  0.45029005249E+03 -0.22824174171E+03 -0.26303642901E+04  0.26798342850E+04  0.88544182102E+02 0.  0.
         11    1    3    3    0    0  0.26368600888E+03 -0.14794219456E+03 -0.13491512908E+04  0.13826157853E+04  0.00000000000E+00 0. -1.
        -11    1    3    3    0    0  0.18660404361E+03 -0.80299547148E+02 -0.12812129993E+04  0.12972184997E+04  0.00000000000E+00 0.  1.
         22    1    1    2    0    0 -0.45029005249E+03  0.22824174171E+03  0.70164448304E+03  0.86438440789E+03  0.00000000000E+00 0. -1.
<mgrwt>
<rscale>  0 0.29734704E+04</rscale>
<asrwt>0</asrwt>
<pdfrwt beam="1">  1        2 0.12426914E+00 0.29734704E+04</pdfrwt>
<pdfrwt beam="2">  1       -2 0.42099528E+00 0.29734704E+04</pdfrwt>
<totfact> 0.15739820E-01</totfact>
</mgrwt>
</event>
<event>
 6    1  0.1780144E-005  0.2209319E+04  0.7818608E-02  0.8514560E-01
          2   -1    0    0  501    0  0.00000000000E+00  0.00000000000E+00  0.93351043853E+03  0.93351043853E+03  0.00000000000E+00 0. -1.
         -2   -1    0    0    0  501 -0.00000000000E+00 -0.00000000000E+00 -0.13071863498E+04  0.13071863498E+04  0.00000000000E+00 0.  1.
         23    2    1    2    0    0  0.10018341719E+04  0.14346196016E+03 -0.63102661446E+03  0.11964351226E+04  0.94917714126E+02 0.  0.
         11    1    3    3    0    0  0.57205199299E+03  0.12195279301E+03 -0.39296274195E+03  0.70465288119E+03  0.00000000000E+00 0.  1.
        -11    1    3    3    0    0  0.42978217893E+03  0.21509167145E+02 -0.23806387251E+03  0.49178224144E+03  0.00000000000E+00 0. -1.
         22    1    1    2    0    0 -0.10018341719E+04 -0.14346196016E+03  0.25735070318E+03  0.10442616657E+04  0.00000000000E+00 0. -1.
<mgrwt>
<rscale>  0 0.22093185E+04</rscale>
<asrwt>0</asrwt>
<pdfrwt beam="1">  1        2 0.14361699E+00 0.22093185E+04</pdfrwt>
<pdfrwt beam="2">  1       -2 0.20110559E+00 0.22093185E+04</pdfrwt>
<totfact> 0.33249364E+00</totfact>
</mgrwt>
</event>
<event>
 6    1  0.1780144E-005  0.2259961E+04  0.7818608E-02  0.8493877E-01
         -1   -1    0    0    0  501 -0.00000000000E+00  0.00000000000E+00  0.14998518836E+04  0.14998518836E+04  0.00000000000E+00 0.  1.
          1   -1    0    0  501    0  0.00000000000E+00 -0.00000000000E+00 -0.85132128461E+03  0.85132128461E+03  0.00000000000E+00 0. -1.
         23    2    1    2    0    0  0.15664894567E+03 -0.41505863091E+03  0.14039185087E+04  0.14751460834E+04  0.90863793733E+02 0.  0.
         13    1    3    3    0    0  0.10834552435E+03 -0.30476396549E+03  0.11411432490E+04  0.11860976950E+04  0.00000000000E+00 0.  1.
        -13    1    3    3    0    0  0.48303421329E+02 -0.11029466542E+03  0.26277525966E+03  0.28904838838E+03  0.00000000000E+00 0. -1.
         22    1    1    2    0    0 -0.15664894567E+03  0.41505863091E+03 -0.75538790969E+03  0.87602708484E+03  0.00000000000E+00 0. -1.
<mgrwt>
<rscale>  0 0.22599609E+04</rscale>
<asrwt>0</asrwt>
<pdfrwt beam="1">  1        1 0.13097251E+00 0.22599609E+04</pdfrwt>
<pdfrwt beam="2">  1       -1 0.23074644E+00 0.22599609E+04</pdfrwt>
<totfact> 0.16907429E+00</totfact>
</mgrwt>
</event>
<event>
 6    1  0.1780144E-005  0.4401615E+04  0.7818608E-02  0.7928091E-01
         -2   -1    0    0    0  501 -0.00000000000E+00  0.00000000000E+00  0.16451221386E+04  0.16451221386E+04  0.00000000000E+00 0.  1.
          2   -1    0    0  501    0  0.00000000000E+00 -0.00000000000E+00 -0.29441902555E+04  0.29441902555E+04  0.00000000000E+00 0. -1.
         23    2    1    2    0    0  0.13900668563E+04 -0.33235790981E+03  0.10937270458E+04  0.18021603825E+04  0.93784584611E+02 0.  0.
         11    1    3    3    0    0  0.13483978167E+04 -0.32294220517E+03  0.10384267125E+04  0.17322812639E+04  0.00000000000E+00 0. -1.
        -11    1    3    3    0    0  0.41669039608E+02 -0.94157046417E+01  0.55300333290E+02  0.69879118610E+02  0.00000000000E+00 0.  1.
         22    1    1    2    0    0 -0.13900668563E+04  0.33235790981E+03 -0.23927951626E+04  0.27871520116E+04  0.00000000000E+00 0. -1.
<mgrwt>
<rscale>  0 0.44016145E+04</rscale>
<asrwt>0</asrwt>
<pdfrwt beam="1">  1        2 0.45295235E+00 0.44016145E+04</pdfrwt>
<pdfrwt beam="2">  1       -2 0.25309571E+00 0.44016145E+04</pdfrwt>
<totfact> 0.88580288E-02</totfact>
</mgrwt>
</event>
<event>
 6    1  0.1780144E-005  0.4395070E+04  0.7818608E-02  0.7929269E-01
         -2   -1    0    0    0  501 -0.00000000000E+00  0.00000000000E+00  0.15562917896E+04  0.15562917896E+04  0.00000000000E+00 0. -1.
          2   -1    0    0  501    0  0.00000000000E+00 -0.00000000000E+00 -0.31029916872E+04  0.31029916872E+04  0.00000000000E+00 0.  1.
         23    2    1    2    0    0  0.11947948058E+04  0.18319618287E+04 -0.55878908117E+03  0.22593696136E+04  0.94271117457E+02 0.  0.
         13    1    3    3    0    0  0.21436615976E+03  0.39140146577E+03 -0.13087312063E+03  0.46505454687E+03  0.00000000000E+00 0. -1.
        -13    1    3    3    0    0  0.98042864602E+03  0.14405603630E+04 -0.42791596054E+03  0.17943150667E+04  0.00000000000E+00 0.  1.
         22    1    1    2    0    0 -0.11947948058E+04 -0.18319618287E+04 -0.98791081645E+03  0.23999138633E+04  0.00000000000E+00 0.  1.
<mgrwt>
<rscale>  0 0.43950702E+04</rscale>
<asrwt>0</asrwt>
<pdfrwt beam="1">  1        2 0.47738333E+00 0.43950702E+04</pdfrwt>
<pdfrwt beam="2">  1       -2 0.23942951E+00 0.43950702E+04</pdfrwt>
<totfact> 0.85435720E-02</totfact>
</mgrwt>
</event>
<event>
 6    1  0.1780144E-005  0.2502657E+04  0.7818608E-02  0.8402040E-01
         -1   -1    0    0    0  501 -0.00000000000E+00  0.00000000000E+00  0.19349208280E+04  0.19349208280E+04  0.00000000000E+00 0.  1.
          1   -1    0    0  501    0  0.00000000000E+00 -0.00000000000E+00 -0.80924366501E+03  0.80924366501E+03  0.00000000000E+00 0. -1.
         23    2    1    2    0    0  0.70613774757E+03  0.96228195097E+03  0.96983583566E+03  0.15404603803E+04  0.88428295527E+02 0.  0.
         11    1    3    3    0    0  0.12269397378E+03  0.22265633996E+03  0.18685531369E+03  0.31550683857E+03  0.00000000000E+00 0.  1.
        -11    1    3    3    0    0  0.58344377379E+03  0.73962561101E+03  0.78298052197E+03  0.12249535417E+04  0.00000000000E+00 0. -1.
         22    1    1    2    0    0 -0.70613774757E+03 -0.96228195097E+03  0.15584132736E+03  0.12037041127E+04  0.00000000000E+00 0. -1.
<mgrwt>
<rscale>  0 0.25026565E+04</rscale>
<asrwt>0</asrwt>
<pdfrwt beam="1">  1        1 0.12449903E+00 0.25026565E+04</pdfrwt>
<pdfrwt beam="2">  1       -1 0.29768013E+00 0.25026565E+04</pdfrwt>
<totfact> 0.65911704E-01</totfact>
</mgrwt>
</event>
<event>
 6    1  0.1780144E-005  0.1038994E+04  0.7818608E-02  0.9266781E-01
         -1   -1    0    0    0  501 -0.00000000000E+00  0.00000000000E+00  0.42150424898E+03  0.42150424898E+03  0.00000000000E+00 0.  1.
          1   -1    0    0  501    0  0.00000000000E+00 -0.00000000000E+00 -0.64027172146E+03  0.64027172146E+03  0.00000000000E+00 0. -1.
         23    2    1    2    0    0  0.45846537235E+03 -0.21414405195E+03 -0.20688020362E+03  0.55562433328E+03  0.99351942379E+02 0.  0.
         11    1    3    3    0    0  0.18994703130E+03 -0.83210944119E+02 -0.13785441884E+03  0.24901360749E+03  0.00000000000E+00 0. -1.
        -11    1    3    3    0    0  0.26851834106E+03 -0.13093310783E+03 -0.69025784784E+02  0.30661072580E+03  0.00000000000E+00 0.  1.
         22    1    1    2    0    0 -0.45846537235E+03  0.21414405195E+03 -0.11887268852E+02  0.50615163715E+03  0.00000000000E+00 0.  1.
<mgrwt>
<rscale>  0 0.10389942E+04</rscale>
<asrwt>0</asrwt>
<pdfrwt beam="1">  1        1 0.98503342E-01 0.10389942E+04</pdfrwt>
<pdfrwt beam="2">  1       -1 0.64846807E-01 0.10389942E+04</pdfrwt>
<totfact> 0.75139125E+01</totfact>
</mgrwt>
</event>
<event>
 6    1  0.1780144E-005  0.2819254E+04  0.7818608E-02  0.8297315E-01
         -2   -1    0    0    0  501 -0.00000000000E+00  0.00000000000E+00  0.79325507603E+03  0.79325507603E+03  0.00000000000E+00 0. -1.
          2   -1    0    0  501    0  0.00000000000E+00 -0.00000000000E+00 -0.25049304451E+04  0.25049304451E+04  0.00000000000E+00 0.  1.
         23    2    1    2    0    0 -0.23652373187E+02  0.13341023440E+04 -0.33037708839E+03  0.13776716734E+04  0.91878833787E+02 0.  0.
         13    1    3    3    0    0  0.71633999002E+01  0.99317584611E+03 -0.27797327651E+03  0.10313674021E+04  0.00000000000E+00 0.  1.
        -13    1    3    3    0    0 -0.30815773087E+02  0.34092649790E+03 -0.52403811879E+02  0.34630427133E+03  0.00000000000E+00 0. -1.
         22    1    1    2    0    0  0.23652373187E+02 -0.13341023440E+04 -0.13812982806E+04  0.19205138477E+04  0.00000000000E+00 0.  1.
<mgrwt>
<rscale>  0 0.28192544E+04</rscale>
<asrwt>0</asrwt>
<pdfrwt beam="1">  1        2 0.38537391E+00 0.28192544E+04</pdfrwt>
<pdfrwt beam="2">  1       -2 0.12203924E+00 0.28192544E+04</pdfrwt>
<totfact> 0.15294047E+00</totfact>
</mgrwt>
</event>
<event>
 6    1  0.1780144E-005  0.4829523E+04  0.7818608E-02  0.7855357E-01
         -2   -1    0    0    0  501 -0.00000000000E+00  0.00000000000E+00  0.21146298988E+04  0.21146298988E+04  0.00000000000E+00 0.  1.
          2   -1    0    0  501    0  0.00000000000E+00 -0.00000000000E+00 -0.27574909507E+04  0.27574909507E+04  0.00000000000E+00 0. -1.
         23    2    1    2    0    0 -0.23363682393E+04 -0.19178322620E+03 -0.90249154480E+03  0.25135608337E+04  0.89998449096E+02 0.  0.
         13    1    3    3    0    0 -0.17602149820E+04 -0.15789443906E+03 -0.71902424957E+03  0.19079526483E+04  0.00000000000E+00 0. -1.
        -13    1    3    3    0    0 -0.57615325733E+03 -0.33888787139E+02 -0.18346729523E+03  0.60560818542E+03  0.00000000000E+00 0.  1.
         22    1    1    2    0    0  0.23363682393E+04  0.19178322620E+03  0.25963049289E+03  0.23585600158E+04  0.00000000000E+00 0.  1.
<mgrwt>
<rscale>  0 0.48295229E+04</rscale>
<asrwt>0</asrwt>
<pdfrwt beam="1">  1        2 0.42422938E+00 0.48295229E+04</pdfrwt>
<pdfrwt beam="2">  1       -2 0.32532767E+00 0.48295229E+04</pdfrwt>
<totfact> 0.40169080E-02</totfact>
</mgrwt>
</event>
<event>
 6    1  0.1780144E-005  0.1130402E+04  0.7818608E-02  0.9176056E-01
         -1   -1    0    0    0  501 -0.00000000000E+00  0.00000000000E+00  0.21013421503E+03  0.21013421503E+03  0.00000000000E+00 0.  1.
          1   -1    0    0  501    0  0.00000000000E+00 -0.00000000000E+00 -0.15202293526E+04  0.15202293526E+04  0.00000000000E+00 0. -1.
         23    2    1    2    0    0  0.55809199312E+03 -0.63880282908E+02 -0.67069575490E+03  0.87925903007E+03  0.87842375797E+02 0.  0.
         11    1    3    3    0    0  0.20387165553E+03  0.18646164065E+02 -0.23245592765E+03  0.30975327224E+03  0.00000000000E+00 0. -1.
        -11    1    3    3    0    0  0.35422033759E+03 -0.82526446973E+02 -0.43823982725E+03  0.56950575783E+03  0.00000000000E+00 0.  1.
         22    1    1    2    0    0 -0.55809199312E+03  0.63880282908E+02 -0.63939938271E+03  0.85110453761E+03  0.00000000000E+00 0.  1.
<mgrwt>
<rscale>  0 0.11304021E+04</rscale>
<asrwt>0</asrwt>
<pdfrwt beam="1">  1        1 0.23388144E+00 0.11304021E+04</pdfrwt>
<pdfrwt beam="2">  1       -1 0.32328341E-01 0.11304021E+04</pdfrwt>
<totfact> 0.56311391E+01</totfact>
</mgrwt>
</event>
<event>
 6    1  0.1780144E-005  0.1584543E+04  0.7818608E-02  0.8830101E-01
         -2   -1    0    0    0  501 -0.00000000000E+00  0.00000000000E+00  0.58849929192E+03  0.58849929192E+03  0.00000000000E+00 0.  1.
          2   -1    0    0  501    0  0.00000000000E+00 -0.00000000000E+00 -0.10666011285E+04  0.10666011285E+04  0.00000000000E+00 0. -1.
         23    2    1    2    0    0 -0.76393150209E+03  0.52099047141E+02 -0.38098931457E+02  0.77197630279E+03  0.90499905510E+02 0.  0.
         11    1    3    3    0    0 -0.43770915818E+03 -0.27982235585E+01  0.91263651209E+01  0.43781323387E+03  0.00000000000E+00 0.  1.
        -11    1    3    3    0    0 -0.32622234391E+03  0.54897270700E+02 -0.47225296578E+02  0.33416306892E+03  0.00000000000E+00 0. -1.
         22    1    1    2    0    0  0.76393150209E+03 -0.52099047141E+02 -0.44000290510E+03  0.88312411761E+03  0.00000000000E+00 0. -1.
<mgrwt>
<rscale>  0 0.15845428E+04</rscale>
<asrwt>0</asrwt>
<pdfrwt beam="1">  1        2 0.16409248E+00 0.15845428E+04</pdfrwt>
<pdfrwt beam="2">  1       -2 0.90538353E-01 0.15845428E+04</pdfrwt>
<totfact> 0.22874343E+01</totfact>
</mgrwt>
</event>
<event>
 6    1  0.1780144E-005  0.1268679E+04  0.7818608E-02  0.9054778E-01
          1   -1    0    0  501    0  0.00000000000E+00  0.00000000000E+00  0.59459362432E+03  0.59459362432E+03  0.00000000000E+00 0. -1.
         -1   -1    0    0    0  501 -0.00000000000E+00 -0.00000000000E+00 -0.67674265298E+03  0.67674265298E+03  0.00000000000E+00 0.  1.
         23    2    1    2    0    0  0.25251224389E+03  0.10750140651E+03 -0.61069197202E+03  0.67578894191E+03  0.91798821360E+02 0.  0.
         11    1    3    3    0    0  0.21134128688E+03  0.49350866948E+02 -0.48413862349E+03  0.53055711697E+03  0.00000000000E+00 0.  1.
        -11    1    3    3    0    0  0.41170957012E+02  0.58150539564E+02 -0.12655334853E+03  0.14523182494E+03  0.00000000000E+00 0. -1.
         22    1    1    2    0    0 -0.25251224389E+03 -0.10750140651E+03  0.52854294336E+03  0.59554733539E+03  0.00000000000E+00 0. -1.
<mgrwt>
<rscale>  0 0.12686794E+04</rscale>
<asrwt>0</asrwt>
<pdfrwt beam="1">  1        1 0.91475943E-01 0.12686794E+04</pdfrwt>
<pdfrwt beam="2">  1       -1 0.10411425E+00 0.12686794E+04</pdfrwt>
<totfact> 0.29688452E+01</totfact>
</mgrwt>
</event>
<event>
 6    1  0.1780144E-005  0.9133692E+03  0.7818608E-02  0.9409022E-01
         -2   -1    0    0    0  501 -0.00000000000E+00  0.00000000000E+00  0.59941487855E+03  0.59941487855E+03  0.00000000000E+00 0.  1.
          2   -1    0    0  501    0  0.00000000000E+00 -0.00000000000E+00 -0.34794072211E+03  0.34794072211E+03  0.00000000000E+00 0. -1.
         23    2    1    2    0    0 -0.37252680903E+03 -0.95620866462E+02 -0.11921538675E+03  0.41319241308E+03  0.92715091745E+02 0.  0.
         11    1    3    3    0    0 -0.14547314000E+03  0.64081175764E+01 -0.29344365866E+02  0.14854154382E+03  0.00000000000E+00 0. -1.
        -11    1    3    3    0    0 -0.22705366903E+03 -0.10202898404E+03 -0.89871020881E+02  0.26465086926E+03  0.00000000000E+00 0.  1.
         22    1    1    2    0    0  0.37252680903E+03  0.95620866462E+02  0.37068954318E+03  0.53416318759E+03  0.00000000000E+00 0.  1.
<mgrwt>
<rscale>  0 0.91336925E+03</rscale>
<asrwt>0</asrwt>
<pdfrwt beam="1">  1        2 0.53529342E-01 0.91336925E+03</pdfrwt>
<pdfrwt beam="2">  1       -2 0.92217673E-01 0.91336925E+03</pdfrwt>
<totfact> 0.93201602E+01</totfact>
</mgrwt>
</event>
<event>
 6    1  0.1780144E-005  0.1318864E+04  0.7818608E-02  0.9014738E-01
          1   -1    0    0  501    0  0.00000000000E+00  0.00000000000E+00  0.16856523754E+04  0.16856523754E+04  0.00000000000E+00 0. -1.
         -1   -1    0    0    0  501 -0.00000000000E+00 -0.00000000000E+00 -0.25797151991E+03  0.25797151991E+03  0.00000000000E+00 0.  1.
         23    2    1    2    0    0 -0.65319929653E+03  0.24931345428E+01  0.62056001693E+03  0.90529852015E+03  0.88290085809E+02 0.  0.
         13    1    3    3    0    0 -0.45910158015E+03  0.16159779483E+02  0.48581752174E+03  0.66862101657E+03  0.00000000000E+00 0. -1.
        -13    1    3    3    0    0 -0.19409771638E+03 -0.13666644941E+02  0.13474249520E+03  0.23667750358E+03  0.00000000000E+00 0.  1.
         22    1    1    2    0    0  0.65319929653E+03 -0.24931345428E+01  0.80712083859E+03  0.10383253752E+04  0.00000000000E+00 0. -1.
<mgrwt>
<rscale>  0 0.13188636E+04</rscale>
<asrwt>0</asrwt>
<pdfrwt beam="1">  1        1 0.25933113E+00 0.13188636E+04</pdfrwt>
<pdfrwt beam="2">  1       -1 0.39687927E-01 0.13188636E+04</pdfrwt>
<totfact> 0.29557494E+01</totfact>
</mgrwt>
</event>
<event>
 6    1  0.1780144E-005  0.2069027E+04  0.7818608E-02  0.8575011E-01
         -1   -1    0    0    0  501 -0.00000000000E+00  0.00000000000E+00  0.76586010073E+03  0.76586010073E+03  0.00000000000E+00 0.  1.
          1   -1    0    0  501    0  0.00000000000E+00 -0.00000000000E+00 -0.13974068756E+04  0.13974068756E+04  0.00000000000E+00 0. -1.
         23    2    1    2    0    0 -0.68511386843E+03  0.31844883584E+03  0.41918529004E+03  0.86911530593E+03  0.94098001317E+02 0.  0.
         11    1    3    3    0    0 -0.64347036897E+03  0.27285659636E+03  0.37491316057E+03  0.79313600088E+03  0.00000000000E+00 0.  1.
        -11    1    3    3    0    0 -0.41643499458E+02  0.45592239485E+02  0.44272129472E+02  0.75979305053E+02  0.00000000000E+00 0. -1.
         22    1    1    2    0    0  0.68511386843E+03 -0.31844883584E+03 -0.10507320649E+04  0.12941516704E+04  0.00000000000E+00 0. -1.
<mgrwt>
<rscale>  0 0.20690270E+04</rscale>
<asrwt>0</asrwt>
<pdfrwt beam="1">  1        1 0.21498567E+00 0.20690270E+04</pdfrwt>
<pdfrwt beam="2">  1       -1 0.11782463E+00 0.20690270E+04</pdfrwt>
<totfact> 0.46058532E+00</totfact>
</mgrwt>
</event>
<event>
 6    1  0.1780144E-005  0.2103602E+04  0.7818608E-02  0.8559658E-01
          1   -1    0    0  501    0  0.00000000000E+00  0.00000000000E+00  0.32095269631E+04  0.32095269631E+04  0.00000000000E+00 0. -1.
         -1   -1    0    0    0  501 -0.00000000000E+00 -0.00000000000E+00 -0.34468792753E+03  0.34468792753E+03  0.00000000000E+00 0.  1.
         23    2    1    2    0    0 -0.69556292979E+03  0.70638028377E+03  0.85130711543E+03  0.13098682846E+04  0.90830741715E+02 0.  0.
         11    1    3    3    0    0 -0.46820873144E+03  0.42003625325E+03  0.56459641298E+03  0.84523309199E+03  0.00000000000E+00 0. -1.
        -11    1    3    3    0    0 -0.22735419835E+03  0.28634403051E+03  0.28671070245E+03  0.46463519262E+03  0.00000000000E+00 0.  1.
         22    1    1    2    0    0  0.69556292979E+03 -0.70638028377E+03  0.20135319202E+04  0.22443466061E+04  0.00000000000E+00 0.  1.
<mgrwt>
<rscale>  0 0.21036019E+04</rscale>
<asrwt>0</asrwt>
<pdfrwt beam="1">  1        1 0.49377336E+00 0.21036019E+04</pdfrwt>
<pdfrwt beam="2">  1       -1 0.53028914E-01 0.21036019E+04</pdfrwt>
<totfact> 0.13813761E+00</totfact>
</mgrwt>
</event>
<event>
 6    1  0.1780144E-005  0.1392933E+04  0.7818608E-02  0.8958950E-01
          1   -1    0    0  501    0  0.00000000000E+00  0.00000000000E+00  0.20429249067E+04  0.20429249067E+04  0.00000000000E+00 0. -1.
         -1   -1    0    0    0  501 -0.00000000000E+00 -0.00000000000E+00 -0.23743673828E+03  0.23743673828E+03  0.00000000000E+00 0.  1.
         23    2    1    2    0    0  0.13776506665E+03 -0.26686848162E+03  0.19298307169E+04  0.19553092346E+04  0.93752903441E+02 0.  0.
         13    1    3    3    0    0  0.69818641222E+02 -0.21988335226E+03  0.14958888558E+04  0.15135741806E+04  0.00000000000E+00 0. -1.
        -13    1    3    3    0    0  0.67946425430E+02 -0.46985129360E+02  0.43394186110E+03  0.44173505399E+03  0.00000000000E+00 0.  1.
         22    1    1    2    0    0 -0.13776506665E+03  0.26686848162E+03 -0.12434254855E+03  0.32505241032E+03  0.00000000000E+00 0.  1.
<mgrwt>
<rscale>  0 0.13929328E+04</rscale>
<asrwt>0</asrwt>
<pdfrwt beam="1">  1        1 0.31429613E+00 0.13929328E+04</pdfrwt>
<pdfrwt beam="2">  1       -1 0.36528730E-01 0.13929328E+04</pdfrwt>
<totfact> 0.19553827E+01</totfact>
</mgrwt>
</event>
<event>
 6    1  0.1780144E-005  0.9914570E+03  0.7818608E-02  0.9317965E-01
          1   -1    0    0  501    0  0.00000000000E+00  0.00000000000E+00  0.39175533753E+03  0.39175533753E+03  0.00000000000E+00 0. -1.
         -1   -1    0    0    0  501 -0.00000000000E+00 -0.00000000000E+00 -0.62729648546E+03  0.62729648546E+03  0.00000000000E+00 0.  1.
         23    2    1    2    0    0  0.11004305409E+03 -0.33434187334E+03 -0.47132806438E+03  0.59538989173E+03  0.91896772910E+02 0.  0.
         11    1    3    3    0    0  0.93729265075E+02 -0.32475171874E+03 -0.41085512292E+03  0.53202517420E+03  0.00000000000E+00 0. -1.
        -11    1    3    3    0    0  0.16313789016E+02 -0.95901545993E+01 -0.60472941467E+02  0.63364717525E+02  0.00000000000E+00 0.  1.
         22    1    1    2    0    0 -0.11004305409E+03  0.33434187334E+03  0.23578691646E+03  0.42366193126E+03  0.00000000000E+00 0. -1.
<mgrwt>
<rscale>  0 0.99145700E+03</rscale>
<asrwt>0</asrwt>
<pdfrwt beam="1">  1        1 0.60270052E-01 0.99145700E+03</pdfrwt>
<pdfrwt beam="2">  1       -1 0.96507151E-01 0.99145700E+03</pdfrwt>
<totfact> 0.63984264E+01</totfact>
</mgrwt>
</event>
<event>
 6    1  0.1780144E-005  0.1434848E+04  0.7818608E-02  0.8928973E-01
          1   -1    0    0  501    0  0.00000000000E+00  0.00000000000E+00  0.66751018426E+03  0.66751018426E+03  0.00000000000E+00 0. -1.
         -1   -1    0    0    0  501 -0.00000000000E+00 -0.00000000000E+00 -0.77106974414E+03  0.77106974414E+03  0.00000000000E+00 0.  1.
         23    2    1    2    0    0  0.50886204069E+03 -0.15102836677E+03  0.42758899263E+03  0.68766786374E+03  0.91129579091E+02 0.  0.
         11    1    3    3    0    0  0.34425641146E+03 -0.14409609600E+03  0.31163629331E+03  0.48620298335E+03  0.00000000000E+00 0. -1.
        -11    1    3    3    0    0  0.16460562922E+03 -0.69322707716E+01  0.11595269932E+03  0.20146488039E+03  0.00000000000E+00 0.  1.
         22    1    1    2    0    0 -0.50886204069E+03  0.15102836677E+03 -0.53114855251E+03  0.75091206466E+03  0.00000000000E+00 0.  1.
<mgrwt>
<rscale>  0 0.14348476E+04</rscale>
<asrwt>0</asrwt>
<pdfrwt beam="1">  1        1 0.10269388E+00 0.14348476E+04</pdfrwt>
<pdfrwt beam="2">  1       -1 0.11862611E+00 0.14348476E+04</pdfrwt>
<totfact> 0.18132079E+01</totfact>
</mgrwt>
</event>
<event>
 6    1  0.1780144E-005  0.1752273E+04  0.7818608E-02  0.8732100E-01
          2   -1    0    0  501    0  0.00000000000E+00  0.00000000000E+00  0.76439829876E+03  0.76439829876E+03  0.00000000000E+00 0.  1.
         -2   -1    0    0    0  501 -0.00000000000E+00 -0.00000000000E+00 -0.10042079339E+04  0.10042079339E+04  0.00000000000E+00 0. -1.
         23    2    1    2    0    0  0.61627118385E+03 -0.61849499367E+03 -0.15394033440E+03  0.89128088477E+03  0.91420784023E+02 0.  0.
         13    1    3    3    0    0  0.53009785678E+03 -0.53820567141E+03 -0.16416222234E+03  0.77305777128E+03  0.00000000000E+00 0. -1.
        -13    1    3    3    0    0  0.86173327076E+02 -0.80289322267E+02  0.10221887943E+02  0.11822311349E+03  0.00000000000E+00 0.  1.
         22    1    1    2    0    0 -0.61627118385E+03  0.61849499367E+03 -0.85869300736E+02  0.87732534789E+03  0.00000000000E+00 0.  1.
<mgrwt>
<rscale>  0 0.17522726E+04</rscale>
<asrwt>0</asrwt>
<pdfrwt beam="1">  1        2 0.11759974E+00 0.17522726E+04</pdfrwt>
<pdfrwt beam="2">  1       -2 0.15449353E+00 0.17522726E+04</pdfrwt>
<totfact> 0.95959180E+00</totfact>
</mgrwt>
</event>
<event>
 6    1  0.1780144E-005  0.4967177E+04  0.7818608E-02  0.7833590E-01
         -1   -1    0    0    0  501 -0.00000000000E+00  0.00000000000E+00  0.23664111933E+04  0.23664111933E+04  0.00000000000E+00 0.  1.
          1   -1    0    0  501    0  0.00000000000E+00 -0.00000000000E+00 -0.26065684752E+04  0.26065684752E+04  0.00000000000E+00 0. -1.
         23    2    1    2    0    0 -0.10022466052E+03  0.23891943858E+04  0.54959948298E+03  0.24546447933E+04  0.70190271192E+02 0.  0.
         13    1    3    3    0    0 -0.10437275048E+03  0.17681692952E+04  0.40073609679E+03  0.18160136968E+04  0.00000000000E+00 0. -1.
        -13    1    3    3    0    0  0.41480899578E+01  0.62102509058E+03  0.14886338619E+03  0.63863109658E+03  0.00000000000E+00 0.  1.
         22    1    1    2    0    0  0.10022466052E+03 -0.23891943858E+04 -0.78975676494E+03  0.25183348751E+04  0.00000000000E+00 0.  1.
<mgrwt>
<rscale>  0 0.49671774E+04</rscale>
<asrwt>0</asrwt>
<pdfrwt beam="1">  1        1 0.40101053E+00 0.49671774E+04</pdfrwt>
<pdfrwt beam="2">  1       -1 0.36406326E+00 0.49671774E+04</pdfrwt>
<totfact> 0.10350336E-02</totfact>
</mgrwt>
</event>
<event>
 6    1  0.1780144E-005  0.1009054E+04  0.7818608E-02  0.9298669E-01
         -2   -1    0    0    0  501 -0.00000000000E+00  0.00000000000E+00  0.13256550660E+03  0.13256550660E+03  0.00000000000E+00 0.  1.
          2   -1    0    0  501    0  0.00000000000E+00 -0.00000000000E+00 -0.19201655557E+04  0.19201655557E+04  0.00000000000E+00 0. -1.
         23    2    1    2    0    0 -0.83681612024E+01 -0.12998508921E+03 -0.18838742393E+04  0.18907592462E+04  0.94985410489E+02 0.  0.
         13    1    3    3    0    0 -0.36302060937E+01 -0.92700542287E+02 -0.68008246612E+03  0.68638089256E+03  0.00000000000E+00 0. -1.
        -13    1    3    3    0    0 -0.47379551087E+01 -0.37284546928E+02 -0.12037917731E+04  0.12043783536E+04  0.00000000000E+00 0.  1.
         22    1    1    2    0    0  0.83681612024E+01  0.12998508921E+03  0.96274190126E+02  0.16197181614E+03  0.00000000000E+00 0.  1.
<mgrwt>
<rscale>  0 0.10090544E+04</rscale>
<asrwt>0</asrwt>
<pdfrwt beam="1">  1        2 0.29541006E+00 0.10090544E+04</pdfrwt>
<pdfrwt beam="2">  1       -2 0.20394695E-01 0.10090544E+04</pdfrwt>
<totfact> 0.15289400E+02</totfact>
</mgrwt>
</event>
<event>
 6    1  0.1780144E-005  0.2733150E+04  0.7818608E-02  0.8324328E-01
          2   -1    0    0  501    0  0.00000000000E+00  0.00000000000E+00  0.22334708358E+04  0.22334708358E+04  0.00000000000E+00 0. -1.
         -2   -1    0    0    0  501 -0.00000000000E+00 -0.00000000000E+00 -0.83615490809E+03  0.83615490809E+03  0.00000000000E+00 0.  1.
         23    2    1    2    0    0  0.26020764287E+02 -0.72760444596E+03 -0.59734061648E+03  0.94624635262E+03  0.92092550106E+02 0.  0.
         11    1    3    3    0    0  0.17423130510E+02 -0.25857528984E+02 -0.35541659671E+02  0.47279877899E+02  0.00000000000E+00 0. -1.
        -11    1    3    3    0    0  0.85976337772E+01 -0.70174691698E+03 -0.56179895681E+03  0.89896647472E+03  0.00000000000E+00 0.  1.
         22    1    1    2    0    0 -0.26020764287E+02  0.72760444596E+03  0.19946565442E+04  0.21233793912E+04  0.00000000000E+00 0. -1.
<mgrwt>
<rscale>  0 0.27331503E+04</rscale>
<asrwt>0</asrwt>
<pdfrwt beam="1">  1        2 0.34361090E+00 0.27331503E+04</pdfrwt>
<pdfrwt beam="2">  1       -2 0.12863922E+00 0.27331503E+04</pdfrwt>
<totfact> 0.19292846E+00</totfact>
</mgrwt>
</event>
<event>
 6    1  0.1780144E-005  0.1996442E+04  0.7818608E-02  0.8608286E-01
         -2   -1    0    0    0  501 -0.00000000000E+00  0.00000000000E+00  0.36446211446E+03  0.36446211446E+03  0.00000000000E+00 0.  1.
          2   -1    0    0  501    0  0.00000000000E+00 -0.00000000000E+00 -0.27340166648E+04  0.27340166648E+04  0.00000000000E+00 0. -1.
         23    2    1    2    0    0  0.79913334972E+03  0.71052138173E+02 -0.21033090654E+04  0.22531686733E+04  0.95903746537E+02 0.  0.
         11    1    3    3    0    0  0.43292764922E+03 -0.62905755363E+01 -0.10798878958E+04  0.11634533890E+04  0.00000000000E+00 0. -1.
        -11    1    3    3    0    0  0.36620570050E+03  0.77342713710E+02 -0.10234211697E+04  0.10897152843E+04  0.00000000000E+00 0.  1.
         22    1    1    2    0    0 -0.79913334972E+03 -0.71052138173E+02 -0.26624548488E+03  0.84531010593E+03  0.00000000000E+00 0.  1.
<mgrwt>
<rscale>  0 0.19964423E+04</rscale>
<asrwt>0</asrwt>
<pdfrwt beam="1">  1        2 0.42061795E+00 0.19964423E+04</pdfrwt>
<pdfrwt beam="2">  1       -2 0.56071094E-01 0.19964423E+04</pdfrwt>
<totfact> 0.70418092E+00</totfact>
</mgrwt>
</event>
<event>
 6    1  0.1780144E-005  0.1586169E+04  0.7818608E-02  0.8829090E-01
         -2   -1    0    0    0  501 -0.00000000000E+00  0.00000000000E+00  0.23243777570E+03  0.23243777570E+03  0.00000000000E+00 0.  1.
          2   -1    0    0  501    0  0.00000000000E+00 -0.00000000000E+00 -0.27060265165E+04  0.27060265165E+04  0.00000000000E+00 0. -1.
         23    2    1    2    0    0 -0.83482955316E+00  0.11459525656E+03 -0.26898025027E+04  0.26937580180E+04  0.90343713569E+02 0.  0.
         11    1    3    3    0    0  0.42863180226E+02  0.41638772004E+02 -0.94914079426E+03  0.95102012959E+03  0.00000000000E+00 0. -1.
        -11    1    3    3    0    0 -0.43698009779E+02  0.72956484560E+02 -0.17406617084E+04  0.17427378884E+04  0.00000000000E+00 0.  1.
         22    1    1    2    0    0  0.83482955316E+00 -0.11459525656E+03  0.21621376190E+03  0.24470627414E+03  0.00000000000E+00 0.  1.
<mgrwt>
<rscale>  0 0.15861687E+04</rscale>
<asrwt>0</asrwt>
<pdfrwt beam="1">  1        2 0.41631178E+00 0.15861687E+04</pdfrwt>
<pdfrwt beam="2">  1       -2 0.35759657E-01 0.15861687E+04</pdfrwt>
<totfact> 0.18652702E+01</totfact>
</mgrwt>
</event>
<event>
 6    1  0.1780144E-005  0.1577786E+04  0.7818608E-02  0.8834313E-01
          1   -1    0    0  501    0  0.00000000000E+00  0.00000000000E+00  0.12420764188E+04  0.12420764188E+04  0.00000000000E+00 0. -1.
         -1   -1    0    0    0  501 -0.00000000000E+00 -0.00000000000E+00 -0.50105760494E+03  0.50105760494E+03  0.00000000000E+00 0.  1.
         23    2    1    2    0    0 -0.94010602406E+02  0.48394746354E+03 -0.30485858966E+03  0.58688894419E+03  0.91960493113E+02 0.  0.
         11    1    3    3    0    0 -0.16099305558E+02  0.31497841616E+03 -0.19538685284E+03  0.37100756400E+03  0.00000000000E+00 0.  1.
        -11    1    3    3    0    0 -0.77911296848E+02  0.16896904738E+03 -0.10947173682E+03  0.21588138019E+03  0.00000000000E+00 0. -1.
         22    1    1    2    0    0  0.94010602406E+02 -0.48394746354E+03  0.10458774035E+04  0.11562450796E+04  0.00000000000E+00 0. -1.
<mgrwt>
<rscale>  0 0.15777856E+04</rscale>
<asrwt>0</asrwt>
<pdfrwt beam="1">  1        1 0.19108868E+00 0.15777856E+04</pdfrwt>
<pdfrwt beam="2">  1       -1 0.77085786E-01 0.15777856E+04</pdfrwt>
<totfact> 0.16155328E+01</totfact>
</mgrwt>
</event>
<event>
 6    1  0.1780144E-005  0.4386192E+04  0.7818608E-02  0.7930870E-01
          2   -1    0    0  501    0  0.00000000000E+00  0.00000000000E+00  0.28927180062E+04  0.28927180062E+04  0.00000000000E+00 0. -1.
         -2   -1    0    0    0  501 -0.00000000000E+00 -0.00000000000E+00 -0.16626821760E+04  0.16626821760E+04  0.00000000000E+00 0.  1.
         23    2    1    2    0    0  0.20159109554E+04 -0.84206368752E+03  0.80238596799E+03  0.23292257420E+04  0.92201309557E+02 0.  0.
         13    1    3    3    0    0  0.13854927868E+04 -0.60645267372E+03  0.51887032587E+03  0.15989376232E+04  0.00000000000E+00 0. -1.
        -13    1    3    3    0    0  0.63041816860E+03 -0.23561101379E+03  0.28351564212E+03  0.73028811879E+03  0.00000000000E+00 0.  1.
         22    1    1    2    0    0 -0.20159109554E+04  0.84206368752E+03  0.42764986225E+03  0.22261744403E+04  0.00000000000E+00 0.  1.
<mgrwt>
<rscale>  0 0.43861923E+04</rscale>
<asrwt>0</asrwt>
<pdfrwt beam="1">  1        2 0.44503354E+00 0.43861923E+04</pdfrwt>
<pdfrwt beam="2">  1       -2 0.25579726E+00 0.43861923E+04</pdfrwt>
<totfact> 0.91862731E-02</totfact>
</mgrwt>
</event>
<event>
 6    1  0.1780144E-005  0.1425727E+04  0.7818608E-02  0.8935403E-01
          1   -1    0    0  501    0  0.00000000000E+00  0.00000000000E+00  0.24400304330E+04  0.24400304330E+04  0.00000000000E+00 0.  1.
         -1   -1    0    0    0  501 -0.00000000000E+00 -0.00000000000E+00 -0.20826571721E+03  0.20826571721E+03  0.00000000000E+00 0. -1.
         23    2    1    2    0    0 -0.69707741497E+02 -0.48770166702E+03  0.17091187858E+03  0.52937507997E+03  0.91186730481E+02 0.  0.
         11    1    3    3    0    0  0.15192441905E+02 -0.12291714229E+03  0.19431469366E+02  0.12536752435E+03  0.00000000000E+00 0.  1.
        -11    1    3    3    0    0 -0.84900183401E+02 -0.36478452474E+03  0.15148040921E+03  0.40400755563E+03  0.00000000000E+00 0. -1.
         22    1    1    2    0    0  0.69707741497E+02  0.48770166702E+03  0.20608528372E+04  0.21189210702E+04  0.00000000000E+00 0.  1.
<mgrwt>
<rscale>  0 0.14257274E+04</rscale>
<asrwt>0</asrwt>
<pdfrwt beam="1">  1        1 0.37538928E+00 0.14257274E+04</pdfrwt>
<pdfrwt beam="2">  1       -1 0.32040881E-01 0.14257274E+04</pdfrwt>
<totfact> 0.13216502E+01</totfact>
</mgrwt>
</event>
<event>
 6    1  0.1780144E-005  0.1184180E+04  0.7818608E-02  0.9126818E-01
         -2   -1    0    0    0  501 -0.00000000000E+00  0.00000000000E+00  0.47951555001E+03  0.47951555001E+03  0.00000000000E+00 0.  1.
          2   -1    0    0  501    0  0.00000000000E+00 -0.00000000000E+00 -0.73109292248E+03  0.73109292248E+03  0.00000000000E+00 0. -1.
         23    2    1    2    0    0  0.44824453600E+03  0.36627514080E+03 -0.18232356428E+02  0.58648465518E+03  0.92472639779E+02 0.  0.
         13    1    3    3    0    0  0.17092616178E+03  0.87877702653E+02 -0.22535550385E+02  0.19350993369E+03  0.00000000000E+00 0. -1.
        -13    1    3    3    0    0  0.27731837423E+03  0.27839743815E+03  0.43031939568E+01  0.39297472149E+03  0.00000000000E+00 0.  1.
         22    1    1    2    0    0 -0.44824453600E+03 -0.36627514080E+03 -0.23334501604E+03  0.62412381731E+03  0.00000000000E+00 0. -1.
<mgrwt>
<rscale>  0 0.11841798E+04</rscale>
<asrwt>0</asrwt>
<pdfrwt beam="1">  1        2 0.11247583E+00 0.11841798E+04</pdfrwt>
<pdfrwt beam="2">  1       -2 0.73771623E-01 0.11841798E+04</pdfrwt>
<totfact> 0.63443637E+01</totfact>
</mgrwt>
</event>
<event>
 6    1  0.1780144E-005  0.3745237E+04  0.7818608E-02  0.8058010E-01
         -1   -1    0    0    0  501 -0.00000000000E+00  0.00000000000E+00  0.86883345834E+03  0.86883345834E+03  0.00000000000E+00 0.  1.
          1   -1    0    0  501    0  0.00000000000E+00 -0.00000000000E+00 -0.40361025088E+04  0.40361025088E+04  0.00000000000E+00 0. -1.
         23    2    1    2    0    0 -0.57811997010E+03  0.16657160061E+04 -0.24063986254E+04  0.29845827923E+04  0.90263982855E+02 0.  0.
         11    1    3    3    0    0 -0.13696173695E+03  0.51513254555E+03 -0.70565508134E+03  0.88434673669E+03  0.00000000000E+00 0.  1.
        -11    1    3    3    0    0 -0.44115823316E+03  0.11505834605E+04 -0.17007435441E+04  0.21002360556E+04  0.00000000000E+00 0. -1.
         22    1    1    2    0    0  0.57811997010E+03 -0.16657160061E+04 -0.76087042506E+03  0.19203531749E+04  0.00000000000E+00 0.  1.
<mgrwt>
<rscale>  0 0.37452375E+04</rscale>
<asrwt>0</asrwt>
<pdfrwt beam="1">  1        1 0.62093883E+00 0.37452375E+04</pdfrwt>
<pdfrwt beam="2">  1       -1 0.13366669E+00 0.37452375E+04</pdfrwt>
<totfact> 0.33564427E-02</totfact>
</mgrwt>
</event>
<event>
 6    1  0.1780144E-005  0.5497992E+04  0.7818608E-02  0.7755966E-01
          1   -1    0    0  501    0  0.00000000000E+00  0.00000000000E+00  0.28363727359E+04  0.28363727359E+04  0.00000000000E+00 0. -1.
         -1   -1    0    0    0  501 -0.00000000000E+00 -0.00000000000E+00 -0.26643104994E+04  0.26643104994E+04  0.00000000000E+00 0.  1.
         23    2    1    2    0    0 -0.87720476843E+03 -0.13095195712E+04 -0.21663985916E+04  0.26806249456E+04  0.90208248709E+02 0.  0.
         13    1    3    3    0    0 -0.66174059280E+03 -0.10228461052E+04 -0.17273538943E+04  0.21137327748E+04  0.00000000000E+00 0. -1.
        -13    1    3    3    0    0 -0.21546417563E+03 -0.28667346597E+03 -0.43904469733E+03  0.56689217081E+03  0.00000000000E+00 0.  1.
         22    1    1    2    0    0  0.87720476843E+03  0.13095195712E+04  0.23384608281E+04  0.28200582898E+04  0.00000000000E+00 0. -1.
<mgrwt>
<rscale>  0 0.54979915E+04</rscale>
<asrwt>0</asrwt>
<pdfrwt beam="1">  1        1 0.43636504E+00 0.54979915E+04</pdfrwt>
<pdfrwt beam="2">  1       -1 0.40989392E+00 0.54979915E+04</pdfrwt>
<totfact> 0.33385345E-03</totfact>
</mgrwt>
</event>
<event>
 6    1  0.1780144E-005  0.1513251E+04  0.7818608E-02  0.8875689E-01
         -2   -1    0    0    0  501 -0.00000000000E+00  0.00000000000E+00  0.42183753418E+03  0.42183753418E+03  0.00000000000E+00 0. -1.
          2   -1    0    0  501    0  0.00000000000E+00 -0.00000000000E+00 -0.13571156726E+04  0.13571156726E+04  0.00000000000E+00 0.  1.
         23    2    1    2    0    0 -0.25873535987E+02  0.64065463564E+03 -0.93554937174E+03  0.11377762612E+04  0.90412341250E+02 0.  0.
         13    1    3    3    0    0 -0.36916755721E+01  0.60477234110E+03 -0.88547601951E+03  0.10723017272E+04  0.00000000000E+00 0. -1.
        -13    1    3    3    0    0 -0.22181860415E+02  0.35882294548E+02 -0.50073352227E+02  0.65474533956E+02  0.00000000000E+00 0.  1.
         22    1    1    2    0    0  0.25873535987E+02 -0.64065463564E+03  0.27123331022E+00  0.64117694563E+03  0.00000000000E+00 0. -1.
<mgrwt>
<rscale>  0 0.15132512E+04</rscale>
<asrwt>0</asrwt>
<pdfrwt beam="1">  1        2 0.20878703E+00 0.15132512E+04</pdfrwt>
<pdfrwt beam="2">  1       -2 0.64898082E-01 0.15132512E+04</pdfrwt>
<totfact> 0.32382858E+01</totfact>
</mgrwt>
</event>
<event>
 6    1  0.1780144E-005  0.3303418E+04  0.7818608E-02  0.8162026E-01
         -1   -1    0    0    0  501 -0.00000000000E+00  0.00000000000E+00  0.23568893495E+04  0.23568893495E+04  0.00000000000E+00 0.  1.
          1   -1    0    0  501    0  0.00000000000E+00 -0.00000000000E+00 -0.11575181416E+04  0.11575181416E+04  0.00000000000E+00 0. -1.
         23    2    1    2    0    0 -0.15461917655E+04 -0.52034504596E+03  0.33450898742E+03  0.16679366402E+04  0.92996937448E+02 0.  0.
         13    1    3    3    0    0 -0.75125966089E+03 -0.30138572318E+03  0.15897254305E+03  0.82492223977E+03  0.00000000000E+00 0.  1.
        -13    1    3    3    0    0 -0.79493210463E+03 -0.21895932278E+03  0.17553644437E+03  0.84301440042E+03  0.00000000000E+00 0. -1.
         22    1    1    2    0    0  0.15461917655E+04  0.52034504596E+03  0.86486222050E+03  0.18464708509E+04  0.00000000000E+00 0.  1.
<mgrwt>
<rscale>  0 0.33034177E+04</rscale>
<asrwt>0</asrwt>
<pdfrwt beam="1">  1        1 0.17807972E+00 0.33034177E+04</pdfrwt>
<pdfrwt beam="2">  1       -1 0.36259836E+00 0.33034177E+04</pdfrwt>
<totfact> 0.12192999E-01</totfact>
</mgrwt>
</event>
<event>
 6    1  0.1780144E-005  0.2755493E+04  0.7818608E-02  0.8317221E-01
         -1   -1    0    0    0  501 -0.00000000000E+00  0.00000000000E+00  0.80638319996E+03  0.80638319996E+03  0.00000000000E+00 0.  1.
          1   -1    0    0  501    0  0.00000000000E+00 -0.00000000000E+00 -0.23539495280E+04  0.23539495280E+04  0.00000000000E+00 0. -1.
         23    2    1    2    0    0  0.10530949206E+04 -0.88541459685E+03 -0.82109467854E+03  0.16044635247E+04  0.84491483980E+02 0.  0.
         11    1    3    3    0    0  0.87055388333E+03 -0.70521848260E+03 -0.69754053986E+03  0.13197575447E+04  0.00000000000E+00 0. -1.
        -11    1    3    3    0    0  0.18254103729E+03 -0.18019611425E+03 -0.12355413869E+03  0.28470598004E+03  0.00000000000E+00 0.  1.
         22    1    1    2    0    0 -0.10530949206E+04  0.88541459685E+03 -0.72647164953E+03  0.15558692033E+04  0.00000000000E+00 0. -1.
<mgrwt>
<rscale>  0 0.27554930E+04</rscale>
<asrwt>0</asrwt>
<pdfrwt beam="1">  1        1 0.36214608E+00 0.27554930E+04</pdfrwt>
<pdfrwt beam="2">  1       -1 0.12405896E+00 0.27554930E+04</pdfrwt>
<totfact> 0.84663327E-01</totfact>
</mgrwt>
</event>
<event>
 6    1  0.1780144E-005  0.3695006E+04  0.7818608E-02  0.8069069E-01
         -1   -1    0    0    0  501 -0.00000000000E+00  0.00000000000E+00  0.22257525854E+04  0.22257525854E+04  0.00000000000E+00 0.  1.
          1   -1    0    0  501    0  0.00000000000E+00 -0.00000000000E+00 -0.15335342654E+04  0.15335342654E+04  0.00000000000E+00 0. -1.
         23    2    1    2    0    0 -0.14211416798E+04  0.11460644113E+04  0.66157071888E+02  0.18292454017E+04  0.93030493246E+02 0.  0.
         13    1    3    3    0    0 -0.76444146887E+03  0.57025055810E+03  0.51051074541E+01  0.95372035758E+03  0.00000000000E+00 0. -1.
        -13    1    3    3    0    0 -0.65670021096E+03  0.57581385318E+03  0.61051964434E+02  0.87552504416E+03  0.00000000000E+00 0.  1.
         22    1    1    2    0    0  0.14211416798E+04 -0.11460644113E+04  0.62606124808E+03  0.19300414491E+04  0.00000000000E+00 0. -1.
<mgrwt>
<rscale>  0 0.36950063E+04</rscale>
<asrwt>0</asrwt>
<pdfrwt beam="1">  1        1 0.23592835E+00 0.36950063E+04</pdfrwt>
<pdfrwt beam="2">  1       -1 0.34242347E+00 0.36950063E+04</pdfrwt>
<totfact> 0.86768136E-02</totfact>
</mgrwt>
</event>
<event>
 6    1  0.1780144E-005  0.2067278E+04  0.7818608E-02  0.8575796E-01
         -2   -1    0    0    0  501 -0.00000000000E+00  0.00000000000E+00  0.83598951571E+03  0.83598951571E+03  0.00000000000E+00 0.  1.
          2   -1    0    0  501    0  0.00000000000E+00 -0.00000000000E+00 -0.12780185314E+04  0.12780185314E+04  0.00000000000E+00 0. -1.
         23    2    1    2    0    0  0.69939600639E+03  0.69633207900E+03  0.85277318256E+02  0.99504195832E+03  0.93825048941E+02 0.  0.
         13    1    3    3    0    0  0.23271234120E+03  0.23762692610E+03  0.73196806918E+02  0.34055742878E+03  0.00000000000E+00 0.  1.
        -13    1    3    3    0    0  0.46668366519E+03  0.45870515290E+03  0.12080511339E+02  0.65448452954E+03  0.00000000000E+00 0. -1.
         22    1    1    2    0    0 -0.69939600639E+03 -0.69633207900E+03 -0.52730633391E+03  0.11189660888E+04  0.00000000000E+00 0.  1.
<mgrwt>
<rscale>  0 0.20672785E+04</rscale>
<asrwt>0</asrwt>
<pdfrwt beam="1">  1        2 0.19661823E+00 0.20672785E+04</pdfrwt>
<pdfrwt beam="2">  1       -2 0.12861377E+00 0.20672785E+04</pdfrwt>
<totfact> 0.70226658E+00</totfact>
</mgrwt>
</event>
<event>
 6    1  0.1780144E-005  0.1630885E+04  0.7818608E-02  0.8801796E-01
          2   -1    0    0  501    0  0.00000000000E+00  0.00000000000E+00  0.94049934635E+03  0.94049934635E+03  0.00000000000E+00 0.  1.
         -2   -1    0    0    0  501 -0.00000000000E+00 -0.00000000000E+00 -0.70701435730E+03  0.70701435730E+03  0.00000000000E+00 0. -1.
         23    2    1    2    0    0  0.19693362172E+03 -0.15388678518E+03  0.89850971143E+03  0.93707589820E+03  0.91255374873E+02 0.  0.
         13    1    3    3    0    0  0.94266455659E+02 -0.81271340205E+02  0.60651217130E+03  0.61915120071E+03  0.00000000000E+00 0. -1.
        -13    1    3    3    0    0  0.10266716607E+03 -0.72615444979E+02  0.29199754012E+03  0.31792469749E+03  0.00000000000E+00 0.  1.
         22    1    1    2    0    0 -0.19693362172E+03  0.15388678518E+03 -0.66502472238E+03  0.71043780544E+03  0.00000000000E+00 0. -1.
<mgrwt>
<rscale>  0 0.16308851E+04</rscale>
<asrwt>0</asrwt>
<pdfrwt beam="1">  1        2 0.14469221E+00 0.16308851E+04</pdfrwt>
<pdfrwt beam="2">  1       -2 0.10877144E+00 0.16308851E+04</pdfrwt>
<totfact> 0.17793224E+01</totfact>
</mgrwt>
</event>
<event>
 6    1  0.1780144E-005  0.2373928E+04  0.7818608E-02  0.8449329E-01
         -2   -1    0    0    0  501 -0.00000000000E+00  0.00000000000E+00  0.61703548966E+03  0.61703548966E+03  0.00000000000E+00 0. -1.
          2   -1    0    0  501    0  0.00000000000E+00 -0.00000000000E+00 -0.22833112846E+04  0.22833112846E+04  0.00000000000E+00 0.  1.
         23    2    1    2    0    0  0.11521731919E+04 -0.26220305223E+03 -0.72337188642E+03  0.13886188604E+04  0.93498387896E+02 0.  0.
         11    1    3    3    0    0  0.44874657521E+03 -0.55575910574E+02 -0.27761722696E+03  0.53059730050E+03  0.00000000000E+00 0. -1.
        -11    1    3    3    0    0  0.70342661673E+03 -0.20662714166E+03 -0.44575465947E+03  0.85802155988E+03  0.00000000000E+00 0.  1.
         22    1    1    2    0    0 -0.11521731919E+04  0.26220305223E+03 -0.94290390848E+03  0.15117279138E+04  0.00000000000E+00 0. -1.
<mgrwt>
<rscale>  0 0.23739285E+04</rscale>
<asrwt>0</asrwt>
<pdfrwt beam="1">  1        2 0.35127866E+00 0.23739285E+04</pdfrwt>
<pdfrwt beam="2">  1       -2 0.94928538E-01 0.23739285E+04</pdfrwt>
<totfact> 0.38979176E+00</totfact>
</mgrwt>
</event>
<event>
 6    1  0.1780144E-005  0.2346354E+04  0.7818608E-02  0.8459866E-01
          1   -1    0    0  501    0  0.00000000000E+00  0.00000000000E+00  0.63789943004E+03  0.63789943004E+03  0.00000000000E+00 0. -1.
         -1   -1    0    0    0  501 -0.00000000000E+00 -0.00000000000E+00 -0.21576188669E+04  0.21576188669E+04  0.00000000000E+00 0.  1.
         23    2    1    2    0    0 -0.97518694716E+03 -0.52670681821E+03 -0.30926036457E+03  0.11542928950E+04  0.91326119607E+02 0.  0.
         11    1    3    3    0    0 -0.84327263997E+03 -0.43917386359E+03 -0.23480642509E+03  0.97934492649E+03  0.00000000000E+00 0.  1.
        -11    1    3    3    0    0 -0.13191430720E+03 -0.87532954620E+02 -0.74453939472E+02  0.17494796852E+03  0.00000000000E+00 0. -1.
         22    1    1    2    0    0  0.97518694716E+03  0.52670681821E+03 -0.12104590723E+04  0.16412254020E+04  0.00000000000E+00 0.  1.
<mgrwt>
<rscale>  0 0.23463536E+04</rscale>
<asrwt>0</asrwt>
<pdfrwt beam="1">  1        1 0.98138373E-01 0.23463536E+04</pdfrwt>
<pdfrwt beam="2">  1       -1 0.33194137E+00 0.23463536E+04</pdfrwt>
<totfact> 0.57660798E-01</totfact>
</mgrwt>
</event>
<event>
 6    1  0.1780144E-005  0.2884455E+04  0.7818608E-02  0.8277518E-01
          1   -1    0    0  501    0  0.00000000000E+00  0.00000000000E+00  0.14189088402E+04  0.14189088402E+04  0.00000000000E+00 0. -1.
         -1   -1    0    0    0  501 -0.00000000000E+00 -0.00000000000E+00 -0.14659295929E+04  0.14659295929E+04  0.00000000000E+00 0.  1.
         23    2    1    2    0    0 -0.12149018625E+04  0.77420498981E+03 -0.15386459267E+02  0.14438732600E+04  0.95673121279E+02 0.  0.
         11    1    3    3    0    0 -0.47559927415E+03  0.24826951524E+03 -0.51973374647E+01  0.53652533406E+03  0.00000000000E+00 0. -1.
        -11    1    3    3    0    0 -0.73930258831E+03  0.52593547457E+03 -0.10189121802E+02  0.90734792594E+03  0.00000000000E+00 0.  1.
         22    1    1    2    0    0  0.12149018625E+04 -0.77420498981E+03 -0.31634293446E+02  0.14409651731E+04  0.00000000000E+00 0.  1.
<mgrwt>
<rscale>  0 0.28844552E+04</rscale>
<asrwt>0</asrwt>
<pdfrwt beam="1">  1        1 0.21829367E+00 0.28844552E+04</pdfrwt>
<pdfrwt beam="2">  1       -1 0.22552763E+00 0.28844552E+04</pdfrwt>
<totfact> 0.64738075E-01</totfact>
</mgrwt>
</event>
<event>
 6    1  0.1780144E-005  0.1549926E+04  0.7818608E-02  0.8851915E-01
         -2   -1    0    0    0  501 -0.00000000000E+00  0.00000000000E+00  0.60222319866E+03  0.60222319866E+03  0.00000000000E+00 0.  1.
          2   -1    0    0  501    0  0.00000000000E+00 -0.00000000000E+00 -0.99725140948E+03  0.99725140948E+03  0.00000000000E+00 0. -1.
         23    2    1    2    0    0  0.25348021337E+03  0.52009831897E+03 -0.72584247919E+03  0.93299688149E+03  0.94241160326E+02 0.  0.
         13    1    3    3    0    0  0.22569847250E+02  0.10006235655E+02 -0.46474903522E+02  0.52625463554E+02  0.00000000000E+00 0. -1.
        -13    1    3    3    0    0  0.23091036612E+03  0.51009208331E+03 -0.67936757567E+03  0.88037141793E+03  0.00000000000E+00 0.  1.
         22    1    1    2    0    0 -0.25348021337E+03 -0.52009831897E+03  0.33081426837E+03  0.66647772665E+03  0.00000000000E+00 0.  1.
<mgrwt>
<rscale>  0 0.15499264E+04</rscale>
<asrwt>0</asrwt>
<pdfrwt beam="1">  1        2 0.15342329E+00 0.15499264E+04</pdfrwt>
<pdfrwt beam="2">  1       -2 0.92649724E-01 0.15499264E+04</pdfrwt>
<totfact> 0.24060265E+01</totfact>
</mgrwt>
</event>
<event>
 6    1  0.1780144E-005  0.1814257E+04  0.7818608E-02  0.8698754E-01
          2   -1    0    0  501    0  0.00000000000E+00  0.00000000000E+00  0.14101567930E+04  0.14101567930E+04  0.00000000000E+00 0. -1.
         -2   -1    0    0    0  501 -0.00000000000E+00 -0.00000000000E+00 -0.58353954488E+03  0.58353954488E+03  0.00000000000E+00 0.  1.
         23    2    1    2    0    0 -0.62618596030E+03 -0.58889049732E+03  0.72504425162E+03  0.11281225696E+04  0.89835908503E+02 0.  0.
         13    1    3    3    0    0 -0.43742705128E+03 -0.37285686649E+03  0.52430119204E+03  0.77798226718E+03  0.00000000000E+00 0. -1.
        -13    1    3    3    0    0 -0.18875890902E+03 -0.21603363084E+03  0.20074305958E+03  0.35014030239E+03  0.00000000000E+00 0.  1.
         22    1    1    2    0    0  0.62618596030E+03  0.58889049732E+03  0.10157299646E+03  0.86557376827E+03  0.00000000000E+00 0.  1.
<mgrwt>
<rscale>  0 0.18142572E+04</rscale>
<asrwt>0</asrwt>
<pdfrwt beam="1">  1        2 0.21694720E+00 0.18142572E+04</pdfrwt>
<pdfrwt beam="2">  1       -2 0.89775315E-01 0.18142572E+04</pdfrwt>
<totfact> 0.14312649E+01</totfact>
</mgrwt>
</event>
<event>
 6    1  0.1780144E-005  0.2809571E+04  0.7818608E-02  0.8300303E-01
         -1   -1    0    0    0  501 -0.00000000000E+00  0.00000000000E+00  0.16457167614E+04  0.16457167614E+04  0.00000000000E+00 0.  1.
          1   -1    0    0  501    0  0.00000000000E+00 -0.00000000000E+00 -0.11991264959E+04  0.11991264959E+04  0.00000000000E+00 0. -1.
         23    2    1    2    0    0 -0.97873758816E+03  0.85559431488E+03 -0.31145151199E+03  0.13399857110E+04  0.92686370324E+02 0.  0.
         13    1    3    3    0    0 -0.36621839353E+03  0.32712172347E+03 -0.16372181497E+03  0.51761893940E+03  0.00000000000E+00 0. -1.
        -13    1    3    3    0    0 -0.61251919463E+03  0.52847259142E+03 -0.14772969702E+03  0.82236677161E+03  0.00000000000E+00 0.  1.
         22    1    1    2    0    0  0.97873758816E+03 -0.85559431488E+03  0.75804177745E+03  0.15048575463E+04  0.00000000000E+00 0.  1.
<mgrwt>
<rscale>  0 0.28095712E+04</rscale>
<asrwt>0</asrwt>
<pdfrwt beam="1">  1        1 0.18448100E+00 0.28095712E+04</pdfrwt>
<pdfrwt beam="2">  1       -1 0.25318720E+00 0.28095712E+04</pdfrwt>
<totfact> 0.61515443E-01</totfact>
</mgrwt>
</event>
<event>
 6    1  0.1780144E-005  0.6450732E+03  0.7818608E-02  0.9816068E-01
          2   -1    0    0  501    0  0.00000000000E+00  0.00000000000E+00  0.55059619856E+03  0.55059619856E+03  0.00000000000E+00 0. -1.
         -2   -1    0    0    0  501 -0.00000000000E+00 -0.00000000000E+00 -0.18894038285E+03  0.18894038285E+03  0.00000000000E+00 0.  1.
         23    2    1    2    0    0  0.89868847829E+02  0.96182079423E+02  0.51348205348E+03  0.53859228891E+03  0.95343758130E+02 0.  0.
         13    1    3    3    0    0  0.75760583502E+02  0.31648699946E+02  0.16967140959E+03  0.18849321859E+03  0.00000000000E+00 0.  1.
        -13    1    3    3    0    0  0.14108264327E+02  0.64533379477E+02  0.34381064389E+03  0.35009907032E+03  0.00000000000E+00 0. -1.
         22    1    1    2    0    0 -0.89868847829E+02 -0.96182079423E+02 -0.15182623778E+03  0.20094429250E+03  0.00000000000E+00 0.  1.
<mgrwt>
<rscale>  0 0.64507319E+03</rscale>
<asrwt>0</asrwt>
<pdfrwt beam="1">  1        2 0.84707107E-01 0.64507319E+03</pdfrwt>
<pdfrwt beam="2">  1       -2 0.29067751E-01 0.64507319E+03</pdfrwt>
<totfact> 0.60138505E+02</totfact>
</mgrwt>
</event>
<event>
 6    1  0.1780144E-005  0.7808751E+04  0.7818608E-02  0.7499331E-01
          1   -1    0    0  501    0  0.00000000000E+00  0.00000000000E+00  0.33481763482E+04  0.33481763482E+04  0.00000000000E+00 0.  1.
         -1   -1    0    0    0  501 -0.00000000000E+00 -0.00000000000E+00 -0.45529708409E+04  0.45529708409E+04  0.00000000000E+00 0. -1.
         23    2    1    2    0    0  0.19976226694E+04 -0.25080865439E+04  0.16507560726E+04  0.36075282643E+04  0.90940230160E+02 0.  0.
         11    1    3    3    0    0  0.15458470072E+04 -0.18897414967E+04  0.12813489452E+04  0.27572850802E+04  0.00000000000E+00 0.  1.
        -11    1    3    3    0    0  0.45177566213E+03 -0.61834504719E+03  0.36940712734E+03  0.85024318404E+03  0.00000000000E+00 0. -1.
         22    1    1    2    0    0 -0.19976226694E+04  0.25080865439E+04 -0.28555505652E+04  0.42936189248E+04  0.00000000000E+00 0. -1.
<mgrwt>
<rscale>  0 0.78087513E+04</rscale>
<asrwt>0</asrwt>
<pdfrwt beam="1">  1        1 0.51510405E+00 0.78087513E+04</pdfrwt>
<pdfrwt beam="2">  1       -1 0.70045705E+00 0.78087513E+04</pdfrwt>
<totfact> 0.39419560E-05</totfact>
</mgrwt>
</event>
<event>
 6    1  0.1780144E-005  0.3811182E+04  0.7818608E-02  0.8043760E-01
          2   -1    0    0  501    0  0.00000000000E+00  0.00000000000E+00  0.15377415460E+04  0.15377415460E+04  0.00000000000E+00 0. -1.
         -2   -1    0    0    0  501 -0.00000000000E+00 -0.00000000000E+00 -0.23614349280E+04  0.23614349280E+04  0.00000000000E+00 0.  1.
         23    2    1    2    0    0  0.15999166518E+04 -0.40033864563E+03  0.56239601452E+03  0.17448208537E+04  0.90034495950E+02 0.  0.
         13    1    3    3    0    0  0.69809233812E+03 -0.17008656672E+03  0.19819228539E+03  0.74534725780E+03  0.00000000000E+00 0.  1.
        -13    1    3    3    0    0  0.90182431365E+03 -0.23025207891E+03  0.36420372913E+03  0.99947359588E+03  0.00000000000E+00 0. -1.
         22    1    1    2    0    0 -0.15999166518E+04  0.40033864563E+03 -0.13860893966E+04  0.21543556204E+04  0.00000000000E+00 0.  1.
<mgrwt>
<rscale>  0 0.38111818E+04</rscale>
<asrwt>0</asrwt>
<pdfrwt beam="1">  1        2 0.23657562E+00 0.38111818E+04</pdfrwt>
<pdfrwt beam="2">  1       -2 0.36329768E+00 0.38111818E+04</pdfrwt>
<totfact> 0.12400413E-01</totfact>
</mgrwt>
</event>
<event>
 6    1  0.1780144E-005  0.2651728E+04  0.7818608E-02  0.8350840E-01
         -2   -1    0    0    0  501 -0.00000000000E+00  0.00000000000E+00  0.15463753958E+04  0.15463753958E+04  0.00000000000E+00 0.  1.
          2   -1    0    0  501    0  0.00000000000E+00 -0.00000000000E+00 -0.11367970111E+04  0.11367970111E+04  0.00000000000E+00 0. -1.
         23    2    1    2    0    0  0.16467595086E+03  0.29449094398E+03  0.15008408592E+04  0.15409391237E+04  0.90149949312E+02 0.  0.
         11    1    3    3    0    0  0.11445434843E+03  0.16561967384E+03  0.10586441837E+04  0.10776164354E+04  0.00000000000E+00 0. -1.
        -11    1    3    3    0    0  0.50221602427E+02  0.12887127014E+03  0.44219667551E+03  0.46332268825E+03  0.00000000000E+00 0.  1.
         22    1    1    2    0    0 -0.16467595086E+03 -0.29449094398E+03 -0.10912624745E+04  0.11422332831E+04  0.00000000000E+00 0. -1.
<mgrwt>
<rscale>  0 0.26517277E+04</rscale>
<asrwt>0</asrwt>
<pdfrwt beam="1">  1        2 0.17489185E+00 0.26517277E+04</pdfrwt>
<pdfrwt beam="2">  1       -2 0.23790391E+00 0.26517277E+04</pdfrwt>
<totfact> 0.13903029E+00</totfact>
</mgrwt>
</event>
<event>
 6    1  0.1780144E-005  0.4354665E+04  0.7818608E-02  0.7936587E-01
         -2   -1    0    0    0  501 -0.00000000000E+00  0.00000000000E+00  0.12759574938E+04  0.12759574938E+04  0.00000000000E+00 0.  1.
          2   -1    0    0  501    0  0.00000000000E+00 -0.00000000000E+00 -0.37154658977E+04  0.37154658977E+04  0.00000000000E+00 0. -1.
         23    2    1    2    0    0  0.86253095139E+03 -0.16654232667E+04  0.45260673098E+02  0.18782784117E+04  0.91032764219E+02 0.  0.
         13    1    3    3    0    0  0.39770590347E+03 -0.72469346343E+03  0.60551180258E+02  0.82886491482E+03  0.00000000000E+00 0.  1.
        -13    1    3    3    0    0  0.46482504793E+03 -0.94072980325E+03 -0.15290507160E+02  0.10494134969E+04  0.00000000000E+00 0. -1.
         22    1    1    2    0    0 -0.86253095139E+03  0.16654232667E+04 -0.24847690770E+04  0.31131449798E+04  0.00000000000E+00 0. -1.
<mgrwt>
<rscale>  0 0.43546649E+04</rscale>
<asrwt>0</asrwt>
<pdfrwt beam="1">  1        2 0.57161014E+00 0.43546649E+04</pdfrwt>
<pdfrwt beam="2">  1       -2 0.19630115E+00 0.43546649E+04</pdfrwt>
<totfact> 0.61153171E-02</totfact>
</mgrwt>
</event>
<event>
 6    1  0.1780144E-005  0.2159394E+04  0.7818608E-02  0.8535522E-01
          1   -1    0    0  501    0  0.00000000000E+00  0.00000000000E+00  0.33959786741E+04  0.33959786741E+04  0.00000000000E+00 0. -1.
         -1   -1    0    0    0  501 -0.00000000000E+00 -0.00000000000E+00 -0.34327251669E+03  0.34327251669E+03  0.00000000000E+00 0.  1.
         23    2    1    2    0    0  0.10041003100E+03 -0.30963121087E+02  0.33864656168E+04  0.33893422514E+04  0.91927329717E+02 0.  0.
         13    1    3    3    0    0  0.15075790427E+02 -0.13993826918E+02  0.20224485309E+04  0.20225531307E+04  0.00000000000E+00 0.  1.
        -13    1    3    3    0    0  0.85334240569E+02 -0.16969294169E+02  0.13640170859E+04  0.13667891206E+04  0.00000000000E+00 0. -1.
         22    1    1    2    0    0 -0.10041003100E+03  0.30963121087E+02 -0.33375945936E+03  0.34990893945E+03  0.00000000000E+00 0.  1.
<mgrwt>
<rscale>  0 0.21593945E+04</rscale>
<asrwt>0</asrwt>
<pdfrwt beam="1">  1        1 0.52245823E+00 0.21593945E+04</pdfrwt>
<pdfrwt beam="2">  1       -1 0.52811159E-01 0.21593945E+04</pdfrwt>
<totfact> 0.99908117E-01</totfact>
</mgrwt>
</event>
<event>
 6    1  0.1780144E-005  0.3516114E+04  0.7818608E-02  0.8109982E-01
         -2   -1    0    0    0  501 -0.00000000000E+00  0.00000000000E+00  0.14546581230E+04  0.14546581230E+04  0.00000000000E+00 0.  1.
          2   -1    0    0  501    0  0.00000000000E+00 -0.00000000000E+00 -0.21247358429E+04  0.21247358429E+04  0.00000000000E+00 0. -1.
         23    2    1    2    0    0  0.74884450120E+03  0.14759543193E+04 -0.93516369152E+03  0.19032436708E+04  0.92715159466E+02 0.  0.
         13    1    3    3    0    0  0.37040071560E+03  0.71421775654E+03 -0.50718793687E+03  0.95107481155E+03  0.00000000000E+00 0. -1.
        -13    1    3    3    0    0  0.37844378560E+03  0.76173656279E+03 -0.42797575465E+03  0.95216885925E+03  0.00000000000E+00 0.  1.
         22    1    1    2    0    0 -0.74884450120E+03 -0.14759543193E+04  0.26508597162E+03  0.16761502952E+04  0.00000000000E+00 0.  1.
<mgrwt>
<rscale>  0 0.35161139E+04</rscale>
<asrwt>0</asrwt>
<pdfrwt beam="1">  1        2 0.32688243E+00 0.35161139E+04</pdfrwt>
<pdfrwt beam="2">  1       -2 0.22379356E+00 0.35161139E+04</pdfrwt>
<totfact> 0.43685015E-01</totfact>
</mgrwt>
</event>
<event>
 6    1  0.1780144E-005  0.1374624E+04  0.7818608E-02  0.8972395E-01
          2   -1    0    0  501    0  0.00000000000E+00  0.00000000000E+00  0.86254304464E+03  0.86254304464E+03  0.00000000000E+00 0. -1.
         -2   -1    0    0    0  501 -0.00000000000E+00 -0.00000000000E+00 -0.54767997925E+03  0.54767997925E+03  0.00000000000E+00 0.  1.
         23    2    1    2    0    0 -0.54807808999E+03 -0.43308995961E+02 -0.25986260836E+03  0.61487727397E+03  0.90995741496E+02 0.  0.
         13    1    3    3    0    0 -0.25553349828E+03 -0.42739310895E+02 -0.78665559302E+02  0.27076241921E+03  0.00000000000E+00 0. -1.
        -13    1    3    3    0    0 -0.29254459171E+03 -0.56968506568E+00 -0.18119704906E+03  0.34411485476E+03  0.00000000000E+00 0.  1.
         22    1    1    2    0    0  0.54807808999E+03  0.43308995961E+02  0.57472567374E+03  0.79534574992E+03  0.00000000000E+00 0. -1.
<mgrwt>
<rscale>  0 0.13746237E+04</rscale>
<asrwt>0</asrwt>
<pdfrwt beam="1">  1        2 0.13269893E+00 0.13746237E+04</pdfrwt>
<pdfrwt beam="2">  1       -2 0.84258459E-01 0.13746237E+04</pdfrwt>
<totfact> 0.37296319E+01</totfact>
</mgrwt>
</event>
<event>
 6    1  0.1780144E-005  0.3623987E+04  0.7818608E-02  0.8085019E-01
         -2   -1    0    0    0  501 -0.00000000000E+00  0.00000000000E+00  0.16864850181E+04  0.16864850181E+04  0.00000000000E+00 0.  1.
          2   -1    0    0  501    0  0.00000000000E+00 -0.00000000000E+00 -0.19468424638E+04  0.19468424638E+04  0.00000000000E+00 0. -1.
         23    2    1    2    0    0  0.64109372980E+03  0.11021054151E+04 -0.14194441748E+04  0.19102141479E+04  0.91971784073E+02 0.  0.
         11    1    3    3    0    0  0.45231479006E+03  0.83487225697E+03 -0.10130204451E+04  0.13884562568E+04  0.00000000000E+00 0. -1.
        -11    1    3    3    0    0  0.18877893974E+03  0.26723315813E+03 -0.40642372967E+03  0.52175789110E+03  0.00000000000E+00 0.  1.
         22    1    1    2    0    0 -0.64109372980E+03 -0.11021054151E+04  0.11590867290E+04  0.17231133340E+04  0.00000000000E+00 0.  1.
<mgrwt>
<rscale>  0 0.36239871E+04</rscale>
<asrwt>0</asrwt>
<pdfrwt beam="1">  1        2 0.29951423E+00 0.36239871E+04</pdfrwt>
<pdfrwt beam="2">  1       -2 0.25945923E+00 0.36239871E+04</pdfrwt>
<totfact> 0.32708296E-01</totfact>
</mgrwt>
</event>
<event>
 6    1  0.1780144E-005  0.2569124E+04  0.7818608E-02  0.8378765E-01
         -1   -1    0    0    0  501 -0.00000000000E+00  0.00000000000E+00  0.11032296893E+04  0.11032296893E+04  0.00000000000E+00 0.  1.
          1   -1    0    0  501    0  0.00000000000E+00 -0.00000000000E+00 -0.14956986980E+04  0.14956986980E+04  0.00000000000E+00 0. -1.
         23    2    1    2    0    0  0.79779431695E+03  0.99664041458E+03 -0.68762329973E+02  0.12819037475E+04  0.93707372256E+02 0.  0.
         13    1    3    3    0    0  0.57408717056E+03  0.67101277550E+03 -0.79814570303E+02  0.88668178617E+03  0.00000000000E+00 0. -1.
        -13    1    3    3    0    0  0.22370714639E+03  0.32562763908E+03  0.11052240331E+02  0.39522196130E+03  0.00000000000E+00 0.  1.
         22    1    1    2    0    0 -0.79779431695E+03 -0.99664041458E+03 -0.32370667878E+03  0.13170246399E+04  0.00000000000E+00 0. -1.
<mgrwt>
<rscale>  0 0.25691237E+04</rscale>
<asrwt>0</asrwt>
<pdfrwt beam="1">  1        1 0.23010749E+00 0.25691237E+04</pdfrwt>
<pdfrwt beam="2">  1       -1 0.16972764E+00 0.25691237E+04</pdfrwt>
<totfact> 0.14380044E+00</totfact>
</mgrwt>
</event>
<event>
 6    1  0.1780144E-005  0.1302669E+04  0.7818608E-02  0.9027451E-01
          2   -1    0    0  501    0  0.00000000000E+00  0.00000000000E+00  0.11200709648E+04  0.11200709648E+04  0.00000000000E+00 0. -1.
         -2   -1    0    0    0  501 -0.00000000000E+00 -0.00000000000E+00 -0.37875858047E+03  0.37875858047E+03  0.00000000000E+00 0.  1.
         23    2    1    2    0    0 -0.64682059680E+00 -0.21234552778E+03 -0.33209897741E+03  0.40461613233E+03  0.91287689209E+02 0.  0.
         13    1    3    3    0    0  0.93309935332E+01 -0.10962761296E+03 -0.92517177695E+02  0.14375224914E+03  0.00000000000E+00 0. -1.
        -13    1    3    3    0    0 -0.99778141300E+01 -0.10271791482E+03 -0.23958179971E+03  0.26086388319E+03  0.00000000000E+00 0.  1.
         22    1    1    2    0    0  0.64682059680E+00  0.21234552778E+03  0.10734113618E+04  0.10942134130E+04  0.00000000000E+00 0. -1.
<mgrwt>
<rscale>  0 0.13026688E+04</rscale>
<asrwt>0</asrwt>
<pdfrwt beam="1">  1        2 0.17231861E+00 0.13026688E+04</pdfrwt>
<pdfrwt beam="2">  1       -2 0.58270551E-01 0.13026688E+04</pdfrwt>
<totfact> 0.57167379E+01</totfact>
</mgrwt>
</event>
<event>
 6    1  0.1780144E-005  0.2868326E+04  0.7818608E-02  0.8282364E-01
          1   -1    0    0  501    0  0.00000000000E+00  0.00000000000E+00  0.78334631008E+03  0.78334631008E+03  0.00000000000E+00 0. -1.
         -1   -1    0    0    0  501 -0.00000000000E+00 -0.00000000000E+00 -0.26256880663E+04  0.26256880663E+04  0.00000000000E+00 0.  1.
         23    2    1    2    0    0  0.11074839792E+04 -0.88283334545E+01 -0.20023162838E+04  0.22900211713E+04  0.91256567837E+02 0.  0.
         11    1    3    3    0    0  0.36755043691E+03 -0.11892217119E+02 -0.75357316165E+03  0.83851491248E+03  0.00000000000E+00 0.  1.
        -11    1    3    3    0    0  0.73993354227E+03  0.30638836646E+01 -0.12487431221E+04  0.14515062588E+04  0.00000000000E+00 0. -1.
         22    1    1    2    0    0 -0.11074839792E+04  0.88283334545E+01  0.15997452758E+03  0.11190132051E+04  0.00000000000E+00 0. -1.
<mgrwt>
<rscale>  0 0.28683257E+04</rscale>
<asrwt>0</asrwt>
<pdfrwt beam="1">  1        1 0.12051481E+00 0.28683257E+04</pdfrwt>
<pdfrwt beam="2">  1       -1 0.40395202E+00 0.28683257E+04</pdfrwt>
<totfact> 0.13221299E-01</totfact>
</mgrwt>
</event>
<event>
 6    1  0.1780144E-005  0.3179977E+04  0.7818608E-02  0.8194125E-01
         -2   -1    0    0    0  501 -0.00000000000E+00  0.00000000000E+00  0.16905761343E+04  0.16905761343E+04  0.00000000000E+00 0.  1.
          2   -1    0    0  501    0  0.00000000000E+00 -0.00000000000E+00 -0.14953857489E+04  0.14953857489E+04  0.00000000000E+00 0. -1.
         23    2    1    2    0    0 -0.54657005492E+03 -0.14883582108E+04  0.19803828833E+03  0.16004155738E+04  0.90342995178E+02 0.  0.
         11    1    3    3    0    0 -0.14016215603E+03 -0.37357069126E+03  0.10564776358E+02  0.39913920611E+03  0.00000000000E+00 0.  1.
        -11    1    3    3    0    0 -0.40640789888E+03 -0.11147875195E+04  0.18747351197E+03  0.12012763677E+04  0.00000000000E+00 0. -1.
         22    1    1    2    0    0  0.54657005492E+03  0.14883582108E+04 -0.28479029490E+01  0.15855463093E+04  0.00000000000E+00 0.  1.
<mgrwt>
<rscale>  0 0.31799770E+04</rscale>
<asrwt>0</asrwt>
<pdfrwt beam="1">  1        2 0.23005935E+00 0.31799770E+04</pdfrwt>
<pdfrwt beam="2">  1       -2 0.26008863E+00 0.31799770E+04</pdfrwt>
<totfact> 0.60020502E-01</totfact>
</mgrwt>
</event>
<event>
 6    1  0.1780144E-005  0.4479071E+03  0.7818608E-02  0.1028348E+00
          1   -1    0    0  501    0  0.00000000000E+00  0.00000000000E+00  0.30649759489E+03  0.30649759489E+03  0.00000000000E+00 0. -1.
         -1   -1    0    0    0  501 -0.00000000000E+00 -0.00000000000E+00 -0.16363979138E+03  0.16363979138E+03  0.00000000000E+00 0.  1.
         23    2    1    2    0    0 -0.16634696009E+03  0.10466036097E+03  0.29462344398E+01  0.22888990038E+03  0.11728940237E+03 0.  0.
         11    1    3    3    0    0 -0.12679661903E+03  0.11303382705E+02 -0.28986165982E+01  0.12733244298E+03  0.00000000000E+00 0.  1.
        -11    1    3    3    0    0 -0.39550341065E+02  0.93356978266E+02  0.58448510380E+01  0.10155745740E+03  0.00000000000E+00 0. -1.
         22    1    1    2    0    0  0.16634696009E+03 -0.10466036097E+03  0.13991156907E+03  0.24124748589E+03  0.00000000000E+00 0. -1.
<mgrwt>
<rscale>  0 0.44790714E+03</rscale>
<asrwt>0</asrwt>
<pdfrwt beam="1">  1        1 0.47153476E-01 0.44790714E+03</pdfrwt>
<pdfrwt beam="2">  1       -1 0.25175352E-01 0.44790714E+03</pdfrwt>
<totfact> 0.11784460E+03</totfact>
</mgrwt>
</event>
<event>
 6    1  0.1780144E-005  0.1959102E+04  0.7818608E-02  0.8625984E-01
         -2   -1    0    0    0  501 -0.00000000000E+00  0.00000000000E+00  0.41837834279E+03  0.41837834279E+03  0.00000000000E+00 0.  1.
          2   -1    0    0  501    0  0.00000000000E+00 -0.00000000000E+00 -0.22934279613E+04  0.22934279613E+04  0.00000000000E+00 0. -1.
         23    2    1    2    0    0  0.30052097157E+03 -0.81416367804E+03 -0.31745915743E+03  0.92875740027E+03  0.92922779409E+02 0.  0.
         13    1    3    3    0    0  0.20726910020E+03 -0.43095257482E+03 -0.18428909686E+03  0.51248714409E+03  0.00000000000E+00 0. -1.
        -13    1    3    3    0    0  0.93251871363E+02 -0.38321110322E+03 -0.13317006057E+03  0.41627025618E+03  0.00000000000E+00 0.  1.
         22    1    1    2    0    0 -0.30052097157E+03  0.81416367804E+03 -0.15575904611E+04  0.17830489039E+04  0.00000000000E+00 0. -1.
<mgrwt>
<rscale>  0 0.19591024E+04</rscale>
<asrwt>0</asrwt>
<pdfrwt beam="1">  1        2 0.35283506E+00 0.19591024E+04</pdfrwt>
<pdfrwt beam="2">  1       -2 0.64365901E-01 0.19591024E+04</pdfrwt>
<totfact> 0.95055680E+00</totfact>
</mgrwt>
</event>
<event>
 6    1  0.1780144E-005  0.2510072E+04  0.7818608E-02  0.8399406E-01
          2   -1    0    0  501    0  0.00000000000E+00  0.00000000000E+00  0.19232597325E+04  0.19232597325E+04  0.00000000000E+00 0. -1.
         -2   -1    0    0    0  501 -0.00000000000E+00 -0.00000000000E+00 -0.81898191146E+03  0.81898191146E+03  0.00000000000E+00 0.  1.
         23    2    1    2    0    0 -0.74272779797E+03  0.15090907367E+03  0.16435312822E+04  0.18120736882E+04  0.89430675168E+02 0.  0.
         11    1    3    3    0    0 -0.56354252830E+03  0.12450933186E+03  0.11577406247E+04  0.12936174508E+04  0.00000000000E+00 0.  1.
        -11    1    3    3    0    0 -0.17918526967E+03  0.26399741810E+02  0.48579065749E+03  0.51845623743E+03  0.00000000000E+00 0. -1.
         22    1    1    2    0    0  0.74272779797E+03 -0.15090907367E+03 -0.53925346119E+03  0.93016795569E+03  0.00000000000E+00 0.  1.
<mgrwt>
<rscale>  0 0.25100717E+04</rscale>
<asrwt>0</asrwt>
<pdfrwt beam="1">  1        2 0.29588611E+00 0.25100717E+04</pdfrwt>
<pdfrwt beam="2">  1       -2 0.12599722E+00 0.25100717E+04</pdfrwt>
<totfact> 0.30873429E+00</totfact>
</mgrwt>
</event>
<event>
 6    1  0.1780144E-005  0.2727229E+04  0.7818608E-02  0.8326224E-01
         -2   -1    0    0    0  501 -0.00000000000E+00  0.00000000000E+00  0.24183786892E+04  0.24183786892E+04  0.00000000000E+00 0. -1.
          2   -1    0    0  501    0  0.00000000000E+00 -0.00000000000E+00 -0.76888041470E+03  0.76888041470E+03  0.00000000000E+00 0.  1.
         23    2    1    2    0    0 -0.49333669039E+02  0.70330111846E+03 -0.53613354208E+03  0.89072852240E+03  0.94296614734E+02 0.  0.
         13    1    3    3    0    0 -0.25320454864E+02  0.48582466766E+03 -0.42168584427E+03  0.64380562625E+03  0.00000000000E+00 0.  1.
        -13    1    3    3    0    0 -0.24013214175E+02  0.21747645080E+03 -0.11444769782E+03  0.24692289615E+03  0.00000000000E+00 0. -1.
         22    1    1    2    0    0  0.49333669039E+02 -0.70330111846E+03  0.21856318166E+04  0.22965305815E+04  0.00000000000E+00 0. -1.
<mgrwt>
<rscale>  0 0.27272286E+04</rscale>
<asrwt>0</asrwt>
<pdfrwt beam="1">  1        2 0.11828930E+00 0.27272286E+04</pdfrwt>
<pdfrwt beam="2">  1       -2 0.37205826E+00 0.27272286E+04</pdfrwt>
<totfact> 0.35787551E-01</totfact>
</mgrwt>
</event>
<event>
 6    1  0.1780144E-005  0.2422948E+04  0.7818608E-02  0.8430962E-01
         -2   -1    0    0    0  501 -0.00000000000E+00  0.00000000000E+00  0.11197665483E+04  0.11197665483E+04  0.00000000000E+00 0.  1.
          2   -1    0    0  501    0  0.00000000000E+00 -0.00000000000E+00 -0.13106916679E+04  0.13106916679E+04  0.00000000000E+00 0. -1.
         23    2    1    2    0    0 -0.12008691220E+04 -0.67236294971E+02  0.29811087828E+02  0.12076205978E+04  0.10417024306E+03 0.  0.
         11    1    3    3    0    0 -0.22101055194E+03  0.14967017671E+02  0.35256095265E+02  0.22430485492E+03  0.00000000000E+00 0.  1.
        -11    1    3    3    0    0 -0.97985857010E+03 -0.82203312643E+02 -0.54450074373E+01  0.98331574284E+03  0.00000000000E+00 0. -1.
         22    1    1    2    0    0  0.12008691220E+04  0.67236294971E+02 -0.22073620746E+03  0.12228376184E+04  0.00000000000E+00 0. -1.
<mgrwt>
<rscale>  0 0.24229475E+04</rscale>
<asrwt>0</asrwt>
<pdfrwt beam="1">  1        2 0.20164487E+00 0.24229475E+04</pdfrwt>
<pdfrwt beam="2">  1       -2 0.17227178E+00 0.24229475E+04</pdfrwt>
<totfact> 0.30040384E+00</totfact>
</mgrwt>
</event>
<event>
 6    1  0.1780144E-005  0.3045003E+04  0.7818608E-02  0.8230995E-01
         -2   -1    0    0    0  501 -0.00000000000E+00  0.00000000000E+00  0.20567706784E+04  0.20567706784E+04  0.00000000000E+00 0. -1.
          2   -1    0    0  501    0  0.00000000000E+00 -0.00000000000E+00 -0.11270148001E+04  0.11270148001E+04  0.00000000000E+00 0.  1.
         23    2    1    2    0    0 -0.98789528206E+03 -0.96959981652E+03  0.11246212004E+04  0.17859180362E+04  0.93110125099E+02 0.  0.
         11    1    3    3    0    0 -0.53923669371E+03 -0.55183387982E+03  0.57062496546E+03  0.95964039826E+03  0.00000000000E+00 0. -1.
        -11    1    3    3    0    0 -0.44865858835E+03 -0.41776593670E+03  0.55399623489E+03  0.82627763799E+03  0.00000000000E+00 0.  1.
         22    1    1    2    0    0  0.98789528206E+03  0.96959981652E+03 -0.19486532200E+03  0.13978674423E+04  0.00000000000E+00 0.  1.
<mgrwt>
<rscale>  0 0.30450031E+04</rscale>
<asrwt>0</asrwt>
<pdfrwt beam="1">  1        2 0.17338689E+00 0.30450031E+04</pdfrwt>
<pdfrwt beam="2">  1       -2 0.31642626E+00 0.30450031E+04</pdfrwt>
<totfact> 0.45044881E-01</totfact>
</mgrwt>
</event>
<event>
 6    1  0.1780144E-005  0.4935954E+04  0.7818608E-02  0.7838464E-01
          2   -1    0    0  501    0  0.00000000000E+00  0.00000000000E+00  0.31009522425E+04  0.31009522425E+04  0.00000000000E+00 0. -1.
         -2   -1    0    0    0  501 -0.00000000000E+00 -0.00000000000E+00 -0.19642065900E+04  0.19642065900E+04  0.00000000000E+00 0.  1.
         23    2    1    2    0    0  0.20618401066E+04  0.34476535034E+02  0.19583918810E+04  0.28453669997E+04  0.91876804110E+02 0.  0.
         13    1    3    3    0    0  0.27455566447E+03  0.11793599352E+02  0.22039110874E+03  0.35226714676E+03  0.00000000000E+00 0. -1.
        -13    1    3    3    0    0  0.17872844421E+04  0.22682935682E+02  0.17380007722E+04  0.24930998530E+04  0.00000000000E+00 0.  1.
         22    1    1    2    0    0 -0.20618401066E+04 -0.34476535034E+02 -0.82164622848E+03  0.22197918329E+04  0.00000000000E+00 0.  1.
<mgrwt>
<rscale>  0 0.49359541E+04</rscale>
<asrwt>0</asrwt>
<pdfrwt beam="1">  1        2 0.47706958E+00 0.49359541E+04</pdfrwt>
<pdfrwt beam="2">  1       -2 0.30218563E+00 0.49359541E+04</pdfrwt>
<totfact> 0.33864433E-02</totfact>
</mgrwt>
</event>
<event>
 6    1  0.1780144E-005  0.2623282E+04  0.7818608E-02  0.8360336E-01
         -2   -1    0    0    0  501 -0.00000000000E+00  0.00000000000E+00  0.14847807643E+04  0.14847807643E+04  0.00000000000E+00 0.  1.
          2   -1    0    0  501    0  0.00000000000E+00 -0.00000000000E+00 -0.11586908676E+04  0.11586908676E+04  0.00000000000E+00 0. -1.
         23    2    1    2    0    0 -0.51951593874E+03  0.10013091841E+04  0.83435787711E+03  0.14061950935E+04  0.93352456570E+02 0.  0.
         13    1    3    3    0    0 -0.27802040161E+03  0.43574472266E+03  0.37351389666E+03  0.63771579723E+03  0.00000000000E+00 0. -1.
        -13    1    3    3    0    0 -0.24149553713E+03  0.56556446139E+03  0.46084398046E+03  0.76847929625E+03  0.00000000000E+00 0.  1.
         22    1    1    2    0    0  0.51951593874E+03 -0.10013091841E+04 -0.50826798039E+03  0.12372765384E+04  0.00000000000E+00 0. -1.
<mgrwt>
<rscale>  0 0.26232818E+04</rscale>
<asrwt>0</asrwt>
<pdfrwt beam="1">  1        2 0.17826013E+00 0.26232818E+04</pdfrwt>
<pdfrwt beam="2">  1       -2 0.22842781E+00 0.26232818E+04</pdfrwt>
<totfact> 0.15486721E+00</totfact>
</mgrwt>
</event>
<event>
 6    1  0.1780144E-005  0.6609688E+03  0.7818608E-02  0.9786412E-01
          1   -1    0    0  501    0  0.00000000000E+00  0.00000000000E+00  0.52832004524E+03  0.52832004524E+03  0.00000000000E+00 0. -1.
         -1   -1    0    0    0  501 -0.00000000000E+00 -0.00000000000E+00 -0.20673065253E+03  0.20673065253E+03  0.00000000000E+00 0.  1.
         23    2    1    2    0    0  0.18228644491E+03 -0.19328842228E+03  0.37034329619E+03  0.46492904871E+03  0.91739310651E+02 0.  0.
         11    1    3    3    0    0  0.10955974662E+03 -0.14616614541E+03  0.18326579302E+03  0.25875515654E+03  0.00000000000E+00 0. -1.
        -11    1    3    3    0    0  0.72726698287E+02 -0.47122276868E+02  0.18707750318E+03  0.20617389218E+03  0.00000000000E+00 0.  1.
         22    1    1    2    0    0 -0.18228644491E+03  0.19328842228E+03 -0.48753903484E+02  0.27012164906E+03  0.00000000000E+00 0.  1.
<mgrwt>
<rscale>  0 0.66096883E+03</rscale>
<asrwt>0</asrwt>
<pdfrwt beam="1">  1        1 0.81280007E-01 0.66096883E+03</pdfrwt>
<pdfrwt beam="2">  1       -1 0.31804716E-01 0.66096883E+03</pdfrwt>
<totfact> 0.38223221E+02</totfact>
</mgrwt>
</event>
<event>
 6    1  0.1780144E-005  0.4491759E+04  0.7818608E-02  0.7912081E-01
          1   -1    0    0  501    0  0.00000000000E+00  0.00000000000E+00  0.17167654451E+04  0.17167654451E+04  0.00000000000E+00 0. -1.
         -1   -1    0    0    0  501 -0.00000000000E+00 -0.00000000000E+00 -0.29380682828E+04  0.29380682828E+04  0.00000000000E+00 0.  1.
         23    2    1    2    0    0  0.69900463291E+03 -0.19547002851E+04  0.27475696654E+03  0.20959950031E+04  0.90790863875E+02 0.  0.
         11    1    3    3    0    0  0.45200863203E+03 -0.11415649412E+04  0.14510227332E+03  0.12363401588E+04  0.00000000000E+00 0. -1.
        -11    1    3    3    0    0  0.24699600089E+03 -0.81313534389E+03  0.12965469322E+03  0.85965484435E+03  0.00000000000E+00 0.  1.
         22    1    1    2    0    0 -0.69900463291E+03  0.19547002851E+04 -0.14960598043E+04  0.25588387248E+04  0.00000000000E+00 0.  1.
<mgrwt>
<rscale>  0 0.44917587E+04</rscale>
<asrwt>0</asrwt>
<pdfrwt beam="1">  1        1 0.26411776E+00 0.44917587E+04</pdfrwt>
<pdfrwt beam="2">  1       -1 0.45201050E+00 0.44917587E+04</pdfrwt>
<totfact> 0.10951300E-02</totfact>
</mgrwt>
</event>
<event>
 6    1  0.1780144E-005  0.9880857E+03  0.7818608E-02  0.9321710E-01
          2   -1    0    0  501    0  0.00000000000E+00  0.00000000000E+00  0.18109398616E+03  0.18109398616E+03  0.00000000000E+00 0. -1.
         -2   -1    0    0    0  501 -0.00000000000E+00 -0.00000000000E+00 -0.13477991627E+04  0.13477991627E+04  0.00000000000E+00 0.  1.
         23    2    1    2    0    0  0.50494060514E+02  0.24040380607E+03 -0.12432712592E+04  0.12715878727E+04  0.10425283697E+03 0.  0.
         11    1    3    3    0    0 -0.95949389954E+01  0.94421225059E+02 -0.28465486554E+03  0.30005969918E+03  0.00000000000E+00 0. -1.
        -11    1    3    3    0    0  0.60088999509E+02  0.14598258101E+03 -0.95861639362E+03  0.97152817352E+03  0.00000000000E+00 0.  1.
         22    1    1    2    0    0 -0.50494060514E+02 -0.24040380607E+03  0.76566082637E+02  0.25730527614E+03  0.00000000000E+00 0. -1.
<mgrwt>
<rscale>  0 0.98808567E+03</rscale>
<asrwt>0</asrwt>
<pdfrwt beam="1">  1        2 0.27860615E-01 0.98808567E+03</pdfrwt>
<pdfrwt beam="2">  1       -2 0.20735370E+00 0.98808567E+03</pdfrwt>
<totfact> 0.23092212E+01</totfact>
</mgrwt>
</event>
<event>
 6    1  0.1780144E-005  0.9791005E+03  0.7818608E-02  0.9331769E-01
          2   -1    0    0  501    0  0.00000000000E+00  0.00000000000E+00  0.65539471828E+03  0.65539471828E+03  0.00000000000E+00 0. -1.
         -2   -1    0    0    0  501 -0.00000000000E+00 -0.00000000000E+00 -0.36567189183E+03  0.36567189183E+03  0.00000000000E+00 0.  1.
         23    2    1    2    0    0  0.22024185270E+03  0.16713244704E+03 -0.27000751953E+03  0.39677678259E+03  0.89933453558E+02 0.  0.
         11    1    3    3    0    0  0.11053036818E+03  0.13875409598E+03 -0.16687108082E+03  0.24354798101E+03  0.00000000000E+00 0.  1.
        -11    1    3    3    0    0  0.10971148452E+03  0.28378351059E+02 -0.10313643871E+03  0.15322880158E+03  0.00000000000E+00 0. -1.
         22    1    1    2    0    0 -0.22024185270E+03 -0.16713244704E+03  0.55973034598E+03  0.62428982752E+03  0.00000000000E+00 0. -1.
<mgrwt>
<rscale>  0 0.97910046E+03</rscale>
<asrwt>0</asrwt>
<pdfrwt beam="1">  1        2 0.10082996E+00 0.97910046E+03</pdfrwt>
<pdfrwt beam="2">  1       -2 0.56257214E-01 0.97910046E+03</pdfrwt>
<totfact> 0.13197561E+02</totfact>
</mgrwt>
</event>
<event>
 6    1  0.1780144E-005  0.2666599E+04  0.7818608E-02  0.8345924E-01
         -1   -1    0    0    0  501 -0.00000000000E+00  0.00000000000E+00  0.73492017610E+03  0.73492017610E+03  0.00000000000E+00 0.  1.
          1   -1    0    0  501    0  0.00000000000E+00 -0.00000000000E+00 -0.24188860228E+04  0.24188860228E+04  0.00000000000E+00 0. -1.
         23    2    1    2    0    0 -0.41761366710E+03  0.65074219881E+02 -0.23363854029E+04  0.23764471401E+04  0.10083863187E+03 0.  0.
         11    1    3    3    0    0 -0.32718223284E+03  0.14693793908E+02 -0.16368558975E+04  0.16692996586E+04  0.00000000000E+00 0. -1.
        -11    1    3    3    0    0 -0.90431434267E+02  0.50380425972E+02 -0.69952950538E+03  0.70714748145E+03  0.00000000000E+00 0.  1.
         22    1    1    2    0    0  0.41761366710E+03 -0.65074219881E+02  0.65241955619E+03  0.77735905883E+03  0.00000000000E+00 0.  1.
<mgrwt>
<rscale>  0 0.26665994E+04</rscale>
<asrwt>0</asrwt>
<pdfrwt beam="1">  1        1 0.37213630E+00 0.26665994E+04</pdfrwt>
<pdfrwt beam="2">  1       -1 0.11306464E+00 0.26665994E+04</pdfrwt>
<totfact> 0.96476132E-01</totfact>
</mgrwt>
</event>
<event>
 6    1  0.1780144E-005  0.2036498E+04  0.7818608E-02  0.8589744E-01
          1   -1    0    0  501    0  0.00000000000E+00  0.00000000000E+00  0.31287120868E+04  0.31287120868E+04  0.00000000000E+00 0. -1.
         -1   -1    0    0    0  501 -0.00000000000E+00 -0.00000000000E+00 -0.33139243698E+03  0.33139243698E+03  0.00000000000E+00 0.  1.
         23    2    1    2    0    0 -0.17969340131E+03  0.45876667687E+03  0.29115849328E+04  0.29543247919E+04  0.89171592871E+02 0.  0.
         13    1    3    3    0    0 -0.63566782966E+02  0.97986161497E+02  0.52527243526E+03  0.53810143559E+03  0.00000000000E+00 0.  1.
        -13    1    3    3    0    0 -0.11612661834E+03  0.36078051537E+03  0.23863124976E+04  0.24162233564E+04  0.00000000000E+00 0. -1.
         22    1    1    2    0    0  0.17969340131E+03 -0.45876667687E+03 -0.11426528297E+03  0.50577973187E+03  0.00000000000E+00 0.  1.
<mgrwt>
<rscale>  0 0.20364985E+04</rscale>
<asrwt>0</asrwt>
<pdfrwt beam="1">  1        1 0.48134030E+00 0.20364985E+04</pdfrwt>
<pdfrwt beam="2">  1       -1 0.50983454E-01 0.20364985E+04</pdfrwt>
<totfact> 0.17222247E+00</totfact>
</mgrwt>
</event>
<event>
 6    1  0.1780144E-005  0.3251900E+04  0.7818608E-02  0.8175243E-01
          2   -1    0    0  501    0  0.00000000000E+00  0.00000000000E+00  0.18714720569E+04  0.18714720569E+04  0.00000000000E+00 0. -1.
         -2   -1    0    0    0  501 -0.00000000000E+00 -0.00000000000E+00 -0.14126382647E+04  0.14126382647E+04  0.00000000000E+00 0.  1.
         23    2    1    2    0    0  0.12274214182E+04  0.99764261735E+03 -0.14471148534E+03  0.15911481152E+04  0.94640270084E+02 0.  0.
         13    1    3    3    0    0  0.93403816986E+03  0.79678857105E+03 -0.13886563286E+03  0.12355496727E+04  0.00000000000E+00 0.  1.
        -13    1    3    3    0    0  0.29338324838E+03  0.20085404630E+03 -0.58458524842E+01  0.35559844254E+03  0.00000000000E+00 0. -1.
         22    1    1    2    0    0 -0.12274214182E+04 -0.99764261735E+03  0.60354527755E+03  0.16929622063E+04  0.00000000000E+00 0. -1.
<mgrwt>
<rscale>  0 0.32518998E+04</rscale>
<asrwt>0</asrwt>
<pdfrwt beam="1">  1        2 0.28791878E+00 0.32518998E+04</pdfrwt>
<pdfrwt beam="2">  1       -2 0.21732896E+00 0.32518998E+04</pdfrwt>
<totfact> 0.67871743E-01</totfact>
</mgrwt>
</event>
<event>
 6    1  0.1780144E-005  0.1881811E+04  0.7818608E-02  0.8663963E-01
          2   -1    0    0  501    0  0.00000000000E+00  0.00000000000E+00  0.24126071848E+04  0.24126071848E+04  0.00000000000E+00 0. -1.
         -2   -1    0    0    0  501 -0.00000000000E+00 -0.00000000000E+00 -0.36694884460E+03  0.36694884460E+03  0.00000000000E+00 0.  1.
         23    2    1    2    0    0 -0.34951398921E+03  0.78431595870E+03  0.46540855135E+03  0.98108419283E+03  0.92787510140E+02 0.  0.
         11    1    3    3    0    0 -0.33750542454E+02  0.16541896202E+03  0.87010028653E+02  0.18992966382E+03  0.00000000000E+00 0. -1.
        -11    1    3    3    0    0 -0.31576344676E+03  0.61889699668E+03  0.37839852269E+03  0.79115452901E+03  0.00000000000E+00 0.  1.
         22    1    1    2    0    0  0.34951398921E+03 -0.78431595870E+03  0.15802497888E+04  0.17984718365E+04  0.00000000000E+00 0.  1.
<mgrwt>
<rscale>  0 0.18818113E+04</rscale>
<asrwt>0</asrwt>
<pdfrwt beam="1">  1        2 0.37117033E+00 0.18818113E+04</pdfrwt>
<pdfrwt beam="2">  1       -2 0.56453670E-01 0.18818113E+04</pdfrwt>
<totfact> 0.10803571E+01</totfact>
</mgrwt>
</event>
<event>
 6    1  0.1780144E-005  0.7526359E+03  0.7818608E-02  0.9631224E-01
         -2   -1    0    0    0  501 -0.00000000000E+00  0.00000000000E+00  0.20695653742E+03  0.20695653742E+03  0.00000000000E+00 0. -1.
          2   -1    0    0  501    0  0.00000000000E+00 -0.00000000000E+00 -0.68427509382E+03  0.68427509382E+03  0.00000000000E+00 0.  1.
         23    2    1    2    0    0  0.68212748940E+02  0.92675189474E+02  0.17478222246E+03  0.22905560053E+03  0.93144903152E+02 0.  0.
         11    1    3    3    0    0  0.58379498425E+02  0.15633325042E+02  0.11888601025E+03  0.13336585066E+03  0.00000000000E+00 0.  1.
        -11    1    3    3    0    0  0.98332505145E+01  0.77041864432E+02  0.55896212207E+02  0.95689749869E+02  0.00000000000E+00 0. -1.
         22    1    1    2    0    0 -0.68212748940E+02 -0.92675189474E+02 -0.65210077886E+03  0.66217603071E+03  0.00000000000E+00 0.  1.
<mgrwt>
<rscale>  0 0.75263591E+03</rscale>
<asrwt>0</asrwt>
<pdfrwt beam="1">  1        2 0.10527309E+00 0.75263591E+03</pdfrwt>
<pdfrwt beam="2">  1       -2 0.31839467E-01 0.75263591E+03</pdfrwt>
<totfact> 0.38889271E+02</totfact>
</mgrwt>
</event>
<event>
 6    1  0.1780144E-005  0.2890112E+04  0.7818608E-02  0.8275825E-01
          1   -1    0    0  501    0  0.00000000000E+00  0.00000000000E+00  0.18709647348E+04  0.18709647348E+04  0.00000000000E+00 0. -1.
         -1   -1    0    0    0  501 -0.00000000000E+00 -0.00000000000E+00 -0.11161017173E+04  0.11161017173E+04  0.00000000000E+00 0.  1.
         23    2    1    2    0    0  0.62085642352E+03  0.97294788987E+03 -0.51841746385E+03  0.12685399091E+04  0.91359394989E+02 0.  0.
         11    1    3    3    0    0  0.11819601644E+03  0.17231533646E+03 -0.56974464070E+02  0.21658477103E+03  0.00000000000E+00 0.  1.
        -11    1    3    3    0    0  0.50266040707E+03  0.80063255340E+03 -0.46144299978E+03  0.10519551380E+04  0.00000000000E+00 0. -1.
         22    1    1    2    0    0 -0.62085642352E+03 -0.97294788987E+03  0.12732804813E+04  0.17185265430E+04  0.00000000000E+00 0. -1.
<mgrwt>
<rscale>  0 0.28901121E+04</rscale>
<asrwt>0</asrwt>
<pdfrwt beam="1">  1        1 0.28784073E+00 0.28901121E+04</pdfrwt>
<pdfrwt beam="2">  1       -1 0.17170796E+00 0.28901121E+04</pdfrwt>
<totfact> 0.74876988E-01</totfact>
</mgrwt>
</event>
<event>
 6    1  0.1780144E-005  0.3536442E+04  0.7818608E-02  0.8105208E-01
          2   -1    0    0  501    0  0.00000000000E+00  0.00000000000E+00  0.12855360821E+04  0.12855360821E+04  0.00000000000E+00 0. -1.
         -2   -1    0    0    0  501 -0.00000000000E+00 -0.00000000000E+00 -0.24321408307E+04  0.24321408307E+04  0.00000000000E+00 0.  1.
         23    2    1    2    0    0  0.53355519929E+03  0.73195893049E+03 -0.21686506190E+04  0.23520185412E+04  0.92199156002E+02 0.  0.
         13    1    3    3    0    0  0.34498345637E+03  0.50689566377E+03 -0.13642727266E+04  0.14957262021E+04  0.00000000000E+00 0.  1.
        -13    1    3    3    0    0  0.18857174292E+03  0.22506326672E+03 -0.80437789243E+03  0.85629233915E+03  0.00000000000E+00 0. -1.
         22    1    1    2    0    0 -0.53355519929E+03 -0.73195893049E+03  0.10220458704E+04  0.13656583716E+04  0.00000000000E+00 0. -1.
<mgrwt>
<rscale>  0 0.35364416E+04</rscale>
<asrwt>0</asrwt>
<pdfrwt beam="1">  1        2 0.19777478E+00 0.35364416E+04</pdfrwt>
<pdfrwt beam="2">  1       -2 0.37417551E+00 0.35364416E+04</pdfrwt>
<totfact> 0.15064957E-01</totfact>
</mgrwt>
</event>
<event>
 6    1  0.1780144E-005  0.3836772E+04  0.7818608E-02  0.8038309E-01
         -2   -1    0    0    0  501 -0.00000000000E+00  0.00000000000E+00  0.30269891567E+04  0.30269891567E+04  0.00000000000E+00 0.  1.
          2   -1    0    0  501    0  0.00000000000E+00 -0.00000000000E+00 -0.12157970644E+04  0.12157970644E+04  0.00000000000E+00 0. -1.
         23    2    1    2    0    0 -0.10542844096E+04  0.25359803583E+03  0.26545382018E+04  0.28690831089E+04  0.96110567180E+02 0.  0.
         13    1    3    3    0    0 -0.43747412337E+02  0.26975854626E+02  0.16193782342E+03  0.16989817972E+03  0.00000000000E+00 0.  1.
        -13    1    3    3    0    0 -0.10105369972E+04  0.22662218120E+03  0.24926003784E+04  0.26991849292E+04  0.00000000000E+00 0. -1.
         22    1    1    2    0    0  0.10542844096E+04 -0.25359803583E+03 -0.84334610949E+03  0.13737031122E+04  0.00000000000E+00 0. -1.
<mgrwt>
<rscale>  0 0.38367718E+04</rscale>
<asrwt>0</asrwt>
<pdfrwt beam="1">  1        2 0.18704570E+00 0.38367718E+04</pdfrwt>
<pdfrwt beam="2">  1       -2 0.46569064E+00 0.38367718E+04</pdfrwt>
<totfact> 0.40527335E-02</totfact>
</mgrwt>
</event>
<event>
 6    1  0.1780144E-005  0.1934409E+04  0.7818608E-02  0.8637916E-01
          2   -1    0    0  501    0  0.00000000000E+00  0.00000000000E+00  0.33240693329E+04  0.33240693329E+04  0.00000000000E+00 0. -1.
         -2   -1    0    0    0  501 -0.00000000000E+00 -0.00000000000E+00 -0.28142762065E+03  0.28142762065E+03  0.00000000000E+00 0.  1.
         23    2    1    2    0    0 -0.33364873418E+03  0.45783233561E+03  0.68443011069E+02  0.57782625821E+03  0.90922019128E+02 0.  0.
         13    1    3    3    0    0 -0.18881718538E+02  0.58038106374E+02 -0.13305167580E+02  0.62465739175E+02  0.00000000000E+00 0. -1.
        -13    1    3    3    0    0 -0.31476701564E+03  0.39979422924E+03  0.81748178648E+02  0.51536051903E+03  0.00000000000E+00 0.  1.
         22    1    1    2    0    0  0.33364873418E+03 -0.45783233561E+03  0.29741987012E+04  0.30276706954E+04  0.00000000000E+00 0. -1.
<mgrwt>
<rscale>  0 0.19344094E+04</rscale>
<asrwt>0</asrwt>
<pdfrwt beam="1">  1        2 0.51139525E+00 0.19344094E+04</pdfrwt>
<pdfrwt beam="2">  1       -2 0.43296559E-01 0.19344094E+04</pdfrwt>
<totfact> 0.50956418E+00</totfact>
</mgrwt>
</event>
<event>
 6    1  0.1780144E-005  0.3943128E+04  0.7818608E-02  0.8016119E-01
         -1   -1    0    0    0  501 -0.00000000000E+00  0.00000000000E+00  0.19523925316E+04  0.19523925316E+04  0.00000000000E+00 0.  1.
          1   -1    0    0  501    0  0.00000000000E+00 -0.00000000000E+00 -0.19909234414E+04  0.19909234414E+04  0.00000000000E+00 0. -1.
         23    2    1    2    0    0 -0.46118631140E+03  0.16607922741E+04  0.93577191771E+03  0.19633690567E+04  0.90692775123E+02 0.  0.
         13    1    3    3    0    0 -0.30731840808E+03  0.96003901407E+03  0.57097807417E+03  0.11585057072E+04  0.00000000000E+00 0.  1.
        -13    1    3    3    0    0 -0.15386790332E+03  0.70075326003E+03  0.36479384354E+03  0.80486334951E+03  0.00000000000E+00 0. -1.
         22    1    1    2    0    0  0.46118631140E+03 -0.16607922741E+04 -0.97430282750E+03  0.19799469163E+04  0.00000000000E+00 0. -1.
<mgrwt>
<rscale>  0 0.39431277E+04</rscale>
<asrwt>0</asrwt>
<pdfrwt beam="1">  1        1 0.30629591E+00 0.39431277E+04</pdfrwt>
<pdfrwt beam="2">  1       -1 0.30036808E+00 0.39431277E+04</pdfrwt>
<totfact> 0.78055699E-02</totfact>
</mgrwt>
</event>
<event>
 6    1  0.1780144E-005  0.1027632E+04  0.7818608E-02  0.9278747E-01
          1   -1    0    0  501    0  0.00000000000E+00  0.00000000000E+00  0.53707787570E+03  0.53707787570E+03  0.00000000000E+00 0. -1.
         -1   -1    0    0    0  501 -0.00000000000E+00 -0.00000000000E+00 -0.49156136469E+03  0.49156136469E+03  0.00000000000E+00 0.  1.
         23    2    1    2    0    0 -0.28387994566E+03 -0.21542545666E+03  0.38757608241E+03  0.53467496911E+03  0.93092169405E+02 0.  0.
         11    1    3    3    0    0 -0.36284991305E+02 -0.37069642070E+02  0.11234217887E+03  0.12373974346E+03  0.00000000000E+00 0. -1.
        -11    1    3    3    0    0 -0.24759495435E+03 -0.17835581459E+03  0.27523390354E+03  0.41093522565E+03  0.00000000000E+00 0.  1.
         22    1    1    2    0    0  0.28387994566E+03  0.21542545666E+03 -0.34205957140E+03  0.49396427129E+03  0.00000000000E+00 0.  1.
<mgrwt>
<rscale>  0 0.10276317E+04</rscale>
<asrwt>0</asrwt>
<pdfrwt beam="1">  1        1 0.82627365E-01 0.10276317E+04</pdfrwt>
<pdfrwt beam="2">  1       -1 0.75624826E-01 0.10276317E+04</pdfrwt>
<totfact> 0.70591242E+01</totfact>
</mgrwt>
</event>
<event>
 6    1  0.1780144E-005  0.2498513E+03  0.7818608E-02  0.1113399E+00
          1   -1    0    0  501    0  0.00000000000E+00  0.00000000000E+00  0.13338579857E+03  0.13338579857E+03  0.00000000000E+00 0. -1.
         -1   -1    0    0    0  501 -0.00000000000E+00 -0.00000000000E+00 -0.11700205280E+03  0.11700205280E+03  0.00000000000E+00 0.  1.
         23    2    1    2    0    0 -0.49994308877E+02 -0.35870131050E+02  0.98603588258E+02  0.14769315958E+03  0.91129054355E+02 0.  0.
         11    1    3    3    0    0  0.21481937396E+02  0.10721440038E+02  0.28509009761E+02  0.37271792932E+02  0.00000000000E+00 0.  1.
        -11    1    3    3    0    0 -0.71476246273E+02 -0.46591571089E+02  0.70094578496E+02  0.11042136665E+03  0.00000000000E+00 0. -1.
         22    1    1    2    0    0  0.49994308877E+02  0.35870131050E+02 -0.82219842490E+02  0.10269469178E+03  0.00000000000E+00 0.  1.
<mgrwt>
<rscale>  0 0.24985125E+03</rscale>
<asrwt>0</asrwt>
<pdfrwt beam="1">  1        1 0.20520892E-01 0.24985125E+03</pdfrwt>
<pdfrwt beam="2">  1       -1 0.18000316E-01 0.24985125E+03</pdfrwt>
<totfact> 0.58393460E+03</totfact>
</mgrwt>
</event>
<event>
 6    1  0.1780144E-005  0.1813287E+04  0.7818608E-02  0.8699265E-01
         -1   -1    0    0    0  501 -0.00000000000E+00  0.00000000000E+00  0.56207957145E+03  0.56207957145E+03  0.00000000000E+00 0.  1.
          1   -1    0    0  501    0  0.00000000000E+00 -0.00000000000E+00 -0.14624310671E+04  0.14624310671E+04  0.00000000000E+00 0. -1.
         23    2    1    2    0    0  0.79770345984E+03 -0.12422766287E+03  0.42011087636E+01  0.81208384233E+03  0.87745060231E+02 0.  0.
         11    1    3    3    0    0  0.23756930837E+02  0.10938878984E+02  0.37561328572E+01  0.26422705581E+02  0.00000000000E+00 0. -1.
        -11    1    3    3    0    0  0.77394652900E+03 -0.13516654185E+03  0.44497590642E+00  0.78566113675E+03  0.00000000000E+00 0.  1.
         22    1    1    2    0    0 -0.79770345984E+03  0.12422766287E+03 -0.90455260446E+03  0.12124267963E+04  0.00000000000E+00 0. -1.
<mgrwt>
<rscale>  0 0.18132872E+04</rscale>
<asrwt>0</asrwt>
<pdfrwt beam="1">  1        1 0.22498939E+00 0.18132872E+04</pdfrwt>
<pdfrwt beam="2">  1       -1 0.86473781E-01 0.18132872E+04</pdfrwt>
<totfact> 0.86353625E+00</totfact>
</mgrwt>
</event>
<event>
 6    1  0.1780144E-005  0.1314206E+04  0.7818608E-02  0.9018375E-01
          1   -1    0    0  501    0  0.00000000000E+00  0.00000000000E+00  0.10786247648E+04  0.10786247648E+04  0.00000000000E+00 0. -1.
         -1   -1    0    0    0  501 -0.00000000000E+00 -0.00000000000E+00 -0.40031011934E+03  0.40031011934E+03  0.00000000000E+00 0.  1.
         23    2    1    2    0    0  0.27483973038E+03  0.54778592538E+03  0.59740851970E+03  0.86075036585E+03  0.91585781969E+02 0.  0.
         11    1    3    3    0    0  0.18686069320E+03  0.32087015832E+03  0.30658070948E+03  0.48152498231E+03  0.00000000000E+00 0.  1.
        -11    1    3    3    0    0  0.87979037187E+02  0.22691576706E+03  0.29082781022E+03  0.37922538354E+03  0.00000000000E+00 0. -1.
         22    1    1    2    0    0 -0.27483973038E+03 -0.54778592538E+03  0.80906125751E+02  0.61818451827E+03  0.00000000000E+00 0.  1.
<mgrwt>
<rscale>  0 0.13142061E+04</rscale>
<asrwt>0</asrwt>
<pdfrwt beam="1">  1        1 0.16594227E+00 0.13142061E+04</pdfrwt>
<pdfrwt beam="2">  1       -1 0.61586173E-01 0.13142061E+04</pdfrwt>
<totfact> 0.34540055E+01</totfact>
</mgrwt>
</event>
<event>
 6    1  0.1780144E-005  0.4089067E+04  0.7818608E-02  0.7986816E-01
          1   -1    0    0  501    0  0.00000000000E+00  0.00000000000E+00  0.21799313470E+04  0.21799313470E+04  0.00000000000E+00 0. -1.
         -1   -1    0    0    0  501 -0.00000000000E+00 -0.00000000000E+00 -0.19175449743E+04  0.19175449743E+04  0.00000000000E+00 0.  1.
         23    2    1    2    0    0 -0.20263460325E+04 -0.25222195214E+03  0.21224084457E+03  0.20548777973E+04  0.88218077221E+02 0.  0.
         13    1    3    3    0    0 -0.11864823469E+03 -0.28481272693E+02 -0.31928671779E+01  0.12206056239E+03  0.00000000000E+00 0. -1.
        -13    1    3    3    0    0 -0.19076977978E+04 -0.22374067945E+03  0.21543371174E+03  0.19328172349E+04  0.00000000000E+00 0.  1.
         22    1    1    2    0    0  0.20263460325E+04  0.25222195214E+03  0.50145528130E+02  0.20425985241E+04  0.00000000000E+00 0. -1.
<mgrwt>
<rscale>  0 0.40890666E+04</rscale>
<asrwt>0</asrwt>
<pdfrwt beam="1">  1        1 0.33537405E+00 0.40890666E+04</pdfrwt>
<pdfrwt beam="2">  1       -1 0.29500692E+00 0.40890666E+04</pdfrwt>
<totfact> 0.62156313E-02</totfact>
</mgrwt>
</event>
<event>
 6    1  0.1780144E-005  0.8581369E+04  0.7818608E-02  0.7433234E-01
         -2   -1    0    0    0  501 -0.00000000000E+00  0.00000000000E+00  0.44456377943E+04  0.44456377943E+04  0.00000000000E+00 0.  1.
          2   -1    0    0  501    0  0.00000000000E+00 -0.00000000000E+00 -0.41411317198E+04  0.41411317198E+04  0.00000000000E+00 0. -1.
         23    2    1    2    0    0  0.21923906989E+04 -0.34921174564E+04 -0.10335249883E+04  0.42518198684E+04  0.91307094392E+02 0.  0.
         11    1    3    3    0    0  0.14160449600E+04 -0.22296407775E+04 -0.70485896158E+03  0.27337350788E+04  0.00000000000E+00 0. -1.
        -11    1    3    3    0    0  0.77634573891E+03 -0.12624766789E+04 -0.32866602675E+03  0.15180847896E+04  0.00000000000E+00 0.  1.
         22    1    1    2    0    0 -0.21923906989E+04  0.34921174564E+04  0.13380310629E+04  0.43349496458E+04  0.00000000000E+00 0.  1.
<mgrwt>
<rscale>  0 0.85813686E+04</rscale>
<asrwt>0</asrwt>
<pdfrwt beam="1">  1        2 0.63709718E+00 0.85813686E+04</pdfrwt>
<pdfrwt beam="2">  1       -2 0.68394428E+00 0.85813686E+04</pdfrwt>
<totfact> 0.38613517E-05</totfact>
</mgrwt>
</event>
<event>
 6    1  0.1780144E-005  0.3275064E+04  0.7818608E-02  0.8169270E-01
         -1   -1    0    0    0  501 -0.00000000000E+00  0.00000000000E+00  0.14194967547E+04  0.14194967547E+04  0.00000000000E+00 0.  1.
          1   -1    0    0  501    0  0.00000000000E+00 -0.00000000000E+00 -0.18890572152E+04  0.18890572152E+04  0.00000000000E+00 0. -1.
         23    2    1    2    0    0  0.78228257165E+03  0.14366035888E+04 -0.19542234196E+03  0.16499558868E+04  0.91480289092E+02 0.  0.
         13    1    3    3    0    0  0.45814855125E+03  0.87756969963E+03 -0.15971007301E+03  0.10027641697E+04  0.00000000000E+00 0. -1.
        -13    1    3    3    0    0  0.32413402041E+03  0.55903388916E+03 -0.35712268946E+02  0.64719171701E+03  0.00000000000E+00 0.  1.
         22    1    1    2    0    0 -0.78228257165E+03 -0.14366035888E+04 -0.27413811851E+03  0.16585980831E+04  0.00000000000E+00 0.  1.
<mgrwt>
<rscale>  0 0.32750637E+04</rscale>
<asrwt>0</asrwt>
<pdfrwt beam="1">  1        1 0.29062419E+00 0.32750637E+04</pdfrwt>
<pdfrwt beam="2">  1       -1 0.21838412E+00 0.32750637E+04</pdfrwt>
<totfact> 0.33248735E-01</totfact>
</mgrwt>
</event>
<event>
 6    1  0.1780144E-005  0.1047233E+04  0.7818608E-02  0.9258206E-01
          2   -1    0    0  501    0  0.00000000000E+00  0.00000000000E+00  0.38859729593E+03  0.38859729593E+03  0.00000000000E+00 0. -1.
         -2   -1    0    0    0  501 -0.00000000000E+00 -0.00000000000E+00 -0.70554808509E+03  0.70554808509E+03  0.00000000000E+00 0.  1.
         23    2    1    2    0    0 -0.44958332567E+03  0.18599022575E+03 -0.34922764693E+03  0.60653967315E+03  0.95983826417E+02 0.  0.
         11    1    3    3    0    0 -0.66684827790E+02  0.66818892234E+02 -0.56090480068E+02  0.10980788938E+03  0.00000000000E+00 0.  1.
        -11    1    3    3    0    0 -0.38289849788E+03  0.11917133352E+03 -0.29313716686E+03  0.49673178377E+03  0.00000000000E+00 0. -1.
         22    1    1    2    0    0  0.44958332567E+03 -0.18599022575E+03  0.32276857764E+02  0.48760570786E+03  0.00000000000E+00 0. -1.
<mgrwt>
<rscale>  0 0.10472327E+04</rscale>
<asrwt>0</asrwt>
<pdfrwt beam="1">  1        2 0.59784199E-01 0.10472327E+04</pdfrwt>
<pdfrwt beam="2">  1       -2 0.10854586E+00 0.10472327E+04</pdfrwt>
<totfact> 0.55515644E+01</totfact>
</mgrwt>
</event>
<event>
 6    1  0.1780144E-005  0.1114559E+04  0.7818608E-02  0.9191117E-01
         -1   -1    0    0    0  501 -0.00000000000E+00  0.00000000000E+00  0.10635690946E+04  0.10635690946E+04  0.00000000000E+00 0.  1.
          1   -1    0    0  501    0  0.00000000000E+00 -0.00000000000E+00 -0.29199828050E+03  0.29199828050E+03  0.00000000000E+00 0. -1.
         23    2    1    2    0    0  0.23869886963E+03 -0.23871461947E+03 -0.14464937156E+03  0.37913445446E+03  0.94115216396E+02 0.  0.
         11    1    3    3    0    0  0.42121082805E+02 -0.84709742172E+02 -0.72531591281E+02  0.11920888293E+03  0.00000000000E+00 0.  1.
        -11    1    3    3    0    0  0.19657778683E+03 -0.15400487729E+03 -0.72117780279E+02  0.25992557153E+03  0.00000000000E+00 0. -1.
         22    1    1    2    0    0 -0.23869886963E+03  0.23871461947E+03  0.91622018567E+03  0.97643292066E+03  0.00000000000E+00 0.  1.
<mgrwt>
<rscale>  0 0.11145588E+04</rscale>
<asrwt>0</asrwt>
<pdfrwt beam="1">  1        1 0.44922813E-01 0.11145588E+04</pdfrwt>
<pdfrwt beam="2">  1       -1 0.16362601E+00 0.11145588E+04</pdfrwt>
<totfact> 0.24814585E+01</totfact>
</mgrwt>
</event>
<event>
 6    1  0.1780144E-005  0.3085946E+04  0.7818608E-02  0.8219605E-01
          1   -1    0    0  501    0  0.00000000000E+00  0.00000000000E+00  0.90607395692E+03  0.90607395692E+03  0.00000000000E+00 0. -1.
         -1   -1    0    0    0  501 -0.00000000000E+00 -0.00000000000E+00 -0.26275628199E+04  0.26275628199E+04  0.00000000000E+00 0.  1.
         23    2    1    2    0    0 -0.15327042045E+04 -0.14999665367E+03 -0.93889302679E+03  0.18061711716E+04  0.95147310620E+02 0.  0.
         11    1    3    3    0    0 -0.11347222150E+04 -0.13078784115E+03 -0.73843469008E+03  0.13601418147E+04  0.00000000000E+00 0. -1.
        -11    1    3    3    0    0 -0.39798198944E+03 -0.19208812528E+02 -0.20045833671E+03  0.44602935683E+03  0.00000000000E+00 0.  1.
         22    1    1    2    0    0  0.15327042045E+04  0.14999665367E+03 -0.78259583621E+03  0.17274656053E+04  0.00000000000E+00 0. -1.
<mgrwt>
<rscale>  0 0.30859464E+04</rscale>
<asrwt>0</asrwt>
<pdfrwt beam="1">  1        1 0.13939600E+00 0.30859464E+04</pdfrwt>
<pdfrwt beam="2">  1       -1 0.40424043E+00 0.30859464E+04</pdfrwt>
<totfact> 0.10161079E-01</totfact>
</mgrwt>
</event>
<event>
 6    1  0.1780144E-005  0.2813078E+04  0.7818608E-02  0.8299220E-01
          2   -1    0    0  501    0  0.00000000000E+00  0.00000000000E+00  0.21896512551E+04  0.21896512551E+04  0.00000000000E+00 0. -1.
         -2   -1    0    0    0  501 -0.00000000000E+00 -0.00000000000E+00 -0.90350106514E+03  0.90350106514E+03  0.00000000000E+00 0.  1.
         23    2    1    2    0    0  0.41604467275E+03  0.95456699494E+03  0.16812521777E+04  0.19794212494E+04  0.84901589803E+02 0.  0.
         11    1    3    3    0    0  0.20089725637E+03  0.53977627818E+03  0.87468529879E+03  0.10472786210E+04  0.00000000000E+00 0.  1.
        -11    1    3    3    0    0  0.21514741637E+03  0.41479071676E+03  0.80656687891E+03  0.93214262838E+03  0.00000000000E+00 0. -1.
         22    1    1    2    0    0 -0.41604467275E+03 -0.95456699494E+03 -0.39510198771E+03  0.11137310709E+04  0.00000000000E+00 0.  1.
<mgrwt>
<rscale>  0 0.28130782E+04</rscale>
<asrwt>0</asrwt>
<pdfrwt beam="1">  1        2 0.33686942E+00 0.28130782E+04</pdfrwt>
<pdfrwt beam="2">  1       -2 0.13900016E+00 0.28130782E+04</pdfrwt>
<totfact> 0.16645143E+00</totfact>
</mgrwt>
</event>
<event>
 6    1  0.1780144E-005  0.2963837E+04  0.7818608E-02  0.8254134E-01
          2   -1    0    0  501    0  0.00000000000E+00  0.00000000000E+00  0.22118142691E+04  0.22118142691E+04  0.00000000000E+00 0.  1.
         -2   -1    0    0    0  501 -0.00000000000E+00 -0.00000000000E+00 -0.99288723364E+03  0.99288723364E+03  0.00000000000E+00 0. -1.
         23    2    1    2    0    0 -0.89251577808E+03  0.87518848110E+03 -0.24791512023E+03  0.12774845452E+04  0.89250013368E+02 0.  0.
         13    1    3    3    0    0 -0.57696774651E+03  0.50498654452E+03 -0.14881071693E+03  0.78105558069E+03  0.00000000000E+00 0.  1.
        -13    1    3    3    0    0 -0.31554803157E+03  0.37020193659E+03 -0.99104403293E+02  0.49642896454E+03  0.00000000000E+00 0. -1.
         22    1    1    2    0    0  0.89251577808E+03 -0.87518848110E+03  0.14668421556E+04  0.19272169575E+04  0.00000000000E+00 0.  1.
<mgrwt>
<rscale>  0 0.29638368E+04</rscale>
<asrwt>0</asrwt>
<pdfrwt beam="1">  1        2 0.34027912E+00 0.29638368E+04</pdfrwt>
<pdfrwt beam="2">  1       -2 0.15275188E+00 0.29638368E+04</pdfrwt>
<totfact> 0.12463232E+00</totfact>
</mgrwt>
</event>
<event>
 6    1  0.1780144E-005  0.2123092E+04  0.7818608E-02  0.8551139E-01
          2   -1    0    0  501    0  0.00000000000E+00  0.00000000000E+00  0.54545782658E+03  0.54545782658E+03  0.00000000000E+00 0. -1.
         -2   -1    0    0    0  501 -0.00000000000E+00 -0.00000000000E+00 -0.20659347227E+04  0.20659347227E+04  0.00000000000E+00 0.  1.
         23    2    1    2    0    0  0.95154958593E+03  0.37270573674E+03 -0.41758862342E+03  0.11078238868E+04  0.92397646499E+02 0.  0.
         11    1    3    3    0    0  0.89242727280E+03  0.32589779211E+03 -0.37654813136E+03  0.10219707938E+04  0.00000000000E+00 0. -1.
        -11    1    3    3    0    0  0.59122313132E+02  0.46807944633E+02 -0.41040492063E+02  0.85853093011E+02  0.00000000000E+00 0.  1.
         22    1    1    2    0    0 -0.95154958593E+03 -0.37270573674E+03 -0.11028882727E+04  0.15035686625E+04  0.00000000000E+00 0.  1.
<mgrwt>
<rscale>  0 0.21230923E+04</rscale>
<asrwt>0</asrwt>
<pdfrwt beam="1">  1        2 0.83916588E-01 0.21230923E+04</pdfrwt>
<pdfrwt beam="2">  1       -2 0.31783611E+00 0.21230923E+04</pdfrwt>
<totfact> 0.12641323E+00</totfact>
</mgrwt>
</event>
<event>
 6    1  0.1780144E-005  0.7652627E+03  0.7818608E-02  0.9611705E-01
         -2   -1    0    0    0  501 -0.00000000000E+00  0.00000000000E+00  0.19147741729E+03  0.19147741729E+03  0.00000000000E+00 0.  1.
          2   -1    0    0  501    0  0.00000000000E+00 -0.00000000000E+00 -0.76461624057E+03  0.76461624057E+03  0.00000000000E+00 0. -1.
         23    2    1    2    0    0 -0.70721205616E+02 -0.21558969059E+03  0.86035605716E+02  0.25896287281E+03  0.90439153183E+02 0.  0.
         13    1    3    3    0    0  0.19476404015E+02 -0.36751449087E+02  0.28996346109E+02  0.50702932963E+02  0.00000000000E+00 0.  1.
        -13    1    3    3    0    0 -0.90197609630E+02 -0.17883824151E+03  0.57039259607E+02  0.20825993984E+03  0.00000000000E+00 0. -1.
         22    1    1    2    0    0  0.70721205616E+02  0.21558969059E+03 -0.65917442900E+03  0.69713078505E+03  0.00000000000E+00 0. -1.
<mgrwt>
<rscale>  0 0.76526268E+03</rscale>
<asrwt>0</asrwt>
<pdfrwt beam="1">  1        2 0.11763327E+00 0.76526268E+03</pdfrwt>
<pdfrwt beam="2">  1       -2 0.29458064E-01 0.76526268E+03</pdfrwt>
<totfact> 0.38988934E+02</totfact>
</mgrwt>
</event>
<event>
 6    1  0.1780144E-005  0.3083690E+04  0.7818608E-02  0.8220228E-01
         -1   -1    0    0    0  501 -0.00000000000E+00  0.00000000000E+00  0.97284084436E+03  0.97284084436E+03  0.00000000000E+00 0.  1.
          1   -1    0    0  501    0  0.00000000000E+00 -0.00000000000E+00 -0.24436533095E+04  0.24436533095E+04  0.00000000000E+00 0. -1.
         23    2    1    2    0    0  0.12072352862E+04 -0.64667772030E+03  0.45776018418E+02  0.13730534920E+04  0.87013434227E+02 0.  0.
         13    1    3    3    0    0  0.59448299631E+03 -0.30087402480E+03 -0.18394599498E+02  0.66653850076E+03  0.00000000000E+00 0.  1.
        -13    1    3    3    0    0  0.61275228990E+03 -0.34580369551E+03  0.64170617916E+02  0.70651499121E+03  0.00000000000E+00 0. -1.
         22    1    1    2    0    0 -0.12072352862E+04  0.64667772030E+03 -0.15165884836E+04  0.20434406619E+04  0.00000000000E+00 0. -1.
<mgrwt>
<rscale>  0 0.30836898E+04</rscale>
<asrwt>0</asrwt>
<pdfrwt beam="1">  1        1 0.37594666E+00 0.30836898E+04</pdfrwt>
<pdfrwt beam="2">  1       -1 0.14966782E+00 0.30836898E+04</pdfrwt>
<totfact> 0.43945690E-01</totfact>
</mgrwt>
</event>
<event>
 6    1  0.1780144E-005  0.2352228E+04  0.7818608E-02  0.8457608E-01
         -2   -1    0    0    0  501 -0.00000000000E+00  0.00000000000E+00  0.43739116151E+03  0.43739116151E+03  0.00000000000E+00 0.  1.
          2   -1    0    0  501    0  0.00000000000E+00 -0.00000000000E+00 -0.31624884692E+04  0.31624884692E+04  0.00000000000E+00 0. -1.
         23    2    1    2    0    0 -0.16570216242E+03  0.97590849343E+03 -0.23316338068E+04  0.25346716131E+04  0.90495211396E+02 0.  0.
         13    1    3    3    0    0 -0.11102325936E+03  0.42161942413E+03 -0.96674656211E+03  0.10605130920E+04  0.00000000000E+00 0. -1.
        -13    1    3    3    0    0 -0.54678903056E+02  0.55428906931E+03 -0.13648872446E+04  0.14741585211E+04  0.00000000000E+00 0.  1.
         22    1    1    2    0    0  0.16570216242E+03 -0.97590849343E+03 -0.39346350092E+03  0.10652080176E+04  0.00000000000E+00 0.  1.
<mgrwt>
<rscale>  0 0.23522283E+04</rscale>
<asrwt>0</asrwt>
<pdfrwt beam="1">  1        2 0.48653669E+00 0.23522283E+04</pdfrwt>
<pdfrwt beam="2">  1       -2 0.67290948E-01 0.23522283E+04</pdfrwt>
<totfact> 0.25111565E+00</totfact>
</mgrwt>
</event>
<event>
 6    1  0.1780144E-005  0.3328815E+04  0.7818608E-02  0.8155602E-01
          1   -1    0    0  501    0  0.00000000000E+00  0.00000000000E+00  0.14203392326E+04  0.14203392326E+04  0.00000000000E+00 0. -1.
         -1   -1    0    0    0  501 -0.00000000000E+00 -0.00000000000E+00 -0.19504164368E+04  0.19504164368E+04  0.00000000000E+00 0.  1.
         23    2    1    2    0    0  0.42594478873E+03 -0.15308520028E+04  0.23202402036E+03  0.16084460785E+04  0.91251432295E+02 0.  0.
         11    1    3    3    0    0  0.22681638490E+03 -0.97117817781E+03  0.15966002705E+03  0.10100119057E+04  0.00000000000E+00 0. -1.
        -11    1    3    3    0    0  0.19912840383E+03 -0.55967382502E+03  0.72363993309E+02  0.59843417278E+03  0.00000000000E+00 0.  1.
         22    1    1    2    0    0 -0.42594478873E+03  0.15308520028E+04 -0.76210122462E+03  0.17623095909E+04  0.00000000000E+00 0.  1.
<mgrwt>
<rscale>  0 0.33288154E+04</rscale>
<asrwt>0</asrwt>
<pdfrwt beam="1">  1        1 0.21851373E+00 0.33288154E+04</pdfrwt>
<pdfrwt beam="2">  1       -1 0.30006407E+00 0.33288154E+04</pdfrwt>
<totfact> 0.20297174E-01</totfact>
</mgrwt>
</event>
<event>
 6    1  0.1780144E-005  0.1617748E+04  0.7818608E-02  0.8809718E-01
          2   -1    0    0  501    0  0.00000000000E+00  0.00000000000E+00  0.21569181402E+04  0.21569181402E+04  0.00000000000E+00 0. -1.
         -2   -1    0    0    0  501 -0.00000000000E+00 -0.00000000000E+00 -0.30333897247E+03  0.30333897247E+03  0.00000000000E+00 0.  1.
         23    2    1    2    0    0  0.74688255071E+03  0.61574393933E+02  0.47800800502E+03  0.89378943851E+03  0.93503780550E+02 0.  0.
         13    1    3    3    0    0  0.10529010930E+03  0.35313033802E+02  0.94747985790E+02  0.14598012976E+03  0.00000000000E+00 0.  1.
        -13    1    3    3    0    0  0.64159244141E+03  0.26261360131E+02  0.38326001923E+03  0.74780930875E+03  0.00000000000E+00 0. -1.
         22    1    1    2    0    0 -0.74688255071E+03 -0.61574393933E+02  0.13755711627E+04  0.15664676742E+04  0.00000000000E+00 0. -1.
<mgrwt>
<rscale>  0 0.16177482E+04</rscale>
<asrwt>0</asrwt>
<pdfrwt beam="1">  1        2 0.33183355E+00 0.16177482E+04</pdfrwt>
<pdfrwt beam="2">  1       -2 0.46667536E-01 0.16177482E+04</pdfrwt>
<totfact> 0.22773123E+01</totfact>
</mgrwt>
</event>
<event>
 6    1  0.1780144E-005  0.2898576E+04  0.7818608E-02  0.8273301E-01
         -2   -1    0    0    0  501 -0.00000000000E+00  0.00000000000E+00  0.97174041141E+03  0.97174041141E+03  0.00000000000E+00 0.  1.
          2   -1    0    0  501    0  0.00000000000E+00 -0.00000000000E+00 -0.21615198041E+04  0.21615198041E+04  0.00000000000E+00 0. -1.
         23    2    1    2    0    0 -0.34381820920E+03  0.81712036553E+02  0.92227005790E+03  0.99184930220E+03  0.91077772633E+02 0.  0.
         13    1    3    3    0    0 -0.67953003713E+02  0.26997258736E+02  0.30318446081E+03  0.31187702699E+03  0.00000000000E+00 0.  1.
        -13    1    3    3    0    0 -0.27586520549E+03  0.54714777817E+02  0.61908559710E+03  0.67997227520E+03  0.00000000000E+00 0. -1.
         22    1    1    2    0    0  0.34381820920E+03 -0.81712036553E+02 -0.21120494506E+04  0.21414109133E+04  0.00000000000E+00 0. -1.
<mgrwt>
<rscale>  0 0.28985763E+04</rscale>
<asrwt>0</asrwt>
<pdfrwt beam="1">  1        2 0.33254151E+00 0.28985763E+04</pdfrwt>
<pdfrwt beam="2">  1       -2 0.14949853E+00 0.28985763E+04</pdfrwt>
<totfact> 0.14161818E+00</totfact>
</mgrwt>
</event>
<event>
 6    1  0.1780144E-005  0.2450163E+04  0.7818608E-02  0.8420958E-01
         -2   -1    0    0    0  501 -0.00000000000E+00  0.00000000000E+00  0.11522357340E+04  0.11522357340E+04  0.00000000000E+00 0.  1.
          2   -1    0    0  501    0  0.00000000000E+00 -0.00000000000E+00 -0.13025326923E+04  0.13025326923E+04  0.00000000000E+00 0. -1.
         23    2    1    2    0    0 -0.85117668020E+02  0.29491221871E+03  0.11108592254E+04  0.11567957170E+04  0.99749075682E+02 0.  0.
         13    1    3    3    0    0  0.20125955344E+01  0.13951167524E+03  0.38865750249E+03  0.41294335242E+03  0.00000000000E+00 0.  1.
        -13    1    3    3    0    0 -0.87130263555E+02  0.15540054348E+03  0.72220172293E+03  0.74385236462E+03  0.00000000000E+00 0. -1.
         22    1    1    2    0    0  0.85117668020E+02 -0.29491221871E+03 -0.12611561837E+04  0.12979727093E+04  0.00000000000E+00 0. -1.
<mgrwt>
<rscale>  0 0.24501630E+04</rscale>
<asrwt>0</asrwt>
<pdfrwt beam="1">  1        2 0.20038964E+00 0.24501630E+04</pdfrwt>
<pdfrwt beam="2">  1       -2 0.17726704E+00 0.24501630E+04</pdfrwt>
<totfact> 0.27950707E+00</totfact>
</mgrwt>
</event>
<event>
 6    1  0.1780144E-005  0.2792317E+04  0.7818608E-02  0.8305658E-01
         -2   -1    0    0    0  501 -0.00000000000E+00  0.00000000000E+00  0.72890170436E+03  0.72890170436E+03  0.00000000000E+00 0.  1.
          2   -1    0    0  501    0  0.00000000000E+00 -0.00000000000E+00 -0.26742399123E+04  0.26742399123E+04  0.00000000000E+00 0. -1.
         23    2    1    2    0    0 -0.89044875672E+03 -0.43822722495E+03  0.21988473533E+03  0.10213077679E+04  0.98884634401E+02 0.  0.
         11    1    3    3    0    0 -0.28197988604E+03 -0.12031418306E+03  0.24613402572E+02  0.30756134081E+03  0.00000000000E+00 0.  1.
        -11    1    3    3    0    0 -0.60846887068E+03 -0.31791304188E+03  0.19527133276E+03  0.71374642709E+03  0.00000000000E+00 0. -1.
         22    1    1    2    0    0  0.89044875672E+03  0.43822722495E+03 -0.21652229433E+04  0.23818338488E+04  0.00000000000E+00 0. -1.
<mgrwt>
<rscale>  0 0.27923166E+04</rscale>
<asrwt>0</asrwt>
<pdfrwt beam="1">  1        2 0.41142152E+00 0.27923166E+04</pdfrwt>
<pdfrwt beam="2">  1       -2 0.11213872E+00 0.27923166E+04</pdfrwt>
<totfact> 0.15013308E+00</totfact>
</mgrwt>
</event>
<event>
 6    1  0.1780144E-005  0.3271447E+04  0.7818608E-02  0.8170199E-01
          2   -1    0    0  501    0  0.00000000000E+00  0.00000000000E+00  0.18451482272E+04  0.18451482272E+04  0.00000000000E+00 0. -1.
         -2   -1    0    0    0  501 -0.00000000000E+00 -0.00000000000E+00 -0.14500683980E+04  0.14500683980E+04  0.00000000000E+00 0.  1.
         23    2    1    2    0    0  0.15733437779E+04 -0.41995449856E+03  0.33856213538E+03  0.16658097779E+04  0.92333484207E+02 0.  0.
         13    1    3    3    0    0  0.49996353642E+03 -0.16983699249E+03  0.13537773227E+03  0.54510115773E+03  0.00000000000E+00 0.  1.
        -13    1    3    3    0    0  0.10733802415E+04 -0.25011750607E+03  0.20318440311E+03  0.11207086202E+04  0.00000000000E+00 0. -1.
         22    1    1    2    0    0 -0.15733437779E+04  0.41995449856E+03  0.56517693804E+02  0.16294068473E+04  0.00000000000E+00 0. -1.
<mgrwt>
<rscale>  0 0.32714469E+04</rscale>
<asrwt>0</asrwt>
<pdfrwt beam="1">  1        2 0.28386896E+00 0.32714469E+04</pdfrwt>
<pdfrwt beam="2">  1       -2 0.22308745E+00 0.32714469E+04</pdfrwt>
<totfact> 0.64433302E-01</totfact>
</mgrwt>
</event>
<event>
 6    1  0.1780144E-005  0.3811621E+04  0.7818608E-02  0.8043666E-01
          2   -1    0    0  501    0  0.00000000000E+00  0.00000000000E+00  0.18067422392E+04  0.18067422392E+04  0.00000000000E+00 0. -1.
         -2   -1    0    0    0  501 -0.00000000000E+00 -0.00000000000E+00 -0.20103114089E+04  0.20103114089E+04  0.00000000000E+00 0.  1.
         23    2    1    2    0    0 -0.13557213172E+04  0.12367981057E+04 -0.61289182644E+03  0.19368422554E+04  0.89842568203E+02 0.  0.
         13    1    3    3    0    0 -0.88921073380E+03  0.77613662659E+03 -0.35764799977E+03  0.12332866187E+04  0.00000000000E+00 0. -1.
        -13    1    3    3    0    0 -0.46651058341E+03  0.46066147909E+03 -0.25524382666E+03  0.70355563661E+03  0.00000000000E+00 0.  1.
         22    1    1    2    0    0  0.13557213172E+04 -0.12367981057E+04  0.40932265666E+03  0.18802113927E+04  0.00000000000E+00 0. -1.
<mgrwt>
<rscale>  0 0.38116215E+04</rscale>
<asrwt>0</asrwt>
<pdfrwt beam="1">  1        2 0.27796035E+00 0.38116215E+04</pdfrwt>
<pdfrwt beam="2">  1       -2 0.30927868E+00 0.38116215E+04</pdfrwt>
<totfact> 0.19103297E-01</totfact>
</mgrwt>
</event>
<event>
 6    1  0.1780144E-005  0.7850482E+03  0.7818608E-02  0.9581915E-01
          1   -1    0    0  501    0  0.00000000000E+00  0.00000000000E+00  0.10937289062E+03  0.10937289062E+03  0.00000000000E+00 0. -1.
         -1   -1    0    0    0  501 -0.00000000000E+00 -0.00000000000E+00 -0.14087142592E+04  0.14087142592E+04  0.00000000000E+00 0.  1.
         23    2    1    2    0    0  0.48738794446E+02  0.21514085659E+02 -0.14000785678E+04  0.14041296610E+04  0.92313503946E+02 0.  0.
         11    1    3    3    0    0 -0.92361572857E+01 -0.23149528631E+02 -0.16364965643E+03  0.16553675521E+03  0.00000000000E+00 0.  1.
        -11    1    3    3    0    0  0.57974951731E+02  0.44663614290E+02 -0.12364289113E+04  0.12385929058E+04  0.00000000000E+00 0. -1.
         22    1    1    2    0    0 -0.48738794446E+02 -0.21514085659E+02  0.10073719917E+03  0.11395748884E+03  0.00000000000E+00 0. -1.
<mgrwt>
<rscale>  0 0.78504815E+03</rscale>
<asrwt>0</asrwt>
<pdfrwt beam="1">  1        1 0.16826599E-01 0.78504815E+03</pdfrwt>
<pdfrwt beam="2">  1       -1 0.21672526E+00 0.78504815E+03</pdfrwt>
<totfact> 0.39116679E+01</totfact>
</mgrwt>
</event>
<event>
 6    1  0.1780144E-005  0.1677398E+04  0.7818608E-02  0.8774361E-01
         -1   -1    0    0    0  501 -0.00000000000E+00  0.00000000000E+00  0.42644464055E+03  0.42644464055E+03  0.00000000000E+00 0.  1.
          1   -1    0    0  501    0  0.00000000000E+00 -0.00000000000E+00 -0.16494906042E+04  0.16494906042E+04  0.00000000000E+00 0. -1.
         23    2    1    2    0    0 -0.24591443292E+03 -0.55590041195E+03  0.96787667287E+02  0.62284887784E+03  0.95255948701E+02 0.  0.
         11    1    3    3    0    0 -0.54145316436E+02 -0.15382626345E+03 -0.14416584374E+02  0.16371338529E+03  0.00000000000E+00 0.  1.
        -11    1    3    3    0    0 -0.19176911649E+03 -0.40207414850E+03  0.11120425166E+03  0.45913549255E+03  0.00000000000E+00 0. -1.
         22    1    1    2    0    0  0.24591443292E+03  0.55590041195E+03 -0.13198336309E+04  0.14530863669E+04  0.00000000000E+00 0. -1.
<mgrwt>
<rscale>  0 0.16773985E+04</rscale>
<asrwt>0</asrwt>
<pdfrwt beam="1">  1        1 0.25376779E+00 0.16773985E+04</pdfrwt>
<pdfrwt beam="2">  1       -1 0.65606867E-01 0.16773985E+04</pdfrwt>
<totfact> 0.11586431E+01</totfact>
</mgrwt>
</event>
<event>
 6    1  0.1780144E-005  0.2408094E+04  0.7818608E-02  0.8436479E-01
          2   -1    0    0  501    0  0.00000000000E+00  0.00000000000E+00  0.27885688476E+04  0.27885688476E+04  0.00000000000E+00 0. -1.
         -2   -1    0    0    0  501 -0.00000000000E+00 -0.00000000000E+00 -0.51988301769E+03  0.51988301769E+03  0.00000000000E+00 0.  1.
         23    2    1    2    0    0  0.70050399086E+03  0.25655467468E+03  0.24312594501E+04  0.25449360998E+04  0.95661360913E+02 0.  0.
         13    1    3    3    0    0  0.33662393235E+03  0.11093264022E+03  0.99866840923E+03  0.10596982184E+04  0.00000000000E+00 0. -1.
        -13    1    3    3    0    0  0.36388005851E+03  0.14562203446E+03  0.14325910408E+04  0.14852378814E+04  0.00000000000E+00 0.  1.
         22    1    1    2    0    0 -0.70050399086E+03 -0.25655467468E+03 -0.16257362013E+03  0.76351576557E+03  0.00000000000E+00 0.  1.
<mgrwt>
<rscale>  0 0.24080943E+04</rscale>
<asrwt>0</asrwt>
<pdfrwt beam="1">  1        2 0.42901058E+00 0.24080943E+04</pdfrwt>
<pdfrwt beam="2">  1       -2 0.79982004E-01 0.24080943E+04</pdfrwt>
<totfact> 0.29203406E+00</totfact>
</mgrwt>
</event>
<event>
 6    1  0.1780144E-005  0.1798448E+04  0.7818608E-02  0.8707125E-01
         -2   -1    0    0    0  501 -0.00000000000E+00  0.00000000000E+00  0.41368342119E+03  0.41368342119E+03  0.00000000000E+00 0.  1.
          2   -1    0    0  501    0  0.00000000000E+00 -0.00000000000E+00 -0.19546449962E+04  0.19546449962E+04  0.00000000000E+00 0. -1.
         23    2    1    2    0    0  0.37685464392E+03 -0.39469641606E+03  0.16530013986E+03  0.57692290127E+03  0.87813519913E+02 0.  0.
         11    1    3    3    0    0  0.33073193597E+03 -0.33545427314E+03  0.11020121158E+03  0.48379488409E+03  0.00000000000E+00 0.  1.
        -11    1    3    3    0    0  0.46122707953E+02 -0.59242142918E+02  0.55098928284E+02  0.93128017183E+02  0.00000000000E+00 0. -1.
         22    1    1    2    0    0 -0.37685464392E+03  0.39469641606E+03 -0.17062617149E+04  0.17914055162E+04  0.00000000000E+00 0. -1.
<mgrwt>
<rscale>  0 0.17984485E+04</rscale>
<asrwt>0</asrwt>
<pdfrwt beam="1">  1        2 0.30071463E+00 0.17984485E+04</pdfrwt>
<pdfrwt beam="2">  1       -2 0.63643601E-01 0.17984485E+04</pdfrwt>
<totfact> 0.15271296E+01</totfact>
</mgrwt>
</event>
<event>
 6    1  0.1780144E-005  0.5798314E+04  0.7818608E-02  0.7715924E-01
         -2   -1    0    0    0  501 -0.00000000000E+00  0.00000000000E+00  0.24508732043E+04  0.24508732043E+04  0.00000000000E+00 0.  1.
          2   -1    0    0  501    0  0.00000000000E+00 -0.00000000000E+00 -0.34294359238E+04  0.34294359238E+04  0.00000000000E+00 0. -1.
         23    2    1    2    0    0  0.14005998871E+04  0.24706809788E+04  0.97719566345E+02  0.28431512294E+04  0.89527966495E+02 0.  0.
         11    1    3    3    0    0  0.43241160354E+03  0.73523614319E+03  0.68116148761E+02  0.85568206178E+03  0.00000000000E+00 0. -1.
        -11    1    3    3    0    0  0.96818828353E+03  0.17354448356E+04  0.29603417584E+02  0.19874691676E+04  0.00000000000E+00 0.  1.
         22    1    1    2    0    0 -0.14005998871E+04 -0.24706809788E+04 -0.10762822859E+04  0.30371578987E+04  0.00000000000E+00 0.  1.
<mgrwt>
<rscale>  0 0.57983144E+04</rscale>
<asrwt>0</asrwt>
<pdfrwt beam="1">  1        2 0.52760553E+00 0.57983144E+04</pdfrwt>
<pdfrwt beam="2">  1       -2 0.37705742E+00 0.57983144E+04</pdfrwt>
<totfact> 0.64995169E-03</totfact>
</mgrwt>
</event>
<event>
 6    1  0.1780144E-005  0.2549966E+04  0.7818608E-02  0.8385398E-01
         -2   -1    0    0    0  501 -0.00000000000E+00  0.00000000000E+00  0.62059971236E+03  0.62059971236E+03  0.00000000000E+00 0.  1.
          2   -1    0    0  501    0  0.00000000000E+00 -0.00000000000E+00 -0.26193724839E+04  0.26193724839E+04  0.00000000000E+00 0. -1.
         23    2    1    2    0    0  0.12793364612E+03  0.10279158780E+04 -0.59028675420E+02  0.10409757823E+04  0.84664778554E+02 0.  0.
         11    1    3    3    0    0 -0.13966633690E+01  0.13234306905E+03  0.14436298844E+02  0.13313543976E+03  0.00000000000E+00 0. -1.
        -11    1    3    3    0    0  0.12933030949E+03  0.89557280898E+03 -0.73464974264E+02  0.90784034256E+03  0.00000000000E+00 0.  1.
         22    1    1    2    0    0 -0.12793364612E+03 -0.10279158780E+04 -0.19397440961E+04  0.21989964139E+04  0.00000000000E+00 0. -1.
<mgrwt>
<rscale>  0 0.25499661E+04</rscale>
<asrwt>0</asrwt>
<pdfrwt beam="1">  1        2 0.40298038E+00 0.25499661E+04</pdfrwt>
<pdfrwt beam="2">  1       -2 0.95476880E-01 0.25499661E+04</pdfrwt>
<totfact> 0.24249425E+00</totfact>
</mgrwt>
</event>
<event>
 6    1  0.4479270E-005  0.3725024E+04  0.7818608E-02  0.8062439E-01
          2   -1    0    0  501    0  0.00000000000E+00  0.00000000000E+00  0.22864818543E+04  0.22864818543E+04  0.00000000000E+00 0. -1.
         -2   -1    0    0    0  501 -0.00000000000E+00 -0.00000000000E+00 -0.15171562026E+04  0.15171562026E+04  0.00000000000E+00 0.  1.
         23    2    1    2    0    0  0.43745525167E+03 -0.14026535616E+04 -0.78206353214E+03  0.16669086610E+04  0.90316139080E+02 0.  0.
         11    1    3    3    0    0  0.31114231747E+03 -0.10310480567E+04 -0.61638089314E+03  0.12408847821E+04  0.00000000000E+00 0. -1.
        -11    1    3    3    0    0  0.12631293420E+03 -0.37160550482E+03 -0.16568263900E+03  0.42602387894E+03  0.00000000000E+00 0.  1.
         22    1    1    2    0    0 -0.43745525167E+03  0.14026535616E+04  0.15513891839E+04  0.21367293958E+04  0.00000000000E+00 0. -1.
<mgrwt>
<rscale>  0 0.37250236E+04</rscale>
<asrwt>0</asrwt>
<pdfrwt beam="1">  1        2 0.35176644E+00 0.37250236E+04</pdfrwt>
<pdfrwt beam="2">  1       -2 0.23340865E+00 0.37250236E+04</pdfrwt>
<totfact> 0.30305503E-01</totfact>
</mgrwt>
</event>
<event>
 6    1  0.1780144E-005  0.2111144E+04  0.7818608E-02  0.8556350E-01
          1   -1    0    0  501    0  0.00000000000E+00  0.00000000000E+00  0.15770105150E+04  0.15770105150E+04  0.00000000000E+00 0. -1.
         -1   -1    0    0    0  501 -0.00000000000E+00 -0.00000000000E+00 -0.70654683890E+03  0.70654683890E+03  0.00000000000E+00 0.  1.
         23    2    1    2    0    0 -0.63909721949E+03 -0.83131778177E+03  0.32492813324E+03  0.11015490888E+04  0.91091124468E+02 0.  0.
         11    1    3    3    0    0 -0.53316161851E+03 -0.68749239684E+03  0.30451889633E+03  0.92175857218E+03  0.00000000000E+00 0.  1.
        -11    1    3    3    0    0 -0.10593560099E+03 -0.14382538494E+03  0.20409236912E+02  0.17979051660E+03  0.00000000000E+00 0. -1.
         22    1    1    2    0    0  0.63909721949E+03  0.83131778177E+03  0.54553554285E+03  0.11820082651E+04  0.00000000000E+00 0. -1.
<mgrwt>
<rscale>  0 0.21111436E+04</rscale>
<asrwt>0</asrwt>
<pdfrwt beam="1">  1        1 0.24261700E+00 0.21111436E+04</pdfrwt>
<pdfrwt beam="2">  1       -1 0.10869951E+00 0.21111436E+04</pdfrwt>
<totfact> 0.41733812E+00</totfact>
</mgrwt>
</event>
<event>
 6    1  0.1780144E-005  0.1771083E+04  0.7818608E-02  0.8721830E-01
         -2   -1    0    0    0  501 -0.00000000000E+00  0.00000000000E+00  0.11660177032E+04  0.11660177032E+04  0.00000000000E+00 0.  1.
          2   -1    0    0  501    0  0.00000000000E+00 -0.00000000000E+00 -0.67253147817E+03  0.67253147817E+03  0.00000000000E+00 0. -1.
         23    2    1    2    0    0  0.18622423320E+03  0.31137567877E+03 -0.58864466527E+03  0.69721595129E+03  0.89293126389E+02 0.  0.
         13    1    3    3    0    0  0.28987268259E+02  0.10615173370E+03 -0.12642920952E+03  0.16760906094E+03  0.00000000000E+00 0.  1.
        -13    1    3    3    0    0  0.15723696495E+03  0.20522394507E+03 -0.46221545575E+03  0.52960689035E+03  0.00000000000E+00 0. -1.
         22    1    1    2    0    0 -0.18622423320E+03 -0.31137567877E+03  0.10821308903E+04  0.11413332301E+04  0.00000000000E+00 0.  1.
<mgrwt>
<rscale>  0 0.17710828E+04</rscale>
<asrwt>0</asrwt>
<pdfrwt beam="1">  1        2 0.10346638E+00 0.17710828E+04</pdfrwt>
<pdfrwt beam="2">  1       -2 0.17938734E+00 0.17710828E+04</pdfrwt>
<totfact> 0.74607367E+00</totfact>
</mgrwt>
</event>
<event>
 6    1  0.1780144E-005  0.2545224E+04  0.7818608E-02  0.8387049E-01
          2   -1    0    0  501    0  0.00000000000E+00  0.00000000000E+00  0.42195998028E+03  0.42195998028E+03  0.00000000000E+00 0. -1.
         -2   -1    0    0    0  501 -0.00000000000E+00 -0.00000000000E+00 -0.38381390221E+04  0.38381390221E+04  0.00000000000E+00 0.  1.
         23    2    1    2    0    0  0.47995458861E+03 -0.90927976720E+03 -0.45958062522E+03  0.11298242063E+04  0.90234604341E+02 0.  0.
         13    1    3    3    0    0  0.41144256943E+03 -0.70053371552E+03 -0.36071034449E+03  0.88890068463E+03  0.00000000000E+00 0. -1.
        -13    1    3    3    0    0  0.68512019176E+02 -0.20874605168E+03 -0.98870280738E+02  0.24092352164E+03  0.00000000000E+00 0.  1.
         22    1    1    2    0    0 -0.47995458861E+03  0.90927976720E+03 -0.29565984166E+04  0.31302747961E+04  0.00000000000E+00 0.  1.
<mgrwt>
<rscale>  0 0.25452238E+04</rscale>
<asrwt>0</asrwt>
<pdfrwt beam="1">  1        2 0.64916920E-01 0.25452238E+04</pdfrwt>
<pdfrwt beam="2">  1       -2 0.59048292E+00 0.25452238E+04</pdfrwt>
<totfact> 0.36282095E-02</totfact>
</mgrwt>
</event>
<event>
 6    1  0.1780144E-005  0.2408624E+04  0.7818608E-02  0.8436282E-01
         -2   -1    0    0    0  501 -0.00000000000E+00  0.00000000000E+00  0.95221855050E+03  0.95221855050E+03  0.00000000000E+00 0.  1.
          2   -1    0    0  501    0  0.00000000000E+00 -0.00000000000E+00 -0.15231459728E+04  0.15231459728E+04  0.00000000000E+00 0. -1.
         23    2    1    2    0    0 -0.22613412611E+03 -0.36021943225E+03  0.87012982129E+03  0.97285307188E+03  0.91774240447E+02 0.  0.
         13    1    3    3    0    0 -0.69774561539E+02 -0.19644303005E+03  0.40207657028E+03  0.45290608503E+03  0.00000000000E+00 0.  1.
        -13    1    3    3    0    0 -0.15635956457E+03 -0.16377640220E+03  0.46805325101E+03  0.51994698685E+03  0.00000000000E+00 0. -1.
         22    1    1    2    0    0  0.22613412611E+03  0.36021943225E+03 -0.14410572436E+04  0.15025114514E+04  0.00000000000E+00 0. -1.
<mgrwt>
<rscale>  0 0.24086244E+04</rscale>
<asrwt>0</asrwt>
<pdfrwt beam="1">  1        2 0.23433015E+00 0.24086244E+04</pdfrwt>
<pdfrwt beam="2">  1       -2 0.14649516E+00 0.24086244E+04</pdfrwt>
<totfact> 0.35309105E+00</totfact>
</mgrwt>
</event>
<event>
 6    1  0.2118698E-005  0.1994194E+04  0.7818608E-02  0.8609340E-01
         -1   -1    0    0    0  501 -0.00000000000E+00  0.00000000000E+00  0.12447614198E+04  0.12447614198E+04  0.00000000000E+00 0.  1.
          1   -1    0    0  501    0  0.00000000000E+00 -0.00000000000E+00 -0.79870901952E+03  0.79870901952E+03  0.00000000000E+00 0. -1.
         23    2    1    2    0    0  0.62320850489E+02 -0.88876364193E+03  0.67782563698E+03  0.11228708885E+04  0.87216618548E+02 0.  0.
         11    1    3    3    0    0  0.19372206249E+02 -0.33896624970E+03  0.31190559616E+03  0.46104067253E+03  0.00000000000E+00 0. -1.
        -11    1    3    3    0    0  0.42948644240E+02 -0.54979739223E+03  0.36592004082E+03  0.66183021600E+03  0.00000000000E+00 0.  1.
         22    1    1    2    0    0 -0.62320850489E+02  0.88876364193E+03 -0.23177323671E+03  0.92059955077E+03  0.00000000000E+00 0. -1.
<mgrwt>
<rscale>  0 0.19941937E+04</rscale>
<asrwt>0</asrwt>
<pdfrwt beam="1">  1        1 0.12287831E+00 0.19941937E+04</pdfrwt>
<pdfrwt beam="2">  1       -1 0.19150176E+00 0.19941937E+04</pdfrwt>
<totfact> 0.35478547E+00</totfact>
</mgrwt>
</event>
<event>
 6    1  0.1780144E-005  0.1642477E+04  0.7818608E-02  0.8794869E-01
         -2   -1    0    0    0  501 -0.00000000000E+00  0.00000000000E+00  0.58178786008E+03  0.58178786008E+03  0.00000000000E+00 0.  1.
          2   -1    0    0  501    0  0.00000000000E+00 -0.00000000000E+00 -0.11592419148E+04  0.11592419148E+04  0.00000000000E+00 0. -1.
         23    2    1    2    0    0  0.39725250250E+03  0.59640211954E+03  0.13008335918E+03  0.73399738663E+03  0.91243872728E+02 0.  0.
         13    1    3    3    0    0  0.30368621511E+03  0.38803143731E+03  0.10866905967E+03  0.50458168627E+03  0.00000000000E+00 0. -1.
        -13    1    3    3    0    0  0.93566287391E+02  0.20837068223E+03  0.21414299509E+02  0.22941570036E+03  0.00000000000E+00 0.  1.
         22    1    1    2    0    0 -0.39725250250E+03 -0.59640211954E+03 -0.70753741387E+03  0.10070323882E+04  0.00000000000E+00 0. -1.
<mgrwt>
<rscale>  0 0.16424772E+04</rscale>
<asrwt>0</asrwt>
<pdfrwt beam="1">  1        2 0.17834491E+00 0.16424772E+04</pdfrwt>
<pdfrwt beam="2">  1       -2 0.89505826E-01 0.16424772E+04</pdfrwt>
<totfact> 0.20507074E+01</totfact>
</mgrwt>
</event>
<event>
 6    1  0.1780144E-005  0.1992631E+04  0.7818608E-02  0.8610074E-01
         -2   -1    0    0    0  501 -0.00000000000E+00  0.00000000000E+00  0.81851090328E+03  0.81851090328E+03  0.00000000000E+00 0.  1.
          2   -1    0    0  501    0  0.00000000000E+00 -0.00000000000E+00 -0.12127444836E+04  0.12127444836E+04  0.00000000000E+00 0. -1.
         23    2    1    2    0    0 -0.62438310523E+03 -0.11819147442E+03 -0.97699928916E+03  0.11690260913E+04  0.90944512395E+02 0.  0.
         11    1    3    3    0    0 -0.56497972996E+03 -0.90661560160E+02 -0.83024787537E+03  0.10083318642E+04  0.00000000000E+00 0. -1.
        -11    1    3    3    0    0 -0.59403375267E+02 -0.27529914260E+02 -0.14675141379E+03  0.16069422710E+03  0.00000000000E+00 0.  1.
         22    1    1    2    0    0  0.62438310523E+03  0.11819147442E+03  0.58276570887E+03  0.86222929558E+03  0.00000000000E+00 0.  1.
<mgrwt>
<rscale>  0 0.19926310E+04</rscale>
<asrwt>0</asrwt>
<pdfrwt beam="1">  1        2 0.18657607E+00 0.19926310E+04</pdfrwt>
<pdfrwt beam="2">  1       -2 0.12592475E+00 0.19926310E+04</pdfrwt>
<totfact> 0.81447307E+00</totfact>
</mgrwt>
</event>
<event>
 6    1  0.1780144E-005  0.9819161E+03  0.7818608E-02  0.9328604E-01
         -1   -1    0    0    0  501 -0.00000000000E+00  0.00000000000E+00  0.57193886639E+03  0.57193886639E+03  0.00000000000E+00 0.  1.
          1   -1    0    0  501    0  0.00000000000E+00 -0.00000000000E+00 -0.42144326896E+03  0.42144326896E+03  0.00000000000E+00 0. -1.
         23    2    1    2    0    0 -0.18244763244E+03  0.45107625105E+03  0.85753637163E+02  0.50251713939E+03  0.91721678198E+02 0.  0.
         13    1    3    3    0    0 -0.16196792146E+03  0.34213419081E+03  0.97934850938E+02  0.39099954876E+03  0.00000000000E+00 0.  1.
        -13    1    3    3    0    0 -0.20479710982E+02  0.10894206023E+03 -0.12181213776E+02  0.11151759063E+03  0.00000000000E+00 0. -1.
         22    1    1    2    0    0  0.18244763244E+03 -0.45107625105E+03  0.64741960272E+02  0.49086499596E+03  0.00000000000E+00 0.  1.
<mgrwt>
<rscale>  0 0.98191606E+03</rscale>
<asrwt>0</asrwt>
<pdfrwt beam="1">  1        1 0.64837426E-01 0.98191606E+03</pdfrwt>
<pdfrwt beam="2">  1       -1 0.87990595E-01 0.98191606E+03</pdfrwt>
<totfact> 0.71327134E+01</totfact>
</mgrwt>
</event>
<event>
 6    1  0.1780144E-005  0.3400094E+04  0.7818608E-02  0.8137883E-01
          2   -1    0    0  501    0  0.00000000000E+00  0.00000000000E+00  0.22659085396E+04  0.22659085396E+04  0.00000000000E+00 0. -1.
         -2   -1    0    0    0  501 -0.00000000000E+00 -0.00000000000E+00 -0.12754969672E+04  0.12754969672E+04  0.00000000000E+00 0.  1.
         23    2    1    2    0    0 -0.10352571501E+04  0.55856949849E+03  0.17721516799E+04  0.21290051219E+04  0.91564081379E+02 0.  0.
         11    1    3    3    0    0 -0.86475849599E+03  0.49650204898E+03  0.14620497770E+04  0.17697206252E+04  0.00000000000E+00 0.  1.
        -11    1    3    3    0    0 -0.17049865416E+03  0.62067449515E+02  0.31010190294E+03  0.35928449670E+03  0.00000000000E+00 0. -1.
         22    1    1    2    0    0  0.10352571501E+04 -0.55856949849E+03 -0.78174010752E+03  0.14124003849E+04  0.00000000000E+00 0.  1.
<mgrwt>
<rscale>  0 0.34000938E+04</rscale>
<asrwt>0</asrwt>
<pdfrwt beam="1">  1        2 0.34860131E+00 0.34000938E+04</pdfrwt>
<pdfrwt beam="2">  1       -2 0.19623030E+00 0.34000938E+04</pdfrwt>
<totfact> 0.55304470E-01</totfact>
</mgrwt>
</event>
<event>
 6    1  0.1780144E-005  0.2634453E+04  0.7818608E-02  0.8356592E-01
          1   -1    0    0  501    0  0.00000000000E+00  0.00000000000E+00  0.17297041550E+04  0.17297041550E+04  0.00000000000E+00 0. -1.
         -1   -1    0    0    0  501 -0.00000000000E+00 -0.00000000000E+00 -0.10031112492E+04  0.10031112492E+04  0.00000000000E+00 0.  1.
         23    2    1    2    0    0  0.73699161255E+03  0.50453273289E+03  0.13657827390E+04  0.16345105475E+04  0.92478776614E+02 0.  0.
         13    1    3    3    0    0  0.30923174752E+03  0.19019962180E+03  0.63197881502E+03  0.72883289748E+03  0.00000000000E+00 0. -1.
        -13    1    3    3    0    0  0.42775986503E+03  0.31433311108E+03  0.73380392396E+03  0.90567764998E+03  0.00000000000E+00 0.  1.
         22    1    1    2    0    0 -0.73699161255E+03 -0.50453273289E+03 -0.63918983322E+03  0.10983048568E+04  0.00000000000E+00 0.  1.
<mgrwt>
<rscale>  0 0.26344530E+04</rscale>
<asrwt>0</asrwt>
<pdfrwt beam="1">  1        1 0.26610833E+00 0.26344530E+04</pdfrwt>
<pdfrwt beam="2">  1       -1 0.15432481E+00 0.26344530E+04</pdfrwt>
<totfact> 0.12899997E+00</totfact>
</mgrwt>
</event>
<event>
 6    1  0.1780144E-005  0.1684375E+04  0.7818608E-02  0.8770327E-01
          1   -1    0    0  501    0  0.00000000000E+00  0.00000000000E+00  0.17909116981E+04  0.17909116981E+04  0.00000000000E+00 0. -1.
         -1   -1    0    0    0  501 -0.00000000000E+00 -0.00000000000E+00 -0.39604385610E+03  0.39604385610E+03  0.00000000000E+00 0.  1.
         23    2    1    2    0    0  0.16588377224E+03 -0.76484948615E+02  0.17636025686E+04  0.17754550416E+04  0.92624032686E+02 0.  0.
         11    1    3    3    0    0  0.43403536019E+02 -0.49068305926E+02  0.33470315917E+03  0.34105391120E+03  0.00000000000E+00 0.  1.
        -11    1    3    3    0    0  0.12248023622E+03 -0.27416642689E+02  0.14288994095E+04  0.14344011304E+04  0.00000000000E+00 0. -1.
         22    1    1    2    0    0 -0.16588377224E+03  0.76484948615E+02 -0.36873472662E+03  0.41150051260E+03  0.00000000000E+00 0.  1.
<mgrwt>
<rscale>  0 0.16843748E+04</rscale>
<asrwt>0</asrwt>
<pdfrwt beam="1">  1        1 0.27552487E+00 0.16843748E+04</pdfrwt>
<pdfrwt beam="2">  1       -1 0.60929825E-01 0.16843748E+04</pdfrwt>
<totfact> 0.10757220E+01</totfact>
</mgrwt>
</event>
<event>
 6    1  0.1780144E-005  0.2661866E+04  0.7818608E-02  0.8347485E-01
          2   -1    0    0  501    0  0.00000000000E+00  0.00000000000E+00  0.22476592425E+04  0.22476592425E+04  0.00000000000E+00 0. -1.
         -2   -1    0    0    0  501 -0.00000000000E+00 -0.00000000000E+00 -0.78810128421E+03  0.78810128421E+03  0.00000000000E+00 0.  1.
         23    2    1    2    0    0 -0.80414238635E+03  0.74446913635E+03  0.15889063742E+04  0.19323067283E+04  0.91140297262E+02 0.  0.
         11    1    3    3    0    0 -0.56815999280E+03  0.47761528128E+03  0.11145887965E+04  0.13391154990E+04  0.00000000000E+00 0.  1.
        -11    1    3    3    0    0 -0.23598239355E+03  0.26685385507E+03  0.47431757765E+03  0.59319122928E+03  0.00000000000E+00 0. -1.
         22    1    1    2    0    0  0.80414238635E+03 -0.74446913635E+03 -0.12934841590E+03  0.11034537984E+04  0.00000000000E+00 0.  1.
<mgrwt>
<rscale>  0 0.26618664E+04</rscale>
<asrwt>0</asrwt>
<pdfrwt beam="1">  1        2 0.34579373E+00 0.26618664E+04</pdfrwt>
<pdfrwt beam="2">  1       -2 0.12124635E+00 0.26618664E+04</pdfrwt>
<totfact> 0.22103847E+00</totfact>
</mgrwt>
</event>
<event>
 6    1  0.1780144E-005  0.2353558E+04  0.7818608E-02  0.8457098E-01
         -1   -1    0    0    0  501 -0.00000000000E+00  0.00000000000E+00  0.78265138299E+03  0.78265138299E+03  0.00000000000E+00 0.  1.
          1   -1    0    0  501    0  0.00000000000E+00 -0.00000000000E+00 -0.17693815452E+04  0.17693815452E+04  0.00000000000E+00 0. -1.
         23    2    1    2    0    0 -0.87030988490E+03  0.38814555012E+03  0.25133705333E+03  0.98969279427E+03  0.90693157484E+02 0.  0.
         11    1    3    3    0    0 -0.32644632522E+03  0.14428011708E+03  0.49036519504E+02  0.36026175994E+03  0.00000000000E+00 0. -1.
        -11    1    3    3    0    0 -0.54386355968E+03  0.24386543304E+03  0.20230053383E+03  0.62943103432E+03  0.00000000000E+00 0.  1.
         22    1    1    2    0    0  0.87030988490E+03 -0.38814555012E+03 -0.12380672155E+04  0.15623401339E+04  0.00000000000E+00 0. -1.
<mgrwt>
<rscale>  0 0.23535581E+04</rscale>
<asrwt>0</asrwt>
<pdfrwt beam="1">  1        1 0.27221254E+00 0.23535581E+04</pdfrwt>
<pdfrwt beam="2">  1       -1 0.12040791E+00 0.23535581E+04</pdfrwt>
<totfact> 0.23607719E+00</totfact>
</mgrwt>
</event>
<event>
 6    1  0.1780144E-005  0.1666525E+04  0.7818608E-02  0.8780690E-01
          2   -1    0    0  501    0  0.00000000000E+00  0.00000000000E+00  0.98220202951E+03  0.98220202951E+03  0.00000000000E+00 0.  1.
         -2   -1    0    0    0  501 -0.00000000000E+00 -0.00000000000E+00 -0.70690812613E+03  0.70690812613E+03  0.00000000000E+00 0. -1.
         23    2    1    2    0    0 -0.69636679796E+03 -0.44634090078E+03  0.21630537119E+03  0.85987764064E+03  0.91949041676E+02 0.  0.
         11    1    3    3    0    0 -0.62425143734E+03 -0.42448630395E+03  0.21332123262E+03  0.78446442083E+03  0.00000000000E+00 0.  1.
        -11    1    3    3    0    0 -0.72115360612E+02 -0.21854596826E+02  0.29841385741E+01  0.75413219807E+02  0.00000000000E+00 0. -1.
         22    1    1    2    0    0  0.69636679796E+03  0.44634090078E+03  0.58988532186E+02  0.82923251500E+03  0.00000000000E+00 0. -1.
<mgrwt>
<rscale>  0 0.16665252E+04</rscale>
<asrwt>0</asrwt>
<pdfrwt beam="1">  1        2 0.15110800E+00 0.16665252E+04</pdfrwt>
<pdfrwt beam="2">  1       -2 0.10875510E+00 0.16665252E+04</pdfrwt>
<totfact> 0.16667657E+01</totfact>
</mgrwt>
</event>
<event>
 6    1  0.1780144E-005  0.1758313E+04  0.7818608E-02  0.8728788E-01
          2   -1    0    0  501    0  0.00000000000E+00  0.00000000000E+00  0.14287268187E+04  0.14287268187E+04  0.00000000000E+00 0. -1.
         -2   -1    0    0    0  501 -0.00000000000E+00 -0.00000000000E+00 -0.54098222590E+03  0.54098222590E+03  0.00000000000E+00 0.  1.
         23    2    1    2    0    0 -0.71002674867E+03  0.35263648528E+03  0.24735613324E+02  0.79784088938E+03  0.86300403358E+02 0.  0.
         11    1    3    3    0    0 -0.21340666958E+03  0.94784863071E+02  0.45432274660E+02  0.23788793258E+03  0.00000000000E+00 0. -1.
        -11    1    3    3    0    0 -0.49662007909E+03  0.25785162221E+03 -0.20696661337E+02  0.55995295679E+03  0.00000000000E+00 0.  1.
         22    1    1    2    0    0  0.71002674867E+03 -0.35263648528E+03  0.86300897948E+03  0.11718681552E+04  0.00000000000E+00 0. -1.
<mgrwt>
<rscale>  0 0.17583126E+04</rscale>
<asrwt>0</asrwt>
<pdfrwt beam="1">  1        2 0.21980413E+00 0.17583126E+04</pdfrwt>
<pdfrwt beam="2">  1       -2 0.83228035E-01 0.17583126E+04</pdfrwt>
<totfact> 0.16683191E+01</totfact>
</mgrwt>
</event>
<event>
 6    1  0.1780144E-005  0.1809744E+04  0.7818608E-02  0.8701135E-01
         -2   -1    0    0    0  501 -0.00000000000E+00  0.00000000000E+00  0.38759426679E+03  0.38759426679E+03  0.00000000000E+00 0.  1.
          2   -1    0    0  501    0  0.00000000000E+00 -0.00000000000E+00 -0.21125006429E+04  0.21125006429E+04  0.00000000000E+00 0. -1.
         23    2    1    2    0    0 -0.61354588623E+03 -0.28660349742E+03 -0.16889455926E+04  0.18219553243E+04  0.91672622803E+02 0.  0.
         11    1    3    3    0    0 -0.38205010207E+03 -0.16305810994E+03 -0.91885819258E+03  0.10083901060E+04  0.00000000000E+00 0. -1.
        -11    1    3    3    0    0 -0.23149578416E+03 -0.12354538748E+03 -0.77008740005E+03  0.81356521838E+03  0.00000000000E+00 0.  1.
         22    1    1    2    0    0  0.61354588623E+03  0.28660349742E+03 -0.35960783454E+02  0.67813958533E+03  0.00000000000E+00 0.  1.
<mgrwt>
<rscale>  0 0.18097438E+04</rscale>
<asrwt>0</asrwt>
<pdfrwt beam="1">  1        2 0.32500009E+00 0.18097438E+04</pdfrwt>
<pdfrwt beam="2">  1       -2 0.59629889E-01 0.18097438E+04</pdfrwt>
<totfact> 0.14314429E+01</totfact>
</mgrwt>
</event>
<event>
 6    1  0.1780144E-005  0.2454088E+04  0.7818608E-02  0.8419527E-01
         -1   -1    0    0    0  501 -0.00000000000E+00  0.00000000000E+00  0.14152034907E+04  0.14152034907E+04  0.00000000000E+00 0.  1.
          1   -1    0    0  501    0  0.00000000000E+00 -0.00000000000E+00 -0.10639012968E+04  0.10639012968E+04  0.00000000000E+00 0. -1.
         23    2    1    2    0    0 -0.59630387362E+03 -0.10327149458E+04 -0.10895592950E+03  0.12008575466E+04  0.90049895216E+02 0.  0.
         13    1    3    3    0    0 -0.10865898075E+03 -0.19392520524E+03  0.14657106803E+02  0.22277475195E+03  0.00000000000E+00 0. -1.
        -13    1    3    3    0    0 -0.48764489288E+03 -0.83878974053E+03 -0.12361303630E+03  0.97808279461E+03  0.00000000000E+00 0.  1.
         22    1    1    2    0    0  0.59630387362E+03  0.10327149458E+04  0.46025812343E+03  0.12782472410E+04  0.00000000000E+00 0.  1.
<mgrwt>
<rscale>  0 0.24540879E+04</rscale>
<asrwt>0</asrwt>
<pdfrwt beam="1">  1        1 0.16367712E+00 0.24540879E+04</pdfrwt>
<pdfrwt beam="2">  1       -1 0.21772362E+00 0.24540879E+04</pdfrwt>
<totfact> 0.13730023E+00</totfact>
</mgrwt>
</event>
<event>
 6    1  0.1780144E-005  0.2722606E+04  0.7818608E-02  0.8327707E-01
         -2   -1    0    0    0  501 -0.00000000000E+00  0.00000000000E+00  0.69057305019E+03  0.69057305019E+03  0.00000000000E+00 0. -1.
          2   -1    0    0  501    0  0.00000000000E+00 -0.00000000000E+00 -0.26834893824E+04  0.26834893824E+04  0.00000000000E+00 0.  1.
         23    2    1    2    0    0  0.46099365066E+03 -0.99875519817E+03 -0.70176669020E+01  0.11038596662E+04  0.91814068107E+02 0.  0.
         13    1    3    3    0    0  0.32602568732E+03 -0.60026636326E+03 -0.97525244524E+00  0.68309106770E+03  0.00000000000E+00 0. -1.
        -13    1    3    3    0    0  0.13496796334E+03 -0.39848883491E+03 -0.60424144567E+01  0.42076859846E+03  0.00000000000E+00 0.  1.
         22    1    1    2    0    0 -0.46099365066E+03  0.99875519817E+03 -0.19858986653E+04  0.22702027664E+04  0.00000000000E+00 0.  1.
<mgrwt>
<rscale>  0 0.27226057E+04</rscale>
<asrwt>0</asrwt>
<pdfrwt beam="1">  1        2 0.41284452E+00 0.27226057E+04</pdfrwt>
<pdfrwt beam="2">  1       -2 0.10624201E+00 0.27226057E+04</pdfrwt>
<totfact> 0.16991846E+00</totfact>
</mgrwt>
</event>
<event>
 6    1  0.1780144E-005  0.3860124E+04  0.7818608E-02  0.8033374E-01
         -1   -1    0    0    0  501 -0.00000000000E+00  0.00000000000E+00  0.22347349589E+04  0.22347349589E+04  0.00000000000E+00 0.  1.
          1   -1    0    0  501    0  0.00000000000E+00 -0.00000000000E+00 -0.16669269136E+04  0.16669269136E+04  0.00000000000E+00 0. -1.
         23    2    1    2    0    0 -0.15560222393E+04 -0.19055568287E+03  0.14201761863E+04  0.21172717455E+04  0.91774543078E+02 0.  0.
         13    1    3    3    0    0 -0.35356070416E+03 -0.75001902860E+02  0.35770538270E+03  0.50851115797E+03  0.00000000000E+00 0. -1.
        -13    1    3    3    0    0 -0.12024615352E+04 -0.11555378001E+03  0.10624708036E+04  0.16087605876E+04  0.00000000000E+00 0.  1.
         22    1    1    2    0    0  0.15560222393E+04  0.19055568287E+03 -0.85236814098E+03  0.17843901270E+04  0.00000000000E+00 0. -1.
<mgrwt>
<rscale>  0 0.38601243E+04</rscale>
<asrwt>0</asrwt>
<pdfrwt beam="1">  1        1 0.25645029E+00 0.38601243E+04</pdfrwt>
<pdfrwt beam="2">  1       -1 0.34380538E+00 0.38601243E+04</pdfrwt>
<totfact> 0.67851909E-02</totfact>
</mgrwt>
</event>
<event>
 6    1  0.1780144E-005  0.3995556E+04  0.7818608E-02  0.8005444E-01
          2   -1    0    0  501    0  0.00000000000E+00  0.00000000000E+00  0.30186707212E+04  0.30186707212E+04  0.00000000000E+00 0. -1.
         -2   -1    0    0    0  501 -0.00000000000E+00 -0.00000000000E+00 -0.13221436898E+04  0.13221436898E+04  0.00000000000E+00 0.  1.
         23    2    1    2    0    0  0.14913490253E+04 -0.47064137541E+03  0.21971982954E+04  0.26987739321E+04  0.10037513490E+03 0.  0.
         13    1    3    3    0    0  0.43313302675E+03 -0.15219947185E+03  0.72106241302E+03  0.85480986281E+03  0.00000000000E+00 0. -1.
        -13    1    3    3    0    0  0.10582159986E+04 -0.31844190356E+03  0.14761358824E+04  0.18439640693E+04  0.00000000000E+00 0.  1.
         22    1    1    2    0    0 -0.14913490253E+04  0.47064137541E+03 -0.50067126397E+03  0.16420404788E+04  0.00000000000E+00 0.  1.
<mgrwt>
<rscale>  0 0.39955558E+04</rscale>
<asrwt>0</asrwt>
<pdfrwt beam="1">  1        2 0.46441088E+00 0.39955558E+04</pdfrwt>
<pdfrwt beam="2">  1       -2 0.20340672E+00 0.39955558E+04</pdfrwt>
<totfact> 0.16886611E-01</totfact>
</mgrwt>
</event>
<event>
 6    1  0.1780144E-005  0.2517317E+04  0.7818608E-02  0.8396842E-01
         -1   -1    0    0    0  501 -0.00000000000E+00  0.00000000000E+00  0.12678751462E+04  0.12678751462E+04  0.00000000000E+00 0.  1.
          1   -1    0    0  501    0  0.00000000000E+00 -0.00000000000E+00 -0.12495088118E+04  0.12495088118E+04  0.00000000000E+00 0. -1.
         23    2    1    2    0    0 -0.34449059111E+03 -0.86245938828E+03  0.85587269555E+03  0.12668133407E+04  0.98934349099E+02 0.  0.
         11    1    3    3    0    0 -0.12735578624E+03 -0.38323726834E+03  0.31405717395E+03  0.51158792856E+03  0.00000000000E+00 0. -1.
        -11    1    3    3    0    0 -0.21713480487E+03 -0.47922211994E+03  0.54181552161E+03  0.75522541216E+03  0.00000000000E+00 0.  1.
         22    1    1    2    0    0  0.34449059111E+03  0.86245938828E+03 -0.83750636119E+03  0.12505706173E+04  0.00000000000E+00 0. -1.
<mgrwt>
<rscale>  0 0.25173170E+04</rscale>
<asrwt>0</asrwt>
<pdfrwt beam="1">  1        1 0.19223212E+00 0.25173170E+04</pdfrwt>
<pdfrwt beam="2">  1       -1 0.19505772E+00 0.25173170E+04</pdfrwt>
<totfact> 0.14209449E+00</totfact>
</mgrwt>
</event>
<event>
 6    1  0.1780144E-005  0.1304711E+04  0.7818608E-02  0.9025838E-01
         -2   -1    0    0    0  501 -0.00000000000E+00  0.00000000000E+00  0.30677376242E+03  0.30677376242E+03  0.00000000000E+00 0.  1.
          2   -1    0    0  501    0  0.00000000000E+00 -0.00000000000E+00 -0.13872359176E+04  0.13872359176E+04  0.00000000000E+00 0. -1.
         23    2    1    2    0    0  0.73201333565E+02 -0.48608744350E+03 -0.10932595424E+04  0.12022747808E+04  0.92783530344E+02 0.  0.
         13    1    3    3    0    0  0.24197812482E+02 -0.94843021338E+02 -0.31455359677E+03  0.32943086993E+03  0.00000000000E+00 0.  1.
        -13    1    3    3    0    0  0.49003521083E+02 -0.39124442216E+03 -0.77870594565E+03  0.87284391087E+03  0.00000000000E+00 0. -1.
         22    1    1    2    0    0 -0.73201333565E+02  0.48608744350E+03  0.12797387264E+02  0.49173489919E+03  0.00000000000E+00 0.  1.
<mgrwt>
<rscale>  0 0.13047108E+04</rscale>
<asrwt>0</asrwt>
<pdfrwt beam="1">  1        2 0.21342091E+00 0.13047108E+04</pdfrwt>
<pdfrwt beam="2">  1       -2 0.47195963E-01 0.13047108E+04</pdfrwt>
<totfact> 0.61339142E+01</totfact>
</mgrwt>
</event>
<event>
 6    1  0.1780144E-005  0.3479454E+04  0.7818608E-02  0.8118676E-01
          2   -1    0    0  501    0  0.00000000000E+00  0.00000000000E+00  0.10750223961E+04  0.10750223961E+04  0.00000000000E+00 0. -1.
         -2   -1    0    0    0  501 -0.00000000000E+00 -0.00000000000E+00 -0.28154304228E+04  0.28154304228E+04  0.00000000000E+00 0.  1.
         23    2    1    2    0    0  0.13683681436E+04 -0.53288518197E+03 -0.19114128005E+04  0.24120615898E+04  0.90245361723E+02 0.  0.
         13    1    3    3    0    0  0.92823005844E+03 -0.31599314034E+03 -0.12797722272E+04  0.16122281661E+04  0.00000000000E+00 0. -1.
        -13    1    3    3    0    0  0.44013808516E+03 -0.21689204163E+03 -0.63164057335E+03  0.79983342368E+03  0.00000000000E+00 0.  1.
         22    1    1    2    0    0 -0.13683681436E+04  0.53288518197E+03  0.17100477386E+03  0.14783912291E+04  0.00000000000E+00 0. -1.
<mgrwt>
<rscale>  0 0.34794544E+04</rscale>
<asrwt>0</asrwt>
<pdfrwt beam="1">  1        2 0.16538806E+00 0.34794544E+04</pdfrwt>
<pdfrwt beam="2">  1       -2 0.43314314E+00 0.34794544E+04</pdfrwt>
<totfact> 0.83316747E-02</totfact>
</mgrwt>
</event>
<event>
 6    1  0.1780144E-005  0.1984086E+04  0.7818608E-02  0.8614097E-01
          2   -1    0    0  501    0  0.00000000000E+00  0.00000000000E+00  0.27630676084E+04  0.27630676084E+04  0.00000000000E+00 0.  1.
         -2   -1    0    0    0  501 -0.00000000000E+00 -0.00000000000E+00 -0.35617982032E+03  0.35617982032E+03  0.00000000000E+00 0. -1.
         23    2    1    2    0    0  0.69034693717E+03 -0.70015282088E+03  0.10264827996E+04  0.14244581208E+04  0.92850059742E+02 0.  0.
         11    1    3    3    0    0  0.29963212689E+03 -0.24375826932E+03  0.42554073977E+03  0.57470203282E+03  0.00000000000E+00 0. -1.
        -11    1    3    3    0    0  0.39071481029E+03 -0.45639455155E+03  0.60094205986E+03  0.84975608793E+03  0.00000000000E+00 0.  1.
         22    1    1    2    0    0 -0.69034693717E+03  0.70015282088E+03  0.13804049884E+04  0.16947893079E+04  0.00000000000E+00 0.  1.
<mgrwt>
<rscale>  0 0.19840856E+04</rscale>
<asrwt>0</asrwt>
<pdfrwt beam="1">  1        2 0.42508731E+00 0.19840856E+04</pdfrwt>
<pdfrwt beam="2">  1       -2 0.54796897E-01 0.19840856E+04</pdfrwt>
<totfact> 0.71048071E+00</totfact>
</mgrwt>
</event>
<event>
 6    1  0.1780144E-005  0.4044757E+04  0.7818608E-02  0.7995578E-01
          2   -1    0    0  501    0  0.00000000000E+00  0.00000000000E+00  0.18179420822E+04  0.18179420822E+04  0.00000000000E+00 0. -1.
         -2   -1    0    0    0  501 -0.00000000000E+00 -0.00000000000E+00 -0.22498046422E+04  0.22498046422E+04  0.00000000000E+00 0.  1.
         23    2    1    2    0    0 -0.42585162349E+03  0.98612620883E+03  0.15060522253E+04  0.18520508472E+04  0.90025165675E+02 0.  0.
         11    1    3    3    0    0 -0.21106228896E+03  0.54509097372E+03  0.88530509401E+03  0.10608659524E+04  0.00000000000E+00 0. -1.
        -11    1    3    3    0    0 -0.21478933453E+03  0.44103523511E+03  0.62074713126E+03  0.79118489483E+03  0.00000000000E+00 0.  1.
         22    1    1    2    0    0  0.42585162349E+03 -0.98612620883E+03 -0.19379147853E+04  0.22156958772E+04  0.00000000000E+00 0.  1.
<mgrwt>
<rscale>  0 0.40447569E+04</rscale>
<asrwt>0</asrwt>
<pdfrwt beam="1">  1        2 0.27968340E+00 0.40447569E+04</pdfrwt>
<pdfrwt beam="2">  1       -2 0.34612379E+00 0.40447569E+04</pdfrwt>
<totfact> 0.10907348E-01</totfact>
</mgrwt>
</event>
<event>
 6    1  0.1780144E-005  0.1285454E+04  0.7818608E-02  0.9041180E-01
         -1   -1    0    0    0  501 -0.00000000000E+00  0.00000000000E+00  0.36185939715E+03  0.36185939715E+03  0.00000000000E+00 0.  1.
          1   -1    0    0  501    0  0.00000000000E+00 -0.00000000000E+00 -0.11415986483E+04  0.11415986483E+04  0.00000000000E+00 0. -1.
         23    2    1    2    0    0 -0.63328808807E+03  0.76714766052E+02 -0.44464870592E+03  0.78288561237E+03  0.90876028515E+02 0.  0.
         13    1    3    3    0    0 -0.18522500924E+03  0.45734355585E+02 -0.17581463209E+03  0.25944309624E+03  0.00000000000E+00 0. -1.
        -13    1    3    3    0    0 -0.44806307883E+03  0.30980410467E+02 -0.26883407383E+03  0.52344251613E+03  0.00000000000E+00 0.  1.
         22    1    1    2    0    0  0.63328808807E+03 -0.76714766052E+02 -0.33509054526E+03  0.72057243310E+03  0.00000000000E+00 0.  1.
<mgrwt>
<rscale>  0 0.12854543E+04</rscale>
<asrwt>0</asrwt>
<pdfrwt beam="1">  1        1 0.17563056E+00 0.12854543E+04</pdfrwt>
<pdfrwt beam="2">  1       -1 0.55670676E-01 0.12854543E+04</pdfrwt>
<totfact> 0.37871915E+01</totfact>
</mgrwt>
</event>
<event>
 6    1  0.1780144E-005  0.1793171E+04  0.7818608E-02  0.8709939E-01
          2   -1    0    0  501    0  0.00000000000E+00  0.00000000000E+00  0.24936359230E+04  0.24936359230E+04  0.00000000000E+00 0. -1.
         -2   -1    0    0    0  501 -0.00000000000E+00 -0.00000000000E+00 -0.32236693606E+03  0.32236693606E+03  0.00000000000E+00 0.  1.
         23    2    1    2    0    0  0.76457488233E+03 -0.40013889306E+03  0.72050882987E+03  0.11279889617E+04  0.92413415048E+02 0.  0.
         13    1    3    3    0    0  0.42169917783E+03 -0.17144839545E+03  0.39765888290E+03  0.60444795974E+03  0.00000000000E+00 0. -1.
        -13    1    3    3    0    0  0.34287570450E+03 -0.22869049762E+03  0.32284994697E+03  0.52354100193E+03  0.00000000000E+00 0.  1.
         22    1    1    2    0    0 -0.76457488233E+03  0.40013889306E+03  0.14507601570E+04  0.16880138974E+04  0.00000000000E+00 0. -1.
<mgrwt>
<rscale>  0 0.17931712E+04</rscale>
<asrwt>0</asrwt>
<pdfrwt beam="1">  1        2 0.38363628E+00 0.17931712E+04</pdfrwt>
<pdfrwt beam="2">  1       -2 0.49594915E-01 0.17931712E+04</pdfrwt>
<totfact> 0.12774874E+01</totfact>
</mgrwt>
</event>
<event>
 6    1  0.1780144E-005  0.2917452E+04  0.7818608E-02  0.8267704E-01
         -1   -1    0    0    0  501 -0.00000000000E+00  0.00000000000E+00  0.14767727133E+04  0.14767727133E+04  0.00000000000E+00 0.  1.
          1   -1    0    0  501    0  0.00000000000E+00 -0.00000000000E+00 -0.14408997685E+04  0.14408997685E+04  0.00000000000E+00 0. -1.
         23    2    1    2    0    0  0.72460338812E+03 -0.76918941789E+03 -0.98585268130E+03  0.14477657890E+04  0.86126882476E+02 0.  0.
         11    1    3    3    0    0  0.33808473995E+03 -0.41454436283E+03 -0.47050485308E+03  0.71240658118E+03  0.00000000000E+00 0.  1.
        -11    1    3    3    0    0  0.38651864816E+03 -0.35464505507E+03 -0.51534782822E+03  0.73535920781E+03  0.00000000000E+00 0. -1.
         22    1    1    2    0    0 -0.72460338812E+03  0.76918941789E+03  0.10217256261E+04  0.14699066928E+04  0.00000000000E+00 0. -1.
<mgrwt>
<rscale>  0 0.29174519E+04</rscale>
<asrwt>0</asrwt>
<pdfrwt beam="1">  1        1 0.22167689E+00 0.29174519E+04</pdfrwt>
<pdfrwt beam="2">  1       -1 0.22719580E+00 0.29174519E+04</pdfrwt>
<totfact> 0.60735355E-01</totfact>
</mgrwt>
</event>
<event>
 6    1  0.1780144E-005  0.2312300E+04  0.7818608E-02  0.8473087E-01
          1   -1    0    0  501    0  0.00000000000E+00  0.00000000000E+00  0.20024415557E+04  0.20024415557E+04  0.00000000000E+00 0. -1.
         -1   -1    0    0    0  501 -0.00000000000E+00 -0.00000000000E+00 -0.66752668339E+03  0.66752668339E+03  0.00000000000E+00 0.  1.
         23    2    1    2    0    0 -0.11325233190E+04  0.21941542976E+03  0.63211475784E+03  0.13191609990E+04  0.99320064629E+02 0.  0.
         11    1    3    3    0    0 -0.18676230455E+03  0.19721265514E+02  0.66524008993E+02  0.19923486263E+03  0.00000000000E+00 0. -1.
        -11    1    3    3    0    0 -0.94576101449E+03  0.19969416425E+03  0.56559074885E+03  0.11199261364E+04  0.00000000000E+00 0.  1.
         22    1    1    2    0    0  0.11325233190E+04 -0.21941542976E+03  0.70280011450E+03  0.13508072401E+04  0.00000000000E+00 0.  1.
<mgrwt>
<rscale>  0 0.23123003E+04</rscale>
<asrwt>0</asrwt>
<pdfrwt beam="1">  1        1 0.30806793E+00 0.23123003E+04</pdfrwt>
<pdfrwt beam="2">  1       -1 0.10269641E+00 0.23123003E+04</pdfrwt>
<totfact> 0.24023529E+00</totfact>
</mgrwt>
</event>
<event>
 6    1  0.1780144E-005  0.2571470E+04  0.7818608E-02  0.8377957E-01
          2   -1    0    0  501    0  0.00000000000E+00  0.00000000000E+00  0.17471800489E+04  0.17471800489E+04  0.00000000000E+00 0. -1.
         -2   -1    0    0    0  501 -0.00000000000E+00 -0.00000000000E+00 -0.94616124210E+03  0.94616124210E+03  0.00000000000E+00 0.  1.
         23    2    1    2    0    0  0.84452840550E+03  0.65148530875E+03  0.11498338285E+04  0.15711411063E+04  0.93301702286E+02 0.  0.
         11    1    3    3    0    0  0.32065436296E+03  0.29405586976E+03  0.42839457118E+03  0.61058167647E+03  0.00000000000E+00 0.  1.
        -11    1    3    3    0    0  0.52387404254E+03  0.35742943899E+03  0.72143925733E+03  0.96055942987E+03  0.00000000000E+00 0. -1.
         22    1    1    2    0    0 -0.84452840550E+03 -0.65148530875E+03 -0.34881502166E+03  0.11222001847E+04  0.00000000000E+00 0.  1.
<mgrwt>
<rscale>  0 0.25714697E+04</rscale>
<asrwt>0</asrwt>
<pdfrwt beam="1">  1        2 0.26879693E+00 0.25714697E+04</pdfrwt>
<pdfrwt beam="2">  1       -2 0.14556327E+00 0.25714697E+04</pdfrwt>
<totfact> 0.26553544E+00</totfact>
</mgrwt>
</event>
<event>
 6    1  0.1780144E-005  0.8259670E+03  0.7818608E-02  0.9523173E-01
         -3   -1    0    0    0  501 -0.00000000000E+00  0.00000000000E+00  0.82750512266E+03  0.82750512266E+03  0.00000000000E+00 0.  1.
          3   -1    0    0  501    0  0.00000000000E+00 -0.00000000000E+00 -0.20610795823E+03  0.20610795823E+03  0.00000000000E+00 0. -1.
         23    2    1    2    0    0  0.23572571153E+03  0.64967591260E+02  0.72310819407E+03  0.76878760527E+03  0.91441362102E+02 0.  0.
         11    1    3    3    0    0  0.80439651251E+02  0.28306843428E+02  0.13718821031E+03  0.16153148277E+03  0.00000000000E+00 0. -1.
        -11    1    3    3    0    0  0.15528606028E+03  0.36660747832E+02  0.58591998376E+03  0.60725612250E+03  0.00000000000E+00 0.  1.
         22    1    1    2    0    0 -0.23572571153E+03 -0.64967591260E+02 -0.10171102963E+03  0.26482547562E+03  0.00000000000E+00 0. -1.
<mgrwt>
<rscale>  0 0.82596705E+03</rscale>
<asrwt>0</asrwt>
<pdfrwt beam="1">  1        3 0.31708917E-01 0.82596705E+03</pdfrwt>
<pdfrwt beam="2">  1       -3 0.12730848E+00 0.82596705E+03</pdfrwt>
<totfact> 0.12562306E+01</totfact>
</mgrwt>
</event>
<event>
 6    1  0.1780144E-005  0.4842060E+04  0.7818608E-02  0.7853344E-01
          2   -1    0    0  501    0  0.00000000000E+00  0.00000000000E+00  0.39798650746E+04  0.39798650746E+04  0.00000000000E+00 0. -1.
         -2   -1    0    0    0  501 -0.00000000000E+00 -0.00000000000E+00 -0.14727600065E+04  0.14727600065E+04  0.00000000000E+00 0.  1.
         23    2    1    2    0    0  0.13960531668E+04  0.17957361567E+04  0.32285731616E+03  0.22991236889E+04  0.90000562001E+02 0.  0.
         11    1    3    3    0    0  0.50398079235E+03  0.68291455237E+03  0.15885906014E+03  0.86348429395E+03  0.00000000000E+00 0.  1.
        -11    1    3    3    0    0  0.89207237445E+03  0.11128216043E+04  0.16399825602E+03  0.14356393950E+04  0.00000000000E+00 0. -1.
         22    1    1    2    0    0 -0.13960531668E+04 -0.17957361567E+04  0.21842477519E+04  0.31535013923E+04  0.00000000000E+00 0. -1.
<mgrwt>
<rscale>  0 0.48420599E+04</rscale>
<asrwt>0</asrwt>
<pdfrwt beam="1">  1        2 0.61228693E+00 0.48420599E+04</pdfrwt>
<pdfrwt beam="2">  1       -2 0.22657846E+00 0.48420599E+04</pdfrwt>
<totfact> 0.23416989E-02</totfact>
</mgrwt>
</event>
<event>
 6    1  0.1780144E-005  0.2375178E+04  0.7818608E-02  0.8448855E-01
         -1   -1    0    0    0  501 -0.00000000000E+00  0.00000000000E+00  0.15679391779E+04  0.15679391779E+04  0.00000000000E+00 0.  1.
          1   -1    0    0  501    0  0.00000000000E+00 -0.00000000000E+00 -0.89950436492E+03  0.89950436492E+03  0.00000000000E+00 0. -1.
         23    2    1    2    0    0 -0.73917955024E+03 -0.68313728612E+03  0.98594037205E+03  0.14120418472E+04  0.93385232847E+02 0.  0.
         13    1    3    3    0    0 -0.45278050291E+03 -0.38420143080E+03  0.52669879538E+03  0.79374589403E+03  0.00000000000E+00 0. -1.
        -13    1    3    3    0    0 -0.28639904733E+03 -0.29893585532E+03  0.45924157668E+03  0.61829595313E+03  0.00000000000E+00 0.  1.
         22    1    1    2    0    0  0.73917955024E+03  0.68313728612E+03 -0.31750555906E+03  0.10554016957E+04  0.00000000000E+00 0. -1.
<mgrwt>
<rscale>  0 0.23751784E+04</rscale>
<asrwt>0</asrwt>
<pdfrwt beam="1">  1        1 0.13838529E+00 0.23751784E+04</pdfrwt>
<pdfrwt beam="2">  1       -1 0.24122141E+00 0.23751784E+04</pdfrwt>
<totfact> 0.13017384E+00</totfact>
</mgrwt>
</event>
<event>
 6    1  0.1780144E-005  0.1700897E+04  0.7818608E-02  0.8760853E-01
         -1   -1    0    0    0  501 -0.00000000000E+00  0.00000000000E+00  0.37378222456E+03  0.37378222456E+03  0.00000000000E+00 0.  1.
          1   -1    0    0  501    0  0.00000000000E+00 -0.00000000000E+00 -0.19349848157E+04  0.19349848157E+04  0.00000000000E+00 0. -1.
         23    2    1    2    0    0 -0.54891718564E+03  0.59236952809E+03 -0.43207576514E+03  0.92055267509E+03  0.92282318487E+02 0.  0.
         13    1    3    3    0    0 -0.19584236496E+03  0.26414445115E+03 -0.20672606358E+03  0.38840982010E+03  0.00000000000E+00 0.  1.
        -13    1    3    3    0    0 -0.35307482068E+03  0.32822507693E+03 -0.22534970156E+03  0.53214285500E+03  0.00000000000E+00 0. -1.
         22    1    1    2    0    0  0.54891718564E+03 -0.59236952809E+03 -0.11291268260E+04  0.13882143652E+04  0.00000000000E+00 0.  1.
<mgrwt>
<rscale>  0 0.17008973E+04</rscale>
<asrwt>0</asrwt>
<pdfrwt beam="1">  1        1 0.29768997E+00 0.17008973E+04</pdfrwt>
<pdfrwt beam="2">  1       -1 0.57504958E-01 0.17008973E+04</pdfrwt>
<totfact> 0.96152321E+00</totfact>
</mgrwt>
</event>
<event>
 6    1  0.1780144E-005  0.1519795E+04  0.7818608E-02  0.8871395E-01
         -2   -1    0    0    0  501 -0.00000000000E+00  0.00000000000E+00  0.88583252027E+03  0.88583252027E+03  0.00000000000E+00 0.  1.
          2   -1    0    0  501    0  0.00000000000E+00 -0.00000000000E+00 -0.65186589270E+03  0.65186589270E+03  0.00000000000E+00 0. -1.
         23    2    1    2    0    0 -0.51839488285E+03  0.54113185265E+03  0.77652717384E+01  0.75493153203E+03  0.91128382440E+02 0.  0.
         13    1    3    3    0    0 -0.35879582417E+03  0.35877909305E+03  0.46483295941E+02  0.50952681759E+03  0.00000000000E+00 0. -1.
        -13    1    3    3    0    0 -0.15959905869E+03  0.18235275960E+03 -0.38718024202E+02  0.24540471443E+03  0.00000000000E+00 0.  1.
         22    1    1    2    0    0  0.51839488285E+03 -0.54113185265E+03  0.22620135583E+03  0.78276688094E+03  0.00000000000E+00 0. -1.
<mgrwt>
<rscale>  0 0.15197947E+04</rscale>
<asrwt>0</asrwt>
<pdfrwt beam="1">  1        2 0.10028706E+00 0.15197947E+04</pdfrwt>
<pdfrwt beam="2">  1       -2 0.13628193E+00 0.15197947E+04</pdfrwt>
<totfact> 0.16637150E+01</totfact>
</mgrwt>
</event>
<event>
 6    1  0.1780144E-005  0.1923314E+04  0.7818608E-02  0.8643338E-01
         -2   -1    0    0    0  501 -0.00000000000E+00  0.00000000000E+00  0.39453426486E+03  0.39453426486E+03  0.00000000000E+00 0.  1.
          2   -1    0    0  501    0  0.00000000000E+00 -0.00000000000E+00 -0.23439904082E+04  0.23439904082E+04  0.00000000000E+00 0. -1.
         23    2    1    2    0    0 -0.85937571572E+03  0.21005964489E+03 -0.44813361293E+03  0.99593435531E+03  0.91705124515E+02 0.  0.
         13    1    3    3    0    0 -0.48127653942E+03  0.10622292854E+03 -0.29880239680E+03  0.57636211732E+03  0.00000000000E+00 0.  1.
        -13    1    3    3    0    0 -0.37809917630E+03  0.10383671635E+03 -0.14933121612E+03  0.41957223799E+03  0.00000000000E+00 0. -1.
         22    1    1    2    0    0  0.85937571572E+03 -0.21005964489E+03 -0.15013225304E+04  0.17425903177E+04  0.00000000000E+00 0. -1.
<mgrwt>
<rscale>  0 0.19233144E+04</rscale>
<asrwt>0</asrwt>
<pdfrwt beam="1">  1        2 0.36061391E+00 0.19233144E+04</pdfrwt>
<pdfrwt beam="2">  1       -2 0.60697579E-01 0.19233144E+04</pdfrwt>
<totfact> 0.10114620E+01</totfact>
</mgrwt>
</event>
<event>
 6    1  0.1780144E-005  0.2853323E+04  0.7818608E-02  0.8286902E-01
         -2   -1    0    0    0  501 -0.00000000000E+00  0.00000000000E+00  0.10049222680E+04  0.10049222680E+04  0.00000000000E+00 0.  1.
          2   -1    0    0  501    0  0.00000000000E+00 -0.00000000000E+00 -0.20253937673E+04  0.20253937673E+04  0.00000000000E+00 0. -1.
         23    2    1    2    0    0  0.12471665025E+04 -0.28284382882E+03  0.15708444926E+03  0.12919078759E+04  0.94474966286E+02 0.  0.
         13    1    3    3    0    0  0.16277454571E+03 -0.84852188993E+01  0.51640217792E+01  0.16307733990E+03  0.00000000000E+00 0. -1.
        -13    1    3    3    0    0  0.10843919568E+04 -0.27435860992E+03  0.15192042748E+03  0.11288305360E+04  0.00000000000E+00 0.  1.
         22    1    1    2    0    0 -0.12471665025E+04  0.28284382882E+03 -0.11775559486E+04  0.17384081593E+04  0.00000000000E+00 0. -1.
<mgrwt>
<rscale>  0 0.28533232E+04</rscale>
<asrwt>0</asrwt>
<pdfrwt beam="1">  1        2 0.31159904E+00 0.28533232E+04</pdfrwt>
<pdfrwt beam="2">  1       -2 0.15460343E+00 0.28533232E+04</pdfrwt>
<totfact> 0.15488462E+00</totfact>
</mgrwt>
</event>
<event>
 6    1  0.1780144E-005  0.2312645E+04  0.7818608E-02  0.8472952E-01
          2   -1    0    0  501    0  0.00000000000E+00  0.00000000000E+00  0.13394589337E+04  0.13394589337E+04  0.00000000000E+00 0. -1.
         -2   -1    0    0    0  501 -0.00000000000E+00 -0.00000000000E+00 -0.99822548477E+03  0.99822548477E+03  0.00000000000E+00 0.  1.
         23    2    1    2    0    0  0.11674278721E+03 -0.44601512786E+03  0.12408616649E+04  0.13267990146E+04  0.89997671790E+02 0.  0.
         13    1    3    3    0    0  0.99391036375E+02 -0.20216880629E+03  0.59458773411E+03  0.63583439503E+03  0.00000000000E+00 0.  1.
        -13    1    3    3    0    0  0.17351750836E+02 -0.24384632158E+03  0.64627393082E+03  0.69096461954E+03  0.00000000000E+00 0. -1.
         22    1    1    2    0    0 -0.11674278721E+03  0.44601512786E+03 -0.89962821604E+03  0.10108854039E+04  0.00000000000E+00 0.  1.
<mgrwt>
<rscale>  0 0.23126453E+04</rscale>
<asrwt>0</asrwt>
<pdfrwt beam="1">  1        2 0.20607061E+00 0.23126453E+04</pdfrwt>
<pdfrwt beam="2">  1       -2 0.15357315E+00 0.23126453E+04</pdfrwt>
<totfact> 0.39969837E+00</totfact>
</mgrwt>
</event>
<event>
 6    1  0.1780144E-005  0.9636353E+03  0.7818608E-02  0.9349353E-01
         -1   -1    0    0    0  501 -0.00000000000E+00  0.00000000000E+00  0.19161926085E+03  0.19161926085E+03  0.00000000000E+00 0.  1.
          1   -1    0    0  501    0  0.00000000000E+00 -0.00000000000E+00 -0.12115080144E+04  0.12115080144E+04  0.00000000000E+00 0. -1.
         23    2    1    2    0    0  0.44621562209E+03  0.12747096944E+03 -0.67834798331E+03  0.82692650537E+03  0.91072659869E+02 0.  0.
         13    1    3    3    0    0  0.27380005592E+03  0.55959324676E+02 -0.33626760927E+03  0.43723428694E+03  0.00000000000E+00 0.  1.
        -13    1    3    3    0    0  0.17241556618E+03  0.71511644759E+02 -0.34208037405E+03  0.38969221843E+03  0.00000000000E+00 0. -1.
         22    1    1    2    0    0 -0.44621562209E+03 -0.12747096944E+03 -0.34154077019E+03  0.57620076983E+03  0.00000000000E+00 0. -1.
<mgrwt>
<rscale>  0 0.96363535E+03</rscale>
<asrwt>0</asrwt>
<pdfrwt beam="1">  1        1 0.18638585E+00 0.96363535E+03</pdfrwt>
<pdfrwt beam="2">  1       -1 0.29479886E-01 0.96363535E+03</pdfrwt>
<totfact> 0.11066315E+02</totfact>
</mgrwt>
</event>
<event>
 6    1  0.1780144E-005  0.1309030E+04  0.7818608E-02  0.9022435E-01
         -1   -1    0    0    0  501 -0.00000000000E+00  0.00000000000E+00  0.13948847426E+04  0.13948847426E+04  0.00000000000E+00 0.  1.
          1   -1    0    0  501    0  0.00000000000E+00 -0.00000000000E+00 -0.30711486155E+03  0.30711486155E+03  0.00000000000E+00 0. -1.
         23    2    1    2    0    0 -0.23997924065E+03 -0.54696719620E+03  0.88391738167E+03  0.10708744255E+04  0.93268150595E+02 0.  0.
         13    1    3    3    0    0 -0.12486362274E+03 -0.34179059936E+03  0.46546630883E+03  0.59082198905E+03  0.00000000000E+00 0. -1.
        -13    1    3    3    0    0 -0.11511561791E+03 -0.20517659683E+03  0.41845107285E+03  0.48005243645E+03  0.00000000000E+00 0.  1.
         22    1    1    2    0    0  0.23997924065E+03  0.54696719620E+03  0.20385249943E+03  0.63112517870E+03  0.00000000000E+00 0. -1.
<mgrwt>
<rscale>  0 0.13090299E+04</rscale>
<asrwt>0</asrwt>
<pdfrwt beam="1">  1        1 0.47248441E-01 0.13090299E+04</pdfrwt>
<pdfrwt beam="2">  1       -1 0.21459765E+00 0.13090299E+04</pdfrwt>
<totfact> 0.99928332E+00</totfact>
</mgrwt>
</event>
<event>
 6    1  0.2147897E-005  0.3941338E+04  0.7818608E-02  0.8016486E-01
          2   -1    0    0  501    0  0.00000000000E+00  0.00000000000E+00  0.22615763237E+04  0.22615763237E+04  0.00000000000E+00 0.  1.
         -2   -1    0    0    0  501 -0.00000000000E+00 -0.00000000000E+00 -0.17171814329E+04  0.17171814329E+04  0.00000000000E+00 0. -1.
         23    2    1    2    0    0 -0.12504363176E+04  0.94924838706E+03 -0.92843314347E+03  0.18261115007E+04  0.89619342424E+02 0.  0.
         11    1    3    3    0    0 -0.60659343714E+03  0.51647530768E+03 -0.47542232062E+03  0.92775466820E+03  0.00000000000E+00 0.  1.
        -11    1    3    3    0    0 -0.64384288042E+03  0.43277307938E+03 -0.45301082285E+03  0.89835683251E+03  0.00000000000E+00 0. -1.
         22    1    1    2    0    0  0.12504363176E+04 -0.94924838706E+03  0.14728280343E+04  0.21526462559E+04  0.00000000000E+00 0.  1.
<mgrwt>
<rscale>  0 0.39413383E+04</rscale>
<asrwt>0</asrwt>
<pdfrwt beam="1">  1        2 0.34793482E+00 0.39413383E+04</pdfrwt>
<pdfrwt beam="2">  1       -2 0.26418176E+00 0.39413383E+04</pdfrwt>
<totfact> 0.19875694E-01</totfact>
</mgrwt>
</event>
<event>
 6    1  0.1780144E-005  0.9811116E+03  0.7818608E-02  0.9329507E-01
         -2   -1    0    0    0  501 -0.00000000000E+00  0.00000000000E+00  0.99458499990E+02  0.99458499990E+02  0.00000000000E+00 0. -1.
          2   -1    0    0  501    0  0.00000000000E+00 -0.00000000000E+00 -0.24195518800E+04  0.24195518800E+04  0.00000000000E+00 0.  1.
         23    2    1    2    0    0  0.12074281787E+03 -0.38408616124E+03 -0.46987826495E+03  0.62549592815E+03  0.91425187670E+02 0.  0.
         13    1    3    3    0    0  0.42550239793E+02 -0.77987242977E+02 -0.15973290099E+03  0.18277618179E+03  0.00000000000E+00 0. -1.
        -13    1    3    3    0    0  0.78192578076E+02 -0.30609891826E+03 -0.31014536396E+03  0.44271974636E+03  0.00000000000E+00 0.  1.
         22    1    1    2    0    0 -0.12074281787E+03  0.38408616124E+03 -0.18502151151E+04  0.18935144518E+04  0.00000000000E+00 0.  1.
<mgrwt>
<rscale>  0 0.98111162E+03</rscale>
<asrwt>0</asrwt>
<pdfrwt beam="1">  1        2 0.37223876E+00 0.98111162E+03</pdfrwt>
<pdfrwt beam="2">  1       -2 0.15301307E-01 0.98111162E+03</pdfrwt>
<totfact> 0.13295663E+02</totfact>
</mgrwt>
</event>
<event>
 6    1  0.1780144E-005  0.3923963E+04  0.7818608E-02  0.8020064E-01
          2   -1    0    0  501    0  0.00000000000E+00  0.00000000000E+00  0.31215200857E+04  0.31215200857E+04  0.00000000000E+00 0. -1.
         -2   -1    0    0    0  501 -0.00000000000E+00 -0.00000000000E+00 -0.12331723043E+04  0.12331723043E+04  0.00000000000E+00 0.  1.
         23    2    1    2    0    0 -0.45381648536E+03 -0.96810093019E+03 -0.88015556812E+03  0.13869020319E+04  0.75197132152E+02 0.  0.
         11    1    3    3    0    0 -0.20272246336E+03 -0.43559531054E+03 -0.44410092385E+03  0.65426699617E+03  0.00000000000E+00 0.  1.
        -11    1    3    3    0    0 -0.25109402200E+03 -0.53250561965E+03 -0.43605464426E+03  0.73263503577E+03  0.00000000000E+00 0. -1.
         22    1    1    2    0    0  0.45381648536E+03  0.96810093019E+03  0.27685033495E+04  0.29677903581E+04  0.00000000000E+00 0. -1.
<mgrwt>
<rscale>  0 0.39239634E+04</rscale>
<asrwt>0</asrwt>
<pdfrwt beam="1">  1        2 0.48023385E+00 0.39239634E+04</pdfrwt>
<pdfrwt beam="2">  1       -2 0.18971882E+00 0.39239634E+04</pdfrwt>
<totfact> 0.17997978E-01</totfact>
</mgrwt>
</event>
<event>
 6    1  0.1780144E-005  0.1727163E+04  0.7818608E-02  0.8746022E-01
          2   -1    0    0  501    0  0.00000000000E+00  0.00000000000E+00  0.98418589338E+03  0.98418589338E+03  0.00000000000E+00 0. -1.
         -2   -1    0    0    0  501 -0.00000000000E+00 -0.00000000000E+00 -0.75775652095E+03  0.75775652095E+03  0.00000000000E+00 0.  1.
         23    2    1    2    0    0  0.49029604356E+02  0.53624683238E+03  0.79131382397E+03  0.96152008577E+03  0.91535457501E+02 0.  0.
         11    1    3    3    0    0  0.71105671687E+02  0.27901489823E+03  0.42628901704E+03  0.51441972748E+03  0.00000000000E+00 0. -1.
        -11    1    3    3    0    0 -0.22076067331E+02  0.25723193416E+03  0.36502480693E+03  0.44710035828E+03  0.00000000000E+00 0.  1.
         22    1    1    2    0    0 -0.49029604356E+02 -0.53624683238E+03 -0.56488445154E+03  0.78042232857E+03  0.00000000000E+00 0.  1.
<mgrwt>
<rscale>  0 0.17271633E+04</rscale>
<asrwt>0</asrwt>
<pdfrwt beam="1">  1        2 0.15141321E+00 0.17271633E+04</pdfrwt>
<pdfrwt beam="2">  1       -2 0.11657793E+00 0.17271633E+04</pdfrwt>
<totfact> 0.13965891E+01</totfact>
</mgrwt>
</event>
<event>
 6    1  0.2389750E-005  0.2729961E+04  0.7818608E-02  0.8325349E-01
          1   -1    0    0  501    0  0.00000000000E+00  0.00000000000E+00  0.19832530444E+04  0.19832530444E+04  0.00000000000E+00 0. -1.
         -1   -1    0    0    0  501 -0.00000000000E+00 -0.00000000000E+00 -0.93945223940E+03  0.93945223940E+03  0.00000000000E+00 0.  1.
         23    2    1    2    0    0 -0.11519041553E+03  0.11789745513E+04  0.12452065544E+04  0.17211171263E+04  0.91950937716E+02 0.  0.
         13    1    3    3    0    0 -0.11823162105E+03  0.79528468560E+03  0.86429918489E+03  0.11804531030E+04  0.00000000000E+00 0. -1.
        -13    1    3    3    0    0  0.30412055219E+01  0.38368986566E+03  0.38090736947E+03  0.54066402327E+03  0.00000000000E+00 0.  1.
         22    1    1    2    0    0  0.11519041553E+03 -0.11789745513E+04 -0.20140574939E+03  0.12015881575E+04  0.00000000000E+00 0. -1.
<mgrwt>
<rscale>  0 0.27299608E+04</rscale>
<asrwt>0</asrwt>
<pdfrwt beam="1">  1        1 0.30511585E+00 0.27299608E+04</pdfrwt>
<pdfrwt beam="2">  1       -1 0.14453111E+00 0.27299608E+04</pdfrwt>
<totfact> 0.10266178E+00</totfact>
</mgrwt>
</event>
<event>
 6    1  0.1780144E-005  0.2949802E+04  0.7818608E-02  0.8258212E-01
          2   -1    0    0  501    0  0.00000000000E+00  0.00000000000E+00  0.32705856482E+04  0.32705856482E+04  0.00000000000E+00 0. -1.
         -2   -1    0    0    0  501 -0.00000000000E+00 -0.00000000000E+00 -0.66512049777E+03  0.66512049777E+03  0.00000000000E+00 0.  1.
         23    2    1    2    0    0 -0.13311664202E+04 -0.32559149091E+03  0.58163928631E+03  0.14915529213E+04  0.91716959055E+02 0.  0.
         13    1    3    3    0    0 -0.58233710701E+03 -0.15602362991E+03  0.30328940272E+03  0.67486616532E+03  0.00000000000E+00 0. -1.
        -13    1    3    3    0    0 -0.74882931317E+03 -0.16956786100E+03  0.27834988359E+03  0.81668675601E+03  0.00000000000E+00 0.  1.
         22    1    1    2    0    0  0.13311664202E+04  0.32559149091E+03  0.20238258641E+04  0.24441532246E+04  0.00000000000E+00 0. -1.
<mgrwt>
<rscale>  0 0.29498024E+04</rscale>
<asrwt>0</asrwt>
<pdfrwt beam="1">  1        2 0.50316701E+00 0.29498024E+04</pdfrwt>
<pdfrwt beam="2">  1       -2 0.10232623E+00 0.29498024E+04</pdfrwt>
<totfact> 0.78265316E-01</totfact>
</mgrwt>
</event>
<event>
 6    1  0.1780144E-005  0.5305180E+04  0.7818608E-02  0.7783080E-01
         -1   -1    0    0    0  501 -0.00000000000E+00  0.00000000000E+00  0.49227206095E+04  0.49227206095E+04  0.00000000000E+00 0.  1.
          1   -1    0    0  501    0  0.00000000000E+00 -0.00000000000E+00 -0.14293384175E+04  0.14293384175E+04  0.00000000000E+00 0. -1.
         23    2    1    2    0    0  0.80904928006E+03 -0.17147088425E+04  0.39670772899E+04  0.43977882684E+04  0.89734482416E+02 0.  0.
         13    1    3    3    0    0  0.30954704409E+03 -0.57619393769E+03  0.14274875849E+04  0.15702036911E+04  0.00000000000E+00 0. -1.
        -13    1    3    3    0    0  0.49950223597E+03 -0.11385149049E+04  0.25395897050E+04  0.28275845773E+04  0.00000000000E+00 0.  1.
         22    1    1    2    0    0 -0.80904928006E+03  0.17147088425E+04 -0.47369509793E+03  0.19542707586E+04  0.00000000000E+00 0. -1.
<mgrwt>
<rscale>  0 0.53051800E+04</rscale>
<asrwt>0</asrwt>
<pdfrwt beam="1">  1        1 0.21989822E+00 0.53051800E+04</pdfrwt>
<pdfrwt beam="2">  1       -1 0.75734162E+00 0.53051800E+04</pdfrwt>
<totfact> 0.61363656E-04</totfact>
</mgrwt>
</event>
<event>
 6    1  0.1780144E-005  0.1162348E+04  0.7818608E-02  0.9146467E-01
          2   -1    0    0  501    0  0.00000000000E+00  0.00000000000E+00  0.14090872313E+04  0.14090872313E+04  0.00000000000E+00 0. -1.
         -2   -1    0    0    0  501 -0.00000000000E+00 -0.00000000000E+00 -0.23970345791E+03  0.23970345791E+03  0.00000000000E+00 0.  1.
         23    2    1    2    0    0  0.37990070918E+03  0.33152036688E+03  0.98818610560E+03  0.11130081799E+04  0.89694629956E+02 0.  0.
         11    1    3    3    0    0  0.18389689965E+03  0.21802797326E+03  0.52857176287E+03  0.60061832750E+03  0.00000000000E+00 0.  1.
        -11    1    3    3    0    0  0.19600380952E+03  0.11349239362E+03  0.45961434273E+03  0.51238985236E+03  0.00000000000E+00 0. -1.
         22    1    1    2    0    0 -0.37990070918E+03 -0.33152036688E+03  0.18119766775E+03  0.53578250932E+03  0.00000000000E+00 0.  1.
<mgrwt>
<rscale>  0 0.11623478E+04</rscale>
<asrwt>0</asrwt>
<pdfrwt beam="1">  1        2 0.21678265E+00 0.11623478E+04</pdfrwt>
<pdfrwt beam="2">  1       -2 0.36877456E-01 0.11623478E+04</pdfrwt>
<totfact> 0.97909431E+01</totfact>
</mgrwt>
</event>
<event>
 6    1  0.1780144E-005  0.1587813E+04  0.7818608E-02  0.8828070E-01
          2   -1    0    0  501    0  0.00000000000E+00  0.00000000000E+00  0.17503867953E+04  0.17503867953E+04  0.00000000000E+00 0.  1.
         -2   -1    0    0    0  501 -0.00000000000E+00 -0.00000000000E+00 -0.36008453181E+03  0.36008453181E+03  0.00000000000E+00 0. -1.
         23    2    1    2    0    0  0.48680154215E+03 -0.13325171969E+03  0.15074582690E+04  0.15923426829E+04  0.91613452745E+02 0.  0.
         13    1    3    3    0    0  0.35041522933E+03 -0.63364743524E+02  0.96309870058E+03  0.10268227845E+04  0.00000000000E+00 0. -1.
        -13    1    3    3    0    0  0.13638631282E+03 -0.69886976166E+02  0.54435956846E+03  0.56551989844E+03  0.00000000000E+00 0.  1.
         22    1    1    2    0    0 -0.48680154215E+03  0.13325171969E+03 -0.11715600559E+03  0.51812864415E+03  0.00000000000E+00 0. -1.
<mgrwt>
<rscale>  0 0.15878126E+04</rscale>
<asrwt>0</asrwt>
<pdfrwt beam="1">  1        2 0.26929027E+00 0.15878126E+04</pdfrwt>
<pdfrwt beam="2">  1       -2 0.55397621E-01 0.15878126E+04</pdfrwt>
<totfact> 0.27024543E+01</totfact>
</mgrwt>
</event>
<event>
 6    1  0.1780144E-005  0.1993919E+04  0.7818608E-02  0.8609469E-01
          1   -1    0    0  501    0  0.00000000000E+00  0.00000000000E+00  0.17613344177E+04  0.17613344177E+04  0.00000000000E+00 0. -1.
         -1   -1    0    0    0  501 -0.00000000000E+00 -0.00000000000E+00 -0.56430403523E+03  0.56430403523E+03  0.00000000000E+00 0.  1.
         23    2    1    2    0    0  0.47989911759E+03  0.58845536869E+03  0.13495713090E+04  0.15511375696E+04  0.90011986681E+02 0.  0.
         11    1    3    3    0    0  0.23272393398E+03  0.31029662378E+03  0.60310787213E+03  0.71706591719E+03  0.00000000000E+00 0. -1.
        -11    1    3    3    0    0  0.24717518360E+03  0.27815874491E+03  0.74646343689E+03  0.83407165242E+03  0.00000000000E+00 0.  1.
         22    1    1    2    0    0 -0.47989911759E+03 -0.58845536869E+03 -0.15254092654E+03  0.77450088332E+03  0.00000000000E+00 0.  1.
<mgrwt>
<rscale>  0 0.19939189E+04</rscale>
<asrwt>0</asrwt>
<pdfrwt beam="1">  1        1 0.27097452E+00 0.19939189E+04</pdfrwt>
<pdfrwt beam="2">  1       -1 0.86816006E-01 0.19939189E+04</pdfrwt>
<totfact> 0.52520333E+00</totfact>
</mgrwt>
</event>
<event>
 6    1  0.1780144E-005  0.1226016E+04  0.7818608E-02  0.9090385E-01
         -2   -1    0    0    0  501 -0.00000000000E+00  0.00000000000E+00  0.17850098638E+03  0.17850098638E+03  0.00000000000E+00 0.  1.
          2   -1    0    0  501    0  0.00000000000E+00 -0.00000000000E+00 -0.21051918378E+04  0.21051918378E+04  0.00000000000E+00 0. -1.
         23    2    1    2    0    0 -0.37434326222E+03 -0.45774980932E+03 -0.69548491847E+03  0.91784663400E+03  0.95264924398E+02 0.  0.
         13    1    3    3    0    0 -0.27826748810E+03 -0.27023972983E+03 -0.46589045714E+03  0.60623116430E+03  0.00000000000E+00 0. -1.
        -13    1    3    3    0    0 -0.96075774120E+02 -0.18751007949E+03 -0.22959446133E+03  0.31161546970E+03  0.00000000000E+00 0.  1.
         22    1    1    2    0    0  0.37434326222E+03  0.45774980932E+03 -0.12312059329E+04  0.13658461902E+04  0.00000000000E+00 0. -1.
<mgrwt>
<rscale>  0 0.12260160E+04</rscale>
<asrwt>0</asrwt>
<pdfrwt beam="1">  1        2 0.32387564E+00 0.12260160E+04</pdfrwt>
<pdfrwt beam="2">  1       -2 0.27461693E-01 0.12260160E+04</pdfrwt>
<totfact> 0.69602453E+01</totfact>
</mgrwt>
</event>
<event>
 6    1  0.1980838E-005  0.3904159E+04  0.7818608E-02  0.8024165E-01
         -2   -1    0    0    0  501 -0.00000000000E+00  0.00000000000E+00  0.19989709112E+04  0.19989709112E+04  0.00000000000E+00 0. -1.
          2   -1    0    0  501    0  0.00000000000E+00 -0.00000000000E+00 -0.19062881694E+04  0.19062881694E+04  0.00000000000E+00 0.  1.
         23    2    1    2    0    0 -0.49406681704E+03 -0.17845204804E+04  0.66100441954E+03  0.19683530700E+04  0.94189176294E+02 0.  0.
         13    1    3    3    0    0 -0.38250258910E+03 -0.12723928235E+04  0.50655998458E+03  0.14219334534E+04  0.00000000000E+00 0.  1.
        -13    1    3    3    0    0 -0.11156422794E+03 -0.51212765692E+03  0.15444443496E+03  0.54641961662E+03  0.00000000000E+00 0. -1.
         22    1    1    2    0    0  0.49406681704E+03  0.17845204804E+04 -0.56832167772E+03  0.19369060107E+04  0.00000000000E+00 0.  1.
<mgrwt>
<rscale>  0 0.39041591E+04</rscale>
<asrwt>0</asrwt>
<pdfrwt beam="1">  1        2 0.29327510E+00 0.39041591E+04</pdfrwt>
<pdfrwt beam="2">  1       -2 0.30753399E+00 0.39041591E+04</pdfrwt>
<totfact> 0.17111866E-01</totfact>
</mgrwt>
</event>
<event>
 6    1  0.1780144E-005  0.1372956E+04  0.7818608E-02  0.8973631E-01
         -2   -1    0    0    0  501 -0.00000000000E+00  0.00000000000E+00  0.43738434568E+03  0.43738434568E+03  0.00000000000E+00 0.  1.
          2   -1    0    0  501    0  0.00000000000E+00 -0.00000000000E+00 -0.10774317411E+04  0.10774317411E+04  0.00000000000E+00 0. -1.
         23    2    1    2    0    0  0.63767337890E+03 -0.14260665894E+03 -0.54052499887E+03  0.85385564561E+03  0.99690479994E+02 0.  0.
         11    1    3    3    0    0  0.24590631872E+03 -0.92245702908E+02 -0.25851922566E+03  0.36852595204E+03  0.00000000000E+00 0.  1.
        -11    1    3    3    0    0  0.39176706018E+03 -0.50360956032E+02 -0.28200577321E+03  0.48532969357E+03  0.00000000000E+00 0. -1.
         22    1    1    2    0    0 -0.63767337890E+03  0.14260665894E+03 -0.99522396517E+02  0.66096044114E+03  0.00000000000E+00 0.  1.
<mgrwt>
<rscale>  0 0.13729556E+04</rscale>
<asrwt>0</asrwt>
<pdfrwt beam="1">  1        2 0.16575873E+00 0.13729556E+04</pdfrwt>
<pdfrwt beam="2">  1       -2 0.67289899E-01 0.13729556E+04</pdfrwt>
<totfact> 0.44457196E+01</totfact>
</mgrwt>
</event>
<event>
 6    1  0.1780144E-005  0.3200183E+04  0.7818608E-02  0.8188769E-01
         -2   -1    0    0    0  501 -0.00000000000E+00  0.00000000000E+00  0.20342900294E+04  0.20342900294E+04  0.00000000000E+00 0.  1.
          2   -1    0    0  501    0  0.00000000000E+00 -0.00000000000E+00 -0.12585683797E+04  0.12585683797E+04  0.00000000000E+00 0. -1.
         23    2    1    2    0    0  0.13604438511E+04  0.49135059356E+03  0.10892431852E+04  0.18128149534E+04  0.87260879356E+02 0.  0.
         13    1    3    3    0    0  0.40603029465E+02  0.21299629353E+02  0.18421357931E+02  0.49412818583E+02  0.00000000000E+00 0. -1.
        -13    1    3    3    0    0  0.13198408216E+04  0.47005096421E+03  0.10708218272E+04  0.17634021348E+04  0.00000000000E+00 0.  1.
         22    1    1    2    0    0 -0.13604438511E+04 -0.49135059356E+03 -0.31352153544E+03  0.14800434558E+04  0.00000000000E+00 0. -1.
<mgrwt>
<rscale>  0 0.32001832E+04</rscale>
<asrwt>0</asrwt>
<pdfrwt beam="1">  1        2 0.19362590E+00 0.32001832E+04</pdfrwt>
<pdfrwt beam="2">  1       -2 0.31296770E+00 0.32001832E+04</pdfrwt>
<totfact> 0.38945063E-01</totfact>
</mgrwt>
</event>
<event>
 6    1  0.1780144E-005  0.1251196E+04  0.7818608E-02  0.9069189E-01
         -2   -1    0    0    0  501 -0.00000000000E+00  0.00000000000E+00  0.24516474072E+03  0.24516474072E+03  0.00000000000E+00 0. -1.
          2   -1    0    0  501    0  0.00000000000E+00 -0.00000000000E+00 -0.15963661868E+04  0.15963661868E+04  0.00000000000E+00 0.  1.
         23    2    1    2    0    0 -0.15436445532E+03  0.50947740486E+03 -0.11537467018E+04  0.12737422457E+04  0.88838311027E+02 0.  0.
         11    1    3    3    0    0  0.11407406263E+02  0.28896907658E+02 -0.57462353411E+02  0.65322907539E+02  0.00000000000E+00 0. -1.
        -11    1    3    3    0    0 -0.16577186159E+03  0.48058049721E+03 -0.10962843484E+04  0.12084193382E+04  0.00000000000E+00 0.  1.
         22    1    1    2    0    0  0.15436445532E+03 -0.50947740486E+03 -0.19745474428E+03  0.56778868179E+03  0.00000000000E+00 0. -1.
<mgrwt>
<rscale>  0 0.12511958E+04</rscale>
<asrwt>0</asrwt>
<pdfrwt beam="1">  1        2 0.24559480E+00 0.12511958E+04</pdfrwt>
<pdfrwt beam="2">  1       -2 0.37717652E-01 0.12511958E+04</pdfrwt>
<totfact> 0.73050634E+01</totfact>
</mgrwt>
</event>
<event>
 6    1  0.1780144E-005  0.1588732E+04  0.7818608E-02  0.8827500E-01
          1   -1    0    0  501    0  0.00000000000E+00  0.00000000000E+00  0.12701039783E+04  0.12701039783E+04  0.00000000000E+00 0. -1.
         -1   -1    0    0    0  501 -0.00000000000E+00 -0.00000000000E+00 -0.49682342193E+03  0.49682342193E+03  0.00000000000E+00 0.  1.
         23    2    1    2    0    0  0.19801541764E+03  0.10401728236E+03  0.12326109402E+04  0.12560320077E+04  0.90867891850E+02 0.  0.
         11    1    3    3    0    0  0.95829915521E+02  0.74231465763E+01  0.62606728546E+03  0.63340249584E+03  0.00000000000E+00 0.  1.
        -11    1    3    3    0    0  0.10218550212E+03  0.96594135781E+02  0.60654365473E+03  0.62262951183E+03  0.00000000000E+00 0. -1.
         22    1    1    2    0    0 -0.19801541764E+03 -0.10401728236E+03 -0.45933038381E+03  0.51089539256E+03  0.00000000000E+00 0.  1.
<mgrwt>
<rscale>  0 0.15887321E+04</rscale>
<asrwt>0</asrwt>
<pdfrwt beam="1">  1        1 0.19540061E+00 0.15887321E+04</pdfrwt>
<pdfrwt beam="2">  1       -1 0.76434373E-01 0.15887321E+04</pdfrwt>
<totfact> 0.15683494E+01</totfact>
</mgrwt>
</event>
<event>
 6    1  0.1780144E-005  0.3452594E+04  0.7818608E-02  0.8125117E-01
          2   -1    0    0  501    0  0.00000000000E+00  0.00000000000E+00  0.23723595254E+04  0.23723595254E+04  0.00000000000E+00 0. -1.
         -2   -1    0    0    0  501 -0.00000000000E+00 -0.00000000000E+00 -0.12561757592E+04  0.12561757592E+04  0.00000000000E+00 0.  1.
         23    2    1    2    0    0  0.14374223518E+04  0.89549915866E+03  0.21324770623E+03  0.17093179209E+04  0.90506408141E+02 0.  0.
         13    1    3    3    0    0  0.10830434688E+04  0.65773060956E+03  0.19624200051E+03  0.12822260460E+04  0.00000000000E+00 0. -1.
        -13    1    3    3    0    0  0.35437888298E+03  0.23776854910E+03  0.17005705717E+02  0.42709187497E+03  0.00000000000E+00 0.  1.
         22    1    1    2    0    0 -0.14374223518E+04 -0.89549915866E+03  0.90293605993E+03  0.19192173637E+04  0.00000000000E+00 0. -1.
<mgrwt>
<rscale>  0 0.34525935E+04</rscale>
<asrwt>0</asrwt>
<pdfrwt beam="1">  1        2 0.36497839E+00 0.34525935E+04</pdfrwt>
<pdfrwt beam="2">  1       -2 0.19325781E+00 0.34525935E+04</pdfrwt>
<totfact> 0.50132167E-01</totfact>
</mgrwt>
</event>
<event>
 6    1  0.1780144E-005  0.1364054E+04  0.7818608E-02  0.8980257E-01
          2   -1    0    0  501    0  0.00000000000E+00  0.00000000000E+00  0.95378083884E+03  0.95378083884E+03  0.00000000000E+00 0. -1.
         -2   -1    0    0    0  501 -0.00000000000E+00 -0.00000000000E+00 -0.48770205825E+03  0.48770205825E+03  0.00000000000E+00 0.  1.
         23    2    1    2    0    0  0.58780048461E+02  0.15133027625E+03  0.93081002360E+03  0.94921155439E+03  0.90770746074E+02 0.  0.
         13    1    3    3    0    0  0.19493880565E+01  0.11671892507E+03  0.51126459614E+03  0.52442215328E+03  0.00000000000E+00 0.  1.
        -13    1    3    3    0    0  0.56830660404E+02  0.34611351181E+02  0.41954542746E+03  0.42478940111E+03  0.00000000000E+00 0. -1.
         22    1    1    2    0    0 -0.58780048461E+02 -0.15133027625E+03 -0.46473124302E+03  0.49227134270E+03  0.00000000000E+00 0.  1.
<mgrwt>
<rscale>  0 0.13640541E+04</rscale>
<asrwt>0</asrwt>
<pdfrwt beam="1">  1        2 0.14673551E+00 0.13640541E+04</pdfrwt>
<pdfrwt beam="2">  1       -2 0.75031086E-01 0.13640541E+04</pdfrwt>
<totfact> 0.42036148E+01</totfact>
</mgrwt>
</event>
<event>
 6    1  0.1780144E-005  0.2332098E+04  0.7818608E-02  0.8465372E-01
          2   -1    0    0  501    0  0.00000000000E+00  0.00000000000E+00  0.17047974138E+04  0.17047974138E+04  0.00000000000E+00 0. -1.
         -2   -1    0    0    0  501 -0.00000000000E+00 -0.00000000000E+00 -0.79755516134E+03  0.79755516134E+03  0.00000000000E+00 0.  1.
         23    2    1    2    0    0 -0.59318772405E+03  0.33471070630E+03  0.14675168385E+04  0.16204168945E+04  0.90787157176E+02 0.  0.
         13    1    3    3    0    0 -0.91813896067E+02  0.75779815432E+02  0.32567430115E+03  0.34675080730E+03  0.00000000000E+00 0. -1.
        -13    1    3    3    0    0 -0.50137382798E+03  0.25893089087E+03  0.11418425374E+04  0.12736660872E+04  0.00000000000E+00 0.  1.
         22    1    1    2    0    0  0.59318772405E+03 -0.33471070630E+03 -0.56027458607E+03  0.88193568058E+03  0.00000000000E+00 0.  1.
<mgrwt>
<rscale>  0 0.23320977E+04</rscale>
<asrwt>0</asrwt>
<pdfrwt beam="1">  1        2 0.26227652E+00 0.23320977E+04</pdfrwt>
<pdfrwt beam="2">  1       -2 0.12270079E+00 0.23320977E+04</pdfrwt>
<totfact> 0.44277164E+00</totfact>
</mgrwt>
</event>
<event>
 6    1  0.1780144E-005  0.8790428E+03  0.7818608E-02  0.9452165E-01
          1   -1    0    0  501    0  0.00000000000E+00  0.00000000000E+00  0.82136645798E+03  0.82136645798E+03  0.00000000000E+00 0. -1.
         -1   -1    0    0    0  501 -0.00000000000E+00 -0.00000000000E+00 -0.23519230814E+03  0.23519230814E+03  0.00000000000E+00 0.  1.
         23    2    1    2    0    0  0.16425042882E+03 -0.33890721030E+03  0.32315590726E+02  0.38678596578E+03  0.81992593323E+02 0.  0.
         11    1    3    3    0    0  0.76762043880E+02 -0.19707805659E+03 -0.19181530197E+02  0.21236784802E+03  0.00000000000E+00 0.  1.
        -11    1    3    3    0    0  0.87488384936E+02 -0.14182915371E+03  0.51497120923E+02  0.17441811776E+03  0.00000000000E+00 0. -1.
         22    1    1    2    0    0 -0.16425042882E+03  0.33890721030E+03  0.55385855912E+03  0.66977280033E+03  0.00000000000E+00 0. -1.
<mgrwt>
<rscale>  0 0.87904283E+03</rscale>
<asrwt>0</asrwt>
<pdfrwt beam="1">  1        1 0.12636407E+00 0.87904283E+03</pdfrwt>
<pdfrwt beam="2">  1       -1 0.36183432E-01 0.87904283E+03</pdfrwt>
<totfact> 0.15598978E+02</totfact>
</mgrwt>
</event>
<event>
 6    1  0.1780144E-005  0.8132001E+03  0.7818608E-02  0.9541105E-01
          2   -1    0    0  501    0  0.00000000000E+00  0.00000000000E+00  0.10259491592E+04  0.10259491592E+04  0.00000000000E+00 0. -1.
         -2   -1    0    0    0  501 -0.00000000000E+00 -0.00000000000E+00 -0.16114211226E+03  0.16114211226E+03  0.00000000000E+00 0.  1.
         23    2    1    2    0    0 -0.11634392643E+03 -0.37406282887E+03  0.56536226017E+03  0.69401309361E+03  0.92524481655E+02 0.  0.
         13    1    3    3    0    0 -0.43393519939E+02 -0.17944746586E+03  0.34374357276E+03  0.39018461578E+03  0.00000000000E+00 0. -1.
        -13    1    3    3    0    0 -0.72950406494E+02 -0.19461536301E+03  0.22161868741E+03  0.30382847783E+03  0.00000000000E+00 0.  1.
         22    1    1    2    0    0  0.11634392643E+03  0.37406282887E+03  0.29944478677E+03  0.49307817786E+03  0.00000000000E+00 0.  1.
<mgrwt>
<rscale>  0 0.81320013E+03</rscale>
<asrwt>0</asrwt>
<pdfrwt beam="1">  1        2 0.15783833E+00 0.81320013E+03</pdfrwt>
<pdfrwt beam="2">  1       -2 0.24791095E-01 0.81320013E+03</pdfrwt>
<totfact> 0.35437255E+02</totfact>
</mgrwt>
</event>
<event>
 6    1  0.1780144E-005  0.4517045E+04  0.7818608E-02  0.7907660E-01
          2   -1    0    0  501    0  0.00000000000E+00  0.00000000000E+00  0.35243119131E+04  0.35243119131E+04  0.00000000000E+00 0. -1.
         -2   -1    0    0    0  501 -0.00000000000E+00 -0.00000000000E+00 -0.14473528434E+04  0.14473528434E+04  0.00000000000E+00 0.  1.
         23    2    1    2    0    0  0.29604464922E+03  0.15942868023E+04  0.27677917015E+04  0.32090977174E+04  0.90798756895E+02 0.  0.
         13    1    3    3    0    0  0.10073735944E+03  0.42574518772E+03  0.81546175998E+03  0.92541064530E+03  0.00000000000E+00 0. -1.
        -13    1    3    3    0    0  0.19530728977E+03  0.11685416146E+04  0.19523299415E+04  0.22836870721E+04  0.00000000000E+00 0.  1.
         22    1    1    2    0    0 -0.29604464922E+03 -0.15942868023E+04 -0.69083263175E+03  0.17625670391E+04  0.00000000000E+00 0.  1.
<mgrwt>
<rscale>  0 0.45170446E+04</rscale>
<asrwt>0</asrwt>
<pdfrwt beam="1">  1        2 0.54220183E+00 0.45170446E+04</pdfrwt>
<pdfrwt beam="2">  1       -2 0.22266967E+00 0.45170446E+04</pdfrwt>
<totfact> 0.56111097E-02</totfact>
</mgrwt>
</event>
<event>
 6    1  0.1780144E-005  0.3316753E+04  0.7818608E-02  0.8158646E-01
         -2   -1    0    0    0  501 -0.00000000000E+00  0.00000000000E+00  0.13164304747E+04  0.13164304747E+04  0.00000000000E+00 0.  1.
          2   -1    0    0  501    0  0.00000000000E+00 -0.00000000000E+00 -0.20891443891E+04  0.20891443891E+04  0.00000000000E+00 0. -1.
         23    2    1    2    0    0 -0.93440010280E+03 -0.12956424299E+04  0.65810771834E+02  0.16014361475E+04  0.92053345650E+02 0.  0.
         13    1    3    3    0    0 -0.33457384223E+03 -0.39985096747E+03  0.69756010600E-01  0.52136403497E+03  0.00000000000E+00 0.  1.
        -13    1    3    3    0    0 -0.59982626058E+03 -0.89579146246E+03  0.65741015823E+02  0.10800721125E+04  0.00000000000E+00 0. -1.
         22    1    1    2    0    0  0.93440010280E+03  0.12956424299E+04 -0.83852468615E+03  0.18041387163E+04  0.00000000000E+00 0. -1.
<mgrwt>
<rscale>  0 0.33167534E+04</rscale>
<asrwt>0</asrwt>
<pdfrwt beam="1">  1        2 0.32140683E+00 0.33167534E+04</pdfrwt>
<pdfrwt beam="2">  1       -2 0.20252777E+00 0.33167534E+04</pdfrwt>
<totfact> 0.63628559E-01</totfact>
</mgrwt>
</event>
<event>
 6    1  0.1780144E-005  0.2597641E+04  0.7818608E-02  0.8369003E-01
          2   -1    0    0  501    0  0.00000000000E+00  0.00000000000E+00  0.20870782308E+04  0.20870782308E+04  0.00000000000E+00 0. -1.
         -2   -1    0    0    0  501 -0.00000000000E+00 -0.00000000000E+00 -0.80827586253E+03  0.80827586253E+03  0.00000000000E+00 0.  1.
         23    2    1    2    0    0 -0.11825361392E+04  0.34589773010E+03  0.18751663992E+03  0.12494678576E+04  0.89277525707E+02 0.  0.
         13    1    3    3    0    0 -0.52602146526E+03  0.11216204562E+03  0.10081707893E+03  0.54721384284E+03  0.00000000000E+00 0.  1.
        -13    1    3    3    0    0 -0.65651467395E+03  0.23373568448E+03  0.86699560993E+02  0.70225401472E+03  0.00000000000E+00 0. -1.
         22    1    1    2    0    0  0.11825361392E+04 -0.34589773010E+03  0.10912857284E+04  0.16458862358E+04  0.00000000000E+00 0.  1.
<mgrwt>
<rscale>  0 0.25976412E+04</rscale>
<asrwt>0</asrwt>
<pdfrwt beam="1">  1        2 0.32108896E+00 0.25976412E+04</pdfrwt>
<pdfrwt beam="2">  1       -2 0.12435013E+00 0.25976412E+04</pdfrwt>
<totfact> 0.25677408E+00</totfact>
</mgrwt>
</event>
<event>
 6    1  0.1780144E-005  0.1723969E+04  0.7818608E-02  0.8747811E-01
         -2   -1    0    0    0  501 -0.00000000000E+00  0.00000000000E+00  0.31871985317E+03  0.31871985317E+03  0.00000000000E+00 0. -1.
          2   -1    0    0  501    0  0.00000000000E+00 -0.00000000000E+00 -0.23312541377E+04  0.23312541377E+04  0.00000000000E+00 0.  1.
         23    2    1    2    0    0 -0.89866756656E+02  0.13579016176E+03 -0.23064273982E+04  0.23139856515E+04  0.91691056694E+02 0.  0.
         13    1    3    3    0    0 -0.65977838643E+02  0.33700431618E+02 -0.64231148286E+03  0.64657005443E+03  0.00000000000E+00 0. -1.
        -13    1    3    3    0    0 -0.23888918013E+02  0.10208973014E+03 -0.16641159154E+04  0.16674155970E+04  0.00000000000E+00 0.  1.
         22    1    1    2    0    0  0.89866756656E+02 -0.13579016176E+03  0.29389311366E+03  0.33598833944E+03  0.00000000000E+00 0. -1.
<mgrwt>
<rscale>  0 0.17239686E+04</rscale>
<asrwt>0</asrwt>
<pdfrwt beam="1">  1        2 0.35865450E+00 0.17239686E+04</pdfrwt>
<pdfrwt beam="2">  1       -2 0.49033822E-01 0.17239686E+04</pdfrwt>
<totfact> 0.16289998E+01</totfact>
</mgrwt>
</event>
<event>
 6    1  0.1780144E-005  0.2683974E+04  0.7818608E-02  0.8340224E-01
         -2   -1    0    0    0  501 -0.00000000000E+00  0.00000000000E+00  0.10137048056E+04  0.10137048056E+04  0.00000000000E+00 0. -1.
          2   -1    0    0  501    0  0.00000000000E+00 -0.00000000000E+00 -0.17765812888E+04  0.17765812888E+04  0.00000000000E+00 0.  1.
         23    2    1    2    0    0 -0.43516018895E+03 -0.12266866203E+04 -0.71193242022E+03  0.14877041385E+04  0.11086648862E+03 0.  0.
         11    1    3    3    0    0 -0.26533908036E+03 -0.89607459091E+03 -0.50156488801E+03  0.10606233247E+04  0.00000000000E+00 0.  1.
        -11    1    3    3    0    0 -0.16982110859E+03 -0.33061202934E+03 -0.21036753221E+03  0.42708081375E+03  0.00000000000E+00 0. -1.
         22    1    1    2    0    0  0.43516018895E+03  0.12266866203E+04 -0.50944063075E+02  0.13025819559E+04  0.00000000000E+00 0.  1.
<mgrwt>
<rscale>  0 0.26839739E+04</rscale>
<asrwt>0</asrwt>
<pdfrwt beam="1">  1        2 0.27332019E+00 0.26839739E+04</pdfrwt>
<pdfrwt beam="2">  1       -2 0.15595459E+00 0.26839739E+04</pdfrwt>
<totfact> 0.21092428E+00</totfact>
</mgrwt>
</event>
<event>
 6    1  0.1780144E-005  0.1633096E+04  0.7818608E-02  0.8800470E-01
         -2   -1    0    0    0  501 -0.00000000000E+00  0.00000000000E+00  0.19221324681E+03  0.19221324681E+03  0.00000000000E+00 0. -1.
          2   -1    0    0  501    0  0.00000000000E+00 -0.00000000000E+00 -0.34688078240E+04  0.34688078240E+04  0.00000000000E+00 0.  1.
         23    2    1    2    0    0 -0.47652952068E+03 -0.14021107725E+03 -0.30890925730E+04  0.31300817788E+04  0.90440514345E+02 0.  0.
         11    1    3    3    0    0 -0.77097321136E+02  0.98940995751E+01 -0.52621381522E+03  0.53192374403E+03  0.00000000000E+00 0. -1.
        -11    1    3    3    0    0 -0.39943219954E+03 -0.15010517682E+03 -0.25628787578E+04  0.25981580347E+04  0.00000000000E+00 0.  1.
         22    1    1    2    0    0  0.47652952068E+03  0.14021107725E+03 -0.18750200411E+03  0.53093929201E+03  0.00000000000E+00 0. -1.
<mgrwt>
<rscale>  0 0.16330962E+04</rscale>
<asrwt>0</asrwt>
<pdfrwt beam="1">  1        2 0.53366268E+00 0.16330962E+04</pdfrwt>
<pdfrwt beam="2">  1       -2 0.29571272E-01 0.16330962E+04</pdfrwt>
<totfact> 0.87056844E+00</totfact>
</mgrwt>
</event>
<event>
 6    1  0.1780144E-005  0.9690774E+03  0.7818608E-02  0.9343126E-01
          1   -1    0    0  501    0  0.00000000000E+00  0.00000000000E+00  0.89501771172E+03  0.89501771172E+03  0.00000000000E+00 0. -1.
         -1   -1    0    0    0  501 -0.00000000000E+00 -0.00000000000E+00 -0.26231632503E+03  0.26231632503E+03  0.00000000000E+00 0.  1.
         23    2    1    2    0    0 -0.41241258496E+03 -0.19847126391E+03  0.14490451328E+03  0.48843884874E+03  0.90001156443E+02 0.  0.
         11    1    3    3    0    0 -0.30259962939E+03 -0.16281948398E+03  0.14505140798E+03  0.37298341924E+03  0.00000000000E+00 0.  1.
        -11    1    3    3    0    0 -0.10981295557E+03 -0.35651779920E+02 -0.14689470345E+00  0.11545542950E+03  0.00000000000E+00 0. -1.
         22    1    1    2    0    0  0.41241258496E+03  0.19847126391E+03  0.48779687341E+03  0.66889518801E+03  0.00000000000E+00 0. -1.
<mgrwt>
<rscale>  0 0.96907741E+03</rscale>
<asrwt>0</asrwt>
<pdfrwt beam="1">  1        1 0.13769503E+00 0.96907741E+03</pdfrwt>
<pdfrwt beam="2">  1       -1 0.40356358E-01 0.96907741E+03</pdfrwt>
<totfact> 0.11044886E+02</totfact>
</mgrwt>
</event>
<event>
 6    1  0.1872303E-005  0.2702509E+04  0.7818608E-02  0.8334192E-01
          2   -1    0    0  501    0  0.00000000000E+00  0.00000000000E+00  0.17483022505E+04  0.17483022505E+04  0.00000000000E+00 0. -1.
         -2   -1    0    0    0  501 -0.00000000000E+00 -0.00000000000E+00 -0.10443778157E+04  0.10443778157E+04  0.00000000000E+00 0.  1.
         23    2    1    2    0    0 -0.43200751147E+03  0.97422862396E+03 -0.50363335876E+03  0.11821063403E+04  0.89313705166E+02 0.  0.
         11    1    3    3    0    0 -0.34382794791E+03  0.69660596244E+03 -0.39220269966E+03  0.87023013180E+03  0.00000000000E+00 0.  1.
        -11    1    3    3    0    0 -0.88179563552E+02  0.27762266152E+03 -0.11143065910E+03  0.31187620847E+03  0.00000000000E+00 0. -1.
         22    1    1    2    0    0  0.43200751147E+03 -0.97422862396E+03  0.12075577936E+04  0.16105737259E+04  0.00000000000E+00 0. -1.
<mgrwt>
<rscale>  0 0.27025085E+04</rscale>
<asrwt>0</asrwt>
<pdfrwt beam="1">  1        2 0.26896958E+00 0.27025085E+04</pdfrwt>
<pdfrwt beam="2">  1       -2 0.16067351E+00 0.27025085E+04</pdfrwt>
<totfact> 0.20138613E+00</totfact>
</mgrwt>
</event>
<event>
 6    1  0.1780144E-005  0.9182356E+03  0.7818608E-02  0.9403069E-01
         -2   -1    0    0    0  501 -0.00000000000E+00  0.00000000000E+00  0.20722696720E+03  0.20722696720E+03  0.00000000000E+00 0.  1.
          2   -1    0    0  501    0  0.00000000000E+00 -0.00000000000E+00 -0.10171898035E+04  0.10171898035E+04  0.00000000000E+00 0. -1.
         23    2    1    2    0    0 -0.26559003546E+03 -0.34272558226E+03 -0.59120933336E+03  0.73877082281E+03  0.90856816517E+02 0.  0.
         11    1    3    3    0    0 -0.72886565764E+02 -0.16694128849E+03 -0.24044105050E+03  0.30165169325E+03  0.00000000000E+00 0.  1.
        -11    1    3    3    0    0 -0.19270346970E+03 -0.17578429377E+03 -0.35076828285E+03  0.43711912956E+03  0.00000000000E+00 0. -1.
         22    1    1    2    0    0  0.26559003546E+03  0.34272558226E+03 -0.21875350298E+03  0.48564594793E+03  0.00000000000E+00 0. -1.
<mgrwt>
<rscale>  0 0.91823561E+03</rscale>
<asrwt>0</asrwt>
<pdfrwt beam="1">  1        2 0.15649074E+00 0.91823561E+03</pdfrwt>
<pdfrwt beam="2">  1       -2 0.31881072E-01 0.91823561E+03</pdfrwt>
<totfact> 0.22477568E+02</totfact>
</mgrwt>
</event>
<event>
 6    1  0.1780144E-005  0.3740133E+03  0.7818608E-02  0.1053169E+00
          1   -1    0    0  501    0  0.00000000000E+00  0.00000000000E+00  0.13361347715E+03  0.13361347715E+03  0.00000000000E+00 0. -1.
         -1   -1    0    0    0  501 -0.00000000000E+00 -0.00000000000E+00 -0.26173620000E+03  0.26173620000E+03  0.00000000000E+00 0.  1.
         23    2    1    2    0    0 -0.61407068435E+02 -0.15718047151E+02 -0.23573265862E+03  0.27045859125E+03  0.11644774872E+03 0.  0.
         13    1    3    3    0    0 -0.53760560410E+02  0.45660534476E+02 -0.13288110924E+03  0.15044092348E+03  0.00000000000E+00 0. -1.
        -13    1    3    3    0    0 -0.76465080245E+01 -0.61378581626E+02 -0.10285154938E+03  0.12001766777E+03  0.00000000000E+00 0.  1.
         22    1    1    2    0    0  0.61407068435E+02  0.15718047151E+02  0.10760993577E+03  0.12489108590E+03  0.00000000000E+00 0. -1.
<mgrwt>
<rscale>  0 0.37401328E+03</rscale>
<asrwt>0</asrwt>
<pdfrwt beam="1">  1        1 0.20555920E-01 0.37401328E+03</pdfrwt>
<pdfrwt beam="2">  1       -1 0.40267107E-01 0.37401328E+03</pdfrwt>
<totfact> 0.15100031E+03</totfact>
</mgrwt>
</event>
<event>
 6    1  0.1780144E-005  0.2213103E+04  0.7818608E-02  0.8512994E-01
         -2   -1    0    0    0  501 -0.00000000000E+00  0.00000000000E+00  0.10975577240E+04  0.10975577240E+04  0.00000000000E+00 0.  1.
          2   -1    0    0  501    0  0.00000000000E+00 -0.00000000000E+00 -0.11156192364E+04  0.11156192364E+04  0.00000000000E+00 0. -1.
         23    2    1    2    0    0  0.10496036741E+04 -0.13494482897E+03  0.30815048714E+03  0.11057961550E+04  0.89165205892E+02 0.  0.
         13    1    3    3    0    0  0.21317284394E+03  0.84914738593E+01  0.63864571667E+02  0.22269586892E+03  0.00000000000E+00 0.  1.
        -13    1    3    3    0    0  0.83643083021E+03 -0.14343630283E+03  0.24428591547E+03  0.88310028603E+03  0.00000000000E+00 0. -1.
         22    1    1    2    0    0 -0.10496036741E+04  0.13494482897E+03 -0.32621199946E+03  0.11073808054E+04  0.00000000000E+00 0.  1.
<mgrwt>
<rscale>  0 0.22131033E+04</rscale>
<asrwt>0</asrwt>
<pdfrwt beam="1">  1        2 0.17163373E+00 0.22131033E+04</pdfrwt>
<pdfrwt beam="2">  1       -2 0.16885504E+00 0.22131033E+04</pdfrwt>
<totfact> 0.42252857E+00</totfact>
</mgrwt>
</event>
<event>
 6    1  0.1866006E-005  0.2991641E+04  0.7818608E-02  0.8246122E-01
          2   -1    0    0  501    0  0.00000000000E+00  0.00000000000E+00  0.25537360734E+04  0.25537360734E+04  0.00000000000E+00 0.  1.
         -2   -1    0    0    0  501 -0.00000000000E+00 -0.00000000000E+00 -0.87615881506E+03  0.87615881506E+03  0.00000000000E+00 0. -1.
         23    2    1    2    0    0  0.67736704406E+03  0.81466532643E+03 -0.36876627578E+03  0.11255451828E+04  0.91420379989E+02 0.  0.
         11    1    3    3    0    0  0.42648259215E+03  0.46481634330E+03 -0.18444400424E+03  0.65723757128E+03  0.00000000000E+00 0. -1.
        -11    1    3    3    0    0  0.25088445191E+03  0.34984898313E+03 -0.18432227154E+03  0.46830761150E+03  0.00000000000E+00 0.  1.
         22    1    1    2    0    0 -0.67736704406E+03 -0.81466532643E+03  0.20463435341E+04  0.23043497057E+04  0.00000000000E+00 0.  1.
<mgrwt>
<rscale>  0 0.29916406E+04</rscale>
<asrwt>0</asrwt>
<pdfrwt beam="1">  1        2 0.39288247E+00 0.29916406E+04</pdfrwt>
<pdfrwt beam="2">  1       -2 0.13479367E+00 0.29916406E+04</pdfrwt>
<totfact> 0.10986801E+00</totfact>
</mgrwt>
</event>
<event>
 6    1  0.1780144E-005  0.2029346E+04  0.7818608E-02  0.8593022E-01
          2   -1    0    0  501    0  0.00000000000E+00  0.00000000000E+00  0.59610284260E+03  0.59610284260E+03  0.00000000000E+00 0. -1.
         -2   -1    0    0    0  501 -0.00000000000E+00 -0.00000000000E+00 -0.17271536071E+04  0.17271536071E+04  0.00000000000E+00 0.  1.
         23    2    1    2    0    0  0.50945409119E+03  0.58994290886E+03  0.17251400833E+03  0.80442228373E+03  0.98782694598E+02 0.  0.
         11    1    3    3    0    0  0.46940488985E+03  0.53321732011E+03  0.12770952266E+03  0.72178347394E+03  0.00000000000E+00 0.  1.
        -11    1    3    3    0    0  0.40049201345E+02  0.56725588747E+02  0.44804485676E+02  0.82638809792E+02  0.00000000000E+00 0. -1.
         22    1    1    2    0    0 -0.50945409119E+03 -0.58994290886E+03 -0.13035647728E+04  0.15188341659E+04  0.00000000000E+00 0.  1.
<mgrwt>
<rscale>  0 0.20293459E+04</rscale>
<asrwt>0</asrwt>
<pdfrwt beam="1">  1        2 0.91708131E-01 0.20293459E+04</pdfrwt>
<pdfrwt beam="2">  1       -2 0.26571594E+00 0.20293459E+04</pdfrwt>
<totfact> 0.23854101E+00</totfact>
</mgrwt>
</event>
<event>
 6    1  0.1780144E-005  0.3365256E+04  0.7818608E-02  0.8146487E-01
          2   -1    0    0  501    0  0.00000000000E+00  0.00000000000E+00  0.33968619329E+04  0.33968619329E+04  0.00000000000E+00 0. -1.
         -2   -1    0    0    0  501 -0.00000000000E+00 -0.00000000000E+00 -0.83348581770E+03  0.83348581770E+03  0.00000000000E+00 0.  1.
         23    2    1    2    0    0  0.56386711888E+03 -0.13364716149E+03  0.32666944262E+04  0.33190495898E+04  0.94815684757E+02 0.  0.
         11    1    3    3    0    0  0.31431593463E+03 -0.60775004048E+02  0.15430383725E+04  0.15758983237E+04  0.00000000000E+00 0. -1.
        -11    1    3    3    0    0  0.24955118425E+03 -0.72872157439E+02  0.17236560537E+04  0.17431512661E+04  0.00000000000E+00 0.  1.
         22    1    1    2    0    0 -0.56386711888E+03  0.13364716149E+03 -0.70331831091E+03  0.91129816086E+03  0.00000000000E+00 0.  1.
<mgrwt>
<rscale>  0 0.33652556E+04</rscale>
<asrwt>0</asrwt>
<pdfrwt beam="1">  1        2 0.52259414E+00 0.33652556E+04</pdfrwt>
<pdfrwt beam="2">  1       -2 0.12822859E+00 0.33652556E+04</pdfrwt>
<totfact> 0.35743826E-01</totfact>
</mgrwt>
</event>
<event>
 6    1  0.1780144E-005  0.1762084E+04  0.7818608E-02  0.8726727E-01
          1   -1    0    0  501    0  0.00000000000E+00  0.00000000000E+00  0.22442341522E+04  0.22442341522E+04  0.00000000000E+00 0. -1.
         -1   -1    0    0    0  501 -0.00000000000E+00 -0.00000000000E+00 -0.34587966640E+03  0.34587966640E+03  0.00000000000E+00 0.  1.
         23    2    1    2    0    0  0.60184072549E+03  0.26665220995E+03  0.18089233723E+04  0.19257994473E+04  0.56427692036E+02 0.  0.
         11    1    3    3    0    0  0.13252835776E+03  0.66631866289E+02  0.34528300436E+03  0.37579771728E+03  0.00000000000E+00 0.  1.
        -11    1    3    3    0    0  0.46931236772E+03  0.20002034366E+03  0.14636403679E+04  0.15500017300E+04  0.00000000000E+00 0. -1.
         22    1    1    2    0    0 -0.60184072549E+03 -0.26665220995E+03  0.89431113569E+02  0.66431437136E+03  0.00000000000E+00 0.  1.
<mgrwt>
<rscale>  0 0.17620839E+04</rscale>
<asrwt>0</asrwt>
<pdfrwt beam="1">  1        1 0.34526678E+00 0.17620839E+04</pdfrwt>
<pdfrwt beam="2">  1       -1 0.53212258E-01 0.17620839E+04</pdfrwt>
<totfact> 0.68561698E+00</totfact>
</mgrwt>
</event>
<event>
 6    1  0.1780144E-005  0.3497800E+04  0.7818608E-02  0.8114312E-01
         -1   -1    0    0    0  501 -0.00000000000E+00  0.00000000000E+00  0.85834795009E+03  0.85834795009E+03  0.00000000000E+00 0.  1.
          1   -1    0    0  501    0  0.00000000000E+00 -0.00000000000E+00 -0.35634154946E+04  0.35634154946E+04  0.00000000000E+00 0. -1.
         23    2    1    2    0    0 -0.69739115842E+03  0.15929400166E+04 -0.15745035837E+04  0.23476402097E+04  0.92415880754E+02 0.  0.
         13    1    3    3    0    0 -0.25380136863E+03  0.65392669446E+03 -0.68109184172E+03  0.97771230600E+03  0.00000000000E+00 0.  1.
        -13    1    3    3    0    0 -0.44358978978E+03  0.93901332213E+03 -0.89341174198E+03  0.13699279037E+04  0.00000000000E+00 0. -1.
         22    1    1    2    0    0  0.69739115842E+03 -0.15929400166E+04 -0.11305639609E+04  0.20741232350E+04  0.00000000000E+00 0.  1.
<mgrwt>
<rscale>  0 0.34977995E+04</rscale>
<asrwt>0</asrwt>
<pdfrwt beam="1">  1        1 0.54821777E+00 0.34977995E+04</pdfrwt>
<pdfrwt beam="2">  1       -1 0.13205353E+00 0.34977995E+04</pdfrwt>
<totfact> 0.88360332E-02</totfact>
</mgrwt>
</event>
<event>
 6    1  0.1780144E-005  0.3768505E+04  0.7818608E-02  0.8052948E-01
          1   -1    0    0  501    0  0.00000000000E+00  0.00000000000E+00  0.21460999630E+04  0.21460999630E+04  0.00000000000E+00 0. -1.
         -1   -1    0    0    0  501 -0.00000000000E+00 -0.00000000000E+00 -0.16543532539E+04  0.16543532539E+04  0.00000000000E+00 0.  1.
         23    2    1    2    0    0 -0.84670010307E+03 -0.13788255960E+04 -0.72565733836E+03  0.17755745284E+04  0.89583728370E+02 0.  0.
         11    1    3    3    0    0 -0.49397400143E+03 -0.88341368281E+03 -0.43887059290E+03  0.11031942016E+04  0.00000000000E+00 0. -1.
        -11    1    3    3    0    0 -0.35272610164E+03 -0.49541191319E+03 -0.28678674546E+03  0.67238032681E+03  0.00000000000E+00 0.  1.
         22    1    1    2    0    0  0.84670010307E+03  0.13788255960E+04  0.12174040474E+04  0.20248786886E+04  0.00000000000E+00 0.  1.
<mgrwt>
<rscale>  0 0.37685050E+04</rscale>
<asrwt>0</asrwt>
<pdfrwt beam="1">  1        1 0.33016923E+00 0.37685050E+04</pdfrwt>
<pdfrwt beam="2">  1       -1 0.25451588E+00 0.37685050E+04</pdfrwt>
<totfact> 0.12321941E-01</totfact>
</mgrwt>
</event>
<event>
 6    1  0.1780144E-005  0.4264918E+04  0.7818608E-02  0.7953137E-01
         -2   -1    0    0    0  501 -0.00000000000E+00  0.00000000000E+00  0.23171657457E+04  0.23171657457E+04  0.00000000000E+00 0. -1.
          2   -1    0    0  501    0  0.00000000000E+00 -0.00000000000E+00 -0.19624760438E+04  0.19624760438E+04  0.00000000000E+00 0.  1.
         23    2    1    2    0    0  0.78392821107E+03  0.18626719546E+04 -0.50265175294E+03  0.20843913207E+04  0.89096252692E+02 0.  0.
         11    1    3    3    0    0  0.48337814948E+03  0.11616049908E+04 -0.35701296165E+03  0.13078374689E+04  0.00000000000E+00 0. -1.
        -11    1    3    3    0    0  0.30055006158E+03  0.70106696379E+03 -0.14563879130E+03  0.77655385181E+03  0.00000000000E+00 0.  1.
         22    1    1    2    0    0 -0.78392821107E+03 -0.18626719546E+04  0.85734145486E+03  0.21952504688E+04  0.00000000000E+00 0. -1.
<mgrwt>
<rscale>  0 0.42649184E+04</rscale>
<asrwt>0</asrwt>
<pdfrwt beam="1">  1        2 0.30191939E+00 0.42649184E+04</pdfrwt>
<pdfrwt beam="2">  1       -2 0.35648704E+00 0.42649184E+04</pdfrwt>
<totfact> 0.76621067E-02</totfact>
</mgrwt>
</event>
<event>
 6    1  0.1780144E-005  0.1667648E+04  0.7818608E-02  0.8780034E-01
          2   -1    0    0  501    0  0.00000000000E+00  0.00000000000E+00  0.71470950768E+03  0.71470950768E+03  0.00000000000E+00 0.  1.
         -2   -1    0    0    0  501 -0.00000000000E+00 -0.00000000000E+00 -0.97279084503E+03  0.97279084503E+03  0.00000000000E+00 0. -1.
         23    2    1    2    0    0 -0.91054725453E+02  0.82609119540E+03 -0.10841098619E+03  0.84303671219E+03  0.90776263598E+02 0.  0.
         13    1    3    3    0    0 -0.25306726006E+01  0.30868231610E+03 -0.71167045755E+02  0.31679003295E+03  0.00000000000E+00 0. -1.
        -13    1    3    3    0    0 -0.88524052852E+02  0.51740887930E+03 -0.37243940439E+02  0.52624667924E+03  0.00000000000E+00 0.  1.
         22    1    1    2    0    0  0.91054725453E+02 -0.82609119540E+03 -0.14967035115E+03  0.84446364052E+03  0.00000000000E+00 0.  1.
<mgrwt>
<rscale>  0 0.16676485E+04</rscale>
<asrwt>0</asrwt>
<pdfrwt beam="1">  1        2 0.10995531E+00 0.16676485E+04</pdfrwt>
<pdfrwt beam="2">  1       -2 0.14966013E+00 0.16676485E+04</pdfrwt>
<totfact> 0.11467729E+01</totfact>
</mgrwt>
</event>
<event>
 6    1  0.1780144E-005  0.2014100E+04  0.7818608E-02  0.8600057E-01
         -2   -1    0    0    0  501 -0.00000000000E+00  0.00000000000E+00  0.43877010325E+03  0.43877010325E+03  0.00000000000E+00 0.  1.
          2   -1    0    0  501    0  0.00000000000E+00 -0.00000000000E+00 -0.23113456689E+04  0.23113456689E+04  0.00000000000E+00 0. -1.
         23    2    1    2    0    0 -0.43588710959E+03 -0.19045432765E+03  0.27074626983E+03  0.55464340528E+03  0.89751552448E+02 0.  0.
         11    1    3    3    0    0 -0.12844348339E+03 -0.98388214901E+02  0.71494711581E+02  0.17688827842E+03  0.00000000000E+00 0. -1.
        -11    1    3    3    0    0 -0.30744362620E+03 -0.92066112744E+02  0.19925155825E+03  0.37775512686E+03  0.00000000000E+00 0.  1.
         22    1    1    2    0    0  0.43588710959E+03  0.19045432765E+03 -0.21433218355E+04  0.21954723669E+04  0.00000000000E+00 0. -1.
<mgrwt>
<rscale>  0 0.20140997E+04</rscale>
<asrwt>0</asrwt>
<pdfrwt beam="1">  1        2 0.35559164E+00 0.20140997E+04</pdfrwt>
<pdfrwt beam="2">  1       -2 0.67503093E-01 0.20140997E+04</pdfrwt>
<totfact> 0.83412616E+00</totfact>
</mgrwt>
</event>
<event>
 6    1  0.1780144E-005  0.1470704E+04  0.7818608E-02  0.8904172E-01
         -2   -1    0    0    0  501 -0.00000000000E+00  0.00000000000E+00  0.33219360416E+03  0.33219360416E+03  0.00000000000E+00 0. -1.
          2   -1    0    0  501    0  0.00000000000E+00 -0.00000000000E+00 -0.16277929955E+04  0.16277929955E+04  0.00000000000E+00 0.  1.
         23    2    1    2    0    0 -0.46978297233E+03  0.85348788597E+02  0.87942399362E+02  0.49637177895E+03  0.10329869566E+03 0.  0.
         11    1    3    3    0    0 -0.27637731924E+03  0.94641227084E+02  0.78581695968E+02  0.30251688779E+03  0.00000000000E+00 0.  1.
        -11    1    3    3    0    0 -0.19340565308E+03 -0.92924384867E+01  0.93607033934E+01  0.19385489116E+03  0.00000000000E+00 0. -1.
         22    1    1    2    0    0  0.46978297233E+03 -0.85348788597E+02 -0.13835417907E+04  0.14636148207E+04  0.00000000000E+00 0.  1.
<mgrwt>
<rscale>  0 0.14707038E+04</rscale>
<asrwt>0</asrwt>
<pdfrwt beam="1">  1        2 0.25042969E+00 0.14707038E+04</pdfrwt>
<pdfrwt beam="2">  1       -2 0.51106708E-01 0.14707038E+04</pdfrwt>
<totfact> 0.37692286E+01</totfact>
</mgrwt>
</event>
<event>
 6    1  0.2341653E-005  0.2984548E+04  0.7818608E-02  0.8248157E-01
          1   -1    0    0  501    0  0.00000000000E+00  0.00000000000E+00  0.14308290966E+04  0.14308290966E+04  0.00000000000E+00 0. -1.
         -1   -1    0    0    0  501 -0.00000000000E+00 -0.00000000000E+00 -0.15563572703E+04  0.15563572703E+04  0.00000000000E+00 0.  1.
         23    2    1    2    0    0  0.29936599377E+03  0.65959231954E+03 -0.13670564655E+04  0.15498017538E+04  0.91433418719E+02 0.  0.
         11    1    3    3    0    0  0.17168346501E+03  0.31772957962E+03 -0.59878880978E+03  0.69926771458E+03  0.00000000000E+00 0.  1.
        -11    1    3    3    0    0  0.12768252876E+03  0.34186273992E+03 -0.76826765574E+03  0.85053403927E+03  0.00000000000E+00 0. -1.
         22    1    1    2    0    0 -0.29936599377E+03 -0.65959231954E+03  0.12415282919E+04  0.14373846131E+04  0.00000000000E+00 0. -1.
<mgrwt>
<rscale>  0 0.29845477E+04</rscale>
<asrwt>0</asrwt>
<pdfrwt beam="1">  1        1 0.22012755E+00 0.29845477E+04</pdfrwt>
<pdfrwt beam="2">  1       -1 0.23943958E+00 0.29845477E+04</pdfrwt>
<totfact> 0.50932540E-01</totfact>
</mgrwt>
</event>
<event>
 6    1  0.1780144E-005  0.9015687E+03  0.7818608E-02  0.9423623E-01
          2   -1    0    0  501    0  0.00000000000E+00  0.00000000000E+00  0.23280476697E+03  0.23280476697E+03  0.00000000000E+00 0. -1.
         -2   -1    0    0    0  501 -0.00000000000E+00 -0.00000000000E+00 -0.87286237377E+03  0.87286237377E+03  0.00000000000E+00 0.  1.
         23    2    1    2    0    0  0.29149519205E+03 -0.21326233943E+03 -0.64504545714E+03  0.74445369821E+03  0.87620742929E+02 0.  0.
         13    1    3    3    0    0  0.29246837629E+03 -0.20136428404E+03 -0.59409118531E+03  0.69211968797E+03  0.00000000000E+00 0.  1.
        -13    1    3    3    0    0 -0.97318423746E+00 -0.11898055391E+02 -0.50954271837E+02  0.52334010242E+02  0.00000000000E+00 0. -1.
         22    1    1    2    0    0 -0.29149519205E+03  0.21326233943E+03  0.49878503398E+01  0.36121344252E+03  0.00000000000E+00 0.  1.
<mgrwt>
<rscale>  0 0.90156868E+03</rscale>
<asrwt>0</asrwt>
<pdfrwt beam="1">  1        2 0.35816117E-01 0.90156868E+03</pdfrwt>
<pdfrwt beam="2">  1       -2 0.13428652E+00 0.90156868E+03</pdfrwt>
<totfact> 0.58446064E+01</totfact>
</mgrwt>
</event>
<event>
 6    1  0.1780144E-005  0.1854088E+04  0.7818608E-02  0.8678053E-01
          2   -1    0    0  501    0  0.00000000000E+00  0.00000000000E+00  0.83489396667E+03  0.83489396667E+03  0.00000000000E+00 0.  1.
         -2   -1    0    0    0  501 -0.00000000000E+00 -0.00000000000E+00 -0.10293651188E+04  0.10293651188E+04  0.00000000000E+00 0. -1.
         23    2    1    2    0    0 -0.49858900841E+03  0.37666106550E+02  0.68485753830E+03  0.85271141941E+03  0.89873144723E+02 0.  0.
         13    1    3    3    0    0 -0.15289294518E+03  0.25837157214E+02  0.14992329948E+03  0.21568682645E+03  0.00000000000E+00 0. -1.
        -13    1    3    3    0    0 -0.34569606323E+03  0.11828949336E+02  0.53493423882E+03  0.63702459296E+03  0.00000000000E+00 0.  1.
         22    1    1    2    0    0  0.49858900841E+03 -0.37666106550E+02 -0.87932869041E+03  0.10115476660E+04  0.00000000000E+00 0. -1.
<mgrwt>
<rscale>  0 0.18540882E+04</rscale>
<asrwt>0</asrwt>
<pdfrwt beam="1">  1        2 0.12844523E+00 0.18540882E+04</pdfrwt>
<pdfrwt beam="2">  1       -2 0.15836386E+00 0.18540882E+04</pdfrwt>
<totfact> 0.79162852E+00</totfact>
</mgrwt>
</event>
<event>
 6    1  0.1780144E-005  0.1063720E+04  0.7818608E-02  0.9241293E-01
         -2   -1    0    0    0  501 -0.00000000000E+00  0.00000000000E+00  0.32223369841E+03  0.32223369841E+03  0.00000000000E+00 0.  1.
          2   -1    0    0  501    0  0.00000000000E+00 -0.00000000000E+00 -0.87785620705E+03  0.87785620705E+03  0.00000000000E+00 0. -1.
         23    2    1    2    0    0  0.34470153127E+03 -0.21463030231E+02 -0.73011124480E+03  0.81314530170E+03  0.94143744178E+02 0.  0.
         11    1    3    3    0    0  0.73008311875E+02 -0.21446648569E+02 -0.90615064716E+02  0.11832692970E+03  0.00000000000E+00 0.  1.
        -11    1    3    3    0    0  0.27169321939E+03 -0.16381662069E-01 -0.63949618009E+03  0.69481837201E+03  0.00000000000E+00 0. -1.
         22    1    1    2    0    0 -0.34470153127E+03  0.21463030231E+02  0.17448873617E+03  0.38694460375E+03  0.00000000000E+00 0.  1.
<mgrwt>
<rscale>  0 0.10637196E+04</rscale>
<asrwt>0</asrwt>
<pdfrwt beam="1">  1        2 0.13505480E+00 0.10637196E+04</pdfrwt>
<pdfrwt beam="2">  1       -2 0.49574416E-01 0.10637196E+04</pdfrwt>
<totfact> 0.11630555E+02</totfact>
</mgrwt>
</event>
<event>
 6    1  0.1892333E-005  0.4156303E+04  0.7818608E-02  0.7973737E-01
          1   -1    0    0  501    0  0.00000000000E+00  0.00000000000E+00  0.21865921739E+04  0.21865921739E+04  0.00000000000E+00 0. -1.
         -1   -1    0    0    0  501 -0.00000000000E+00 -0.00000000000E+00 -0.19750888849E+04  0.19750888849E+04  0.00000000000E+00 0.  1.
         23    2    1    2    0    0 -0.74995751786E+02  0.32032601773E+03  0.21593404401E+04  0.21862563734E+04  0.93448775175E+02 0.  0.
         11    1    3    3    0    0 -0.36402599476E+02  0.22515744126E+03  0.12040823802E+04  0.12254939416E+04  0.00000000000E+00 0.  1.
        -11    1    3    3    0    0 -0.38593152310E+02  0.95168576471E+02  0.95525805996E+03  0.96076243186E+03  0.00000000000E+00 0. -1.
         22    1    1    2    0    0  0.74995751786E+02 -0.32032601773E+03 -0.19478371511E+04  0.19754246854E+04  0.00000000000E+00 0.  1.
<mgrwt>
<rscale>  0 0.41563031E+04</rscale>
<asrwt>0</asrwt>
<pdfrwt beam="1">  1        1 0.33639879E+00 0.41563031E+04</pdfrwt>
<pdfrwt beam="2">  1       -1 0.30385983E+00 0.41563031E+04</pdfrwt>
<totfact> 0.53596661E-02</totfact>
</mgrwt>
</event>
<event>
 6    1  0.1780144E-005  0.2820704E+04  0.7818608E-02  0.8296869E-01
         -1   -1    0    0    0  501 -0.00000000000E+00  0.00000000000E+00  0.20474765320E+04  0.20474765320E+04  0.00000000000E+00 0.  1.
          1   -1    0    0  501    0  0.00000000000E+00 -0.00000000000E+00 -0.97148527040E+03  0.97148527040E+03  0.00000000000E+00 0. -1.
         23    2    1    2    0    0  0.13585348897E+04  0.28312854642E+03  0.79874977087E+03  0.16038145787E+04  0.91875927726E+02 0.  0.
         13    1    3    3    0    0  0.99095994317E+03  0.21870927571E+03  0.62819890343E+03  0.11935112980E+04  0.00000000000E+00 0.  1.
        -13    1    3    3    0    0  0.36757494656E+03  0.64419270712E+02  0.17055086744E+03  0.41030328071E+03  0.00000000000E+00 0. -1.
         22    1    1    2    0    0 -0.13585348897E+04 -0.28312854642E+03  0.27724149073E+03  0.14151472237E+04  0.00000000000E+00 0. -1.
<mgrwt>
<rscale>  0 0.28207044E+04</rscale>
<asrwt>0</asrwt>
<pdfrwt beam="1">  1        1 0.14945927E+00 0.28207044E+04</pdfrwt>
<pdfrwt beam="2">  1       -1 0.31499639E+00 0.28207044E+04</pdfrwt>
<totfact> 0.36329429E-01</totfact>
</mgrwt>
</event>
<event>
 6    1  0.1780144E-005  0.1211335E+04  0.7818608E-02  0.9102992E-01
          2   -1    0    0  501    0  0.00000000000E+00  0.00000000000E+00  0.39393298211E+04  0.39393298211E+04  0.00000000000E+00 0. -1.
         -2   -1    0    0    0  501 -0.00000000000E+00 -0.00000000000E+00 -0.93120714091E+02  0.93120714091E+02  0.00000000000E+00 0.  1.
         23    2    1    2    0    0 -0.11946679487E+03 -0.10565047810E+03  0.38671965000E+04  0.38715940486E+04  0.92722000497E+02 0.  0.
         13    1    3    3    0    0 -0.10119825406E+03 -0.34445285796E+02  0.18783501929E+04  0.18813896490E+04  0.00000000000E+00 0. -1.
        -13    1    3    3    0    0 -0.18268540810E+02 -0.71205192308E+02  0.19888463071E+04  0.19902043996E+04  0.00000000000E+00 0.  1.
         22    1    1    2    0    0  0.11946679487E+03  0.10565047810E+03 -0.20987392980E+02  0.16085648655E+03  0.00000000000E+00 0.  1.
<mgrwt>
<rscale>  0 0.12113351E+04</rscale>
<asrwt>0</asrwt>
<pdfrwt beam="1">  1        2 0.60605061E+00 0.12113351E+04</pdfrwt>
<pdfrwt beam="2">  1       -2 0.14326267E-01 0.12113351E+04</pdfrwt>
<totfact> 0.14867810E+01</totfact>
</mgrwt>
</event>
<event>
 6    1  0.1780144E-005  0.1910216E+04  0.7818608E-02  0.8649788E-01
          2   -1    0    0  501    0  0.00000000000E+00  0.00000000000E+00  0.25232275353E+04  0.25232275353E+04  0.00000000000E+00 0. -1.
         -2   -1    0    0    0  501 -0.00000000000E+00 -0.00000000000E+00 -0.36153340356E+03  0.36153340356E+03  0.00000000000E+00 0.  1.
         23    2    1    2    0    0 -0.31912357863E+03 -0.78132740009E+03  0.17514924099E+04  0.19463698598E+04  0.91200903693E+02 0.  0.
         11    1    3    3    0    0 -0.15540875387E+03 -0.27600402666E+03  0.69974052574E+03  0.76809303269E+03  0.00000000000E+00 0. -1.
        -11    1    3    3    0    0 -0.16371482476E+03 -0.50532337343E+03  0.10517518841E+04  0.11782768271E+04  0.00000000000E+00 0.  1.
         22    1    1    2    0    0  0.31912357863E+03  0.78132740009E+03  0.41020172186E+03  0.93839107902E+03  0.00000000000E+00 0. -1.
<mgrwt>
<rscale>  0 0.19102157E+04</rscale>
<asrwt>0</asrwt>
<pdfrwt beam="1">  1        2 0.38818884E+00 0.19102157E+04</pdfrwt>
<pdfrwt beam="2">  1       -2 0.55620525E-01 0.19102157E+04</pdfrwt>
<totfact> 0.95995109E+00</totfact>
</mgrwt>
</event>
<event>
 6    1  0.1780144E-005  0.2690009E+04  0.7818608E-02  0.8338254E-01
         -2   -1    0    0    0  501 -0.00000000000E+00  0.00000000000E+00  0.99182086276E+03  0.99182086276E+03  0.00000000000E+00 0.  1.
          2   -1    0    0  501    0  0.00000000000E+00 -0.00000000000E+00 -0.18239556487E+04  0.18239556487E+04  0.00000000000E+00 0. -1.
         23    2    1    2    0    0 -0.22535795493E+03  0.88682903376E+03 -0.14462548367E+04  0.17137804227E+04  0.90212757638E+02 0.  0.
         13    1    3    3    0    0 -0.15708496285E+03  0.73978732537E+03 -0.11586241452E+04  0.13836079221E+04  0.00000000000E+00 0.  1.
        -13    1    3    3    0    0 -0.68272992084E+02  0.14704170838E+03 -0.28763069144E+03  0.33017250054E+03  0.00000000000E+00 0. -1.
         22    1    1    2    0    0  0.22535795493E+03 -0.88682903376E+03  0.61412005072E+03  0.11019960888E+04  0.00000000000E+00 0.  1.
<mgrwt>
<rscale>  0 0.26900091E+04</rscale>
<asrwt>0</asrwt>
<pdfrwt beam="1">  1        2 0.28060856E+00 0.26900091E+04</pdfrwt>
<pdfrwt beam="2">  1       -2 0.15258782E+00 0.26900091E+04</pdfrwt>
<totfact> 0.21038411E+00</totfact>
</mgrwt>
</event>
<event>
 6    1  0.1780144E-005  0.5372344E+04  0.7818608E-02  0.7773503E-01
         -2   -1    0    0    0  501 -0.00000000000E+00  0.00000000000E+00  0.34214643501E+04  0.34214643501E+04  0.00000000000E+00 0. -1.
          2   -1    0    0  501    0  0.00000000000E+00 -0.00000000000E+00 -0.21088984491E+04  0.21088984491E+04  0.00000000000E+00 0.  1.
         23    2    1    2    0    0  0.12728272676E+04  0.23431961418E+04  0.98399204604E+03  0.28436141711E+04  0.85110485614E+02 0.  0.
         13    1    3    3    0    0  0.84868416225E+03  0.15235572459E+04  0.68172752708E+03  0.18724967049E+04  0.00000000000E+00 0.  1.
        -13    1    3    3    0    0  0.42414310538E+03  0.81963889599E+03  0.30226451896E+03  0.97111746617E+03  0.00000000000E+00 0. -1.
         22    1    1    2    0    0 -0.12728272676E+04 -0.23431961418E+04  0.32857385494E+03  0.26867486281E+04  0.00000000000E+00 0. -1.
<mgrwt>
<rscale>  0 0.53723443E+04</rscale>
<asrwt>0</asrwt>
<pdfrwt beam="1">  1        2 0.32444592E+00 0.53723443E+04</pdfrwt>
<pdfrwt beam="2">  1       -2 0.52637913E+00 0.53723443E+04</pdfrwt>
<totfact> 0.47664992E-03</totfact>
</mgrwt>
</event>
<event>
 6    1  0.1780144E-005  0.2583520E+04  0.7818608E-02  0.8373821E-01
         -2   -1    0    0    0  501 -0.00000000000E+00  0.00000000000E+00  0.33936665569E+03  0.33936665569E+03  0.00000000000E+00 0.  1.
          2   -1    0    0  501    0  0.00000000000E+00 -0.00000000000E+00 -0.49169340519E+04  0.49169340519E+04  0.00000000000E+00 0. -1.
         23    2    1    2    0    0 -0.47869357989E+03 -0.67988724387E+03 -0.42986287004E+04  0.43792596574E+04  0.91171457604E+02 0.  0.
         13    1    3    3    0    0 -0.31556718129E+03 -0.37839789348E+03 -0.26382487531E+04  0.26838636506E+04  0.00000000000E+00 0. -1.
        -13    1    3    3    0    0 -0.16312639859E+03 -0.30148935039E+03 -0.16603799473E+04  0.16953960068E+04  0.00000000000E+00 0.  1.
         22    1    1    2    0    0  0.47869357989E+03  0.67988724387E+03 -0.27893869582E+03  0.87704105025E+03  0.00000000000E+00 0.  1.
<mgrwt>
<rscale>  0 0.25835197E+04</rscale>
<asrwt>0</asrwt>
<pdfrwt beam="1">  1        2 0.75645137E+00 0.25835197E+04</pdfrwt>
<pdfrwt beam="2">  1       -2 0.52210256E-01 0.25835197E+04</pdfrwt>
<totfact> 0.13428695E-01</totfact>
</mgrwt>
</event>
<event>
 6    1  0.1780144E-005  0.9994033E+03  0.7818608E-02  0.9309199E-01
          2   -1    0    0  501    0  0.00000000000E+00  0.00000000000E+00  0.49002200674E+03  0.49002200674E+03  0.00000000000E+00 0. -1.
         -2   -1    0    0    0  501 -0.00000000000E+00 -0.00000000000E+00 -0.50957252444E+03  0.50957252444E+03  0.00000000000E+00 0.  1.
         23    2    1    2    0    0 -0.37969261017E+03  0.92557335547E+01  0.30860197535E+03  0.49766206011E+03  0.90444458436E+02 0.  0.
         13    1    3    3    0    0 -0.26949607774E+03 -0.27838281247E+02  0.18562004152E+03  0.32841727366E+03  0.00000000000E+00 0. -1.
        -13    1    3    3    0    0 -0.11019653242E+03  0.37094014802E+02  0.12298193383E+03  0.16924478645E+03  0.00000000000E+00 0.  1.
         22    1    1    2    0    0  0.37969261017E+03 -0.92557335547E+01 -0.32815249305E+03  0.50193247107E+03  0.00000000000E+00 0.  1.
<mgrwt>
<rscale>  0 0.99940332E+03</rscale>
<asrwt>0</asrwt>
<pdfrwt beam="1">  1        2 0.75388001E-01 0.99940332E+03</pdfrwt>
<pdfrwt beam="2">  1       -2 0.78395773E-01 0.99940332E+03</pdfrwt>
<totfact> 0.91122103E+01</totfact>
</mgrwt>
</event>
<event>
 6    1  0.1780144E-005  0.2339762E+04  0.7818608E-02  0.8462406E-01
          1   -1    0    0  501    0  0.00000000000E+00  0.00000000000E+00  0.29574272759E+04  0.29574272759E+04  0.00000000000E+00 0. -1.
         -1   -1    0    0    0  501 -0.00000000000E+00 -0.00000000000E+00 -0.46277452805E+03  0.46277452805E+03  0.00000000000E+00 0.  1.
         23    2    1    2    0    0 -0.59506069978E+03 -0.73556149724E+03  0.22506454334E+04  0.24431206803E+04  0.91026583683E+02 0.  0.
         11    1    3    3    0    0 -0.29440850232E+03 -0.38471692008E+03  0.12637472682E+04  0.13534181293E+04  0.00000000000E+00 0.  1.
        -11    1    3    3    0    0 -0.30065219747E+03 -0.35084457716E+03  0.98689816519E+03  0.10897025510E+04  0.00000000000E+00 0. -1.
         22    1    1    2    0    0  0.59506069978E+03  0.73556149724E+03  0.24400731441E+03  0.97708112362E+03  0.00000000000E+00 0.  1.
<mgrwt>
<rscale>  0 0.23397624E+04</rscale>
<asrwt>0</asrwt>
<pdfrwt beam="1">  1        1 0.45498880E+00 0.23397624E+04</pdfrwt>
<pdfrwt beam="2">  1       -1 0.71196083E-01 0.23397624E+04</pdfrwt>
<totfact> 0.11526048E+00</totfact>
</mgrwt>
</event>
<event>
 6    1  0.1780144E-005  0.1515084E+04  0.7818608E-02  0.8874484E-01
         -1   -1    0    0    0  501 -0.00000000000E+00  0.00000000000E+00  0.59781766160E+03  0.59781766160E+03  0.00000000000E+00 0.  1.
          1   -1    0    0  501    0  0.00000000000E+00 -0.00000000000E+00 -0.95994176503E+03  0.95994176503E+03  0.00000000000E+00 0. -1.
         23    2    1    2    0    0 -0.84151585930E+02 -0.47718903827E+03 -0.77666152188E+03  0.92008228344E+03  0.92506329823E+02 0.  0.
         13    1    3    3    0    0 -0.34602271311E+01 -0.27996222806E+03 -0.42720433790E+03  0.51077819906E+03  0.00000000000E+00 0. -1.
        -13    1    3    3    0    0 -0.80691358799E+02 -0.19722681021E+03 -0.34945718398E+03  0.40930408437E+03  0.00000000000E+00 0.  1.
         22    1    1    2    0    0  0.84151585930E+02  0.47718903827E+03  0.41453741845E+03  0.63767714320E+03  0.00000000000E+00 0. -1.
<mgrwt>
<rscale>  0 0.15150843E+04</rscale>
<asrwt>0</asrwt>
<pdfrwt beam="1">  1        1 0.14768335E+00 0.15150843E+04</pdfrwt>
<pdfrwt beam="2">  1       -1 0.91971949E-01 0.15150843E+04</pdfrwt>
<totfact> 0.18107073E+01</totfact>
</mgrwt>
</event>
<event>
 6    1  0.1780144E-005  0.3450750E+04  0.7818608E-02  0.8125562E-01
         -1   -1    0    0    0  501 -0.00000000000E+00  0.00000000000E+00  0.12578829764E+04  0.12578829764E+04  0.00000000000E+00 0.  1.
          1   -1    0    0  501    0  0.00000000000E+00 -0.00000000000E+00 -0.23666106903E+04  0.23666106903E+04  0.00000000000E+00 0. -1.
         23    2    1    2    0    0  0.45053376658E+03 -0.96386616863E+03  0.87030438996E+03  0.13775876309E+04  0.91100404183E+02 0.  0.
         11    1    3    3    0    0  0.16816837479E+03 -0.38621906737E+03  0.40074452060E+03  0.58141374345E+03  0.00000000000E+00 0. -1.
        -11    1    3    3    0    0  0.28236539180E+03 -0.57764710126E+03  0.46955986937E+03  0.79617388741E+03  0.00000000000E+00 0.  1.
         22    1    1    2    0    0 -0.45053376658E+03  0.96386616863E+03 -0.19790321039E+04  0.22469060359E+04  0.00000000000E+00 0. -1.
<mgrwt>
<rscale>  0 0.34507502E+04</rscale>
<asrwt>0</asrwt>
<pdfrwt beam="1">  1        1 0.36409395E+00 0.34507502E+04</pdfrwt>
<pdfrwt beam="2">  1       -1 0.19352046E+00 0.34507502E+04</pdfrwt>
<totfact> 0.22906796E-01</totfact>
</mgrwt>
</event>
<event>
 6    1  0.1780144E-005  0.4555246E+04  0.7818608E-02  0.7901036E-01
         -2   -1    0    0    0  501 -0.00000000000E+00  0.00000000000E+00  0.24281584378E+04  0.24281584378E+04  0.00000000000E+00 0.  1.
          2   -1    0    0  501    0  0.00000000000E+00 -0.00000000000E+00 -0.21364200848E+04  0.21364200848E+04  0.00000000000E+00 0. -1.
         23    2    1    2    0    0 -0.99104193701E+02  0.18774695851E+04  0.14326133494E+04  0.23654174459E+04  0.90027773899E+02 0.  0.
         11    1    3    3    0    0  0.16956822156E+02  0.27468802285E+03  0.20349569860E+03  0.34227407595E+03  0.00000000000E+00 0. -1.
        -11    1    3    3    0    0 -0.11606101586E+03  0.16027815623E+04  0.12291176508E+04  0.20231433699E+04  0.00000000000E+00 0.  1.
         22    1    1    2    0    0  0.99104193701E+02 -0.18774695851E+04 -0.11408749963E+04  0.21991610768E+04  0.00000000000E+00 0. -1.
<mgrwt>
<rscale>  0 0.45552460E+04</rscale>
<asrwt>0</asrwt>
<pdfrwt beam="1">  1        2 0.32868002E+00 0.45552460E+04</pdfrwt>
<pdfrwt beam="2">  1       -2 0.37356283E+00 0.45552460E+04</pdfrwt>
<totfact> 0.46584289E-02</totfact>
</mgrwt>
</event>
<event>
 6    1  0.1780144E-005  0.1883956E+04  0.7818608E-02  0.8662884E-01
         -2   -1    0    0    0  501 -0.00000000000E+00  0.00000000000E+00  0.11381704780E+04  0.11381704780E+04  0.00000000000E+00 0.  1.
          2   -1    0    0  501    0  0.00000000000E+00 -0.00000000000E+00 -0.77960455895E+03  0.77960455895E+03  0.00000000000E+00 0. -1.
         23    2    1    2    0    0 -0.59945282236E+03  0.27374480496E+03  0.86204397215E+03  0.10884560064E+04  0.85654909051E+02 0.  0.
         11    1    3    3    0    0 -0.50230788234E+03  0.23387150871E+03  0.66863712497E+03  0.86838050193E+03  0.00000000000E+00 0. -1.
        -11    1    3    3    0    0 -0.97144940015E+02  0.39873296248E+02  0.19340684718E+03  0.22007550445E+03  0.00000000000E+00 0.  1.
         22    1    1    2    0    0  0.59945282236E+03 -0.27374480496E+03 -0.50347805311E+03  0.82931903055E+03  0.00000000000E+00 0. -1.
<mgrwt>
<rscale>  0 0.18839564E+04</rscale>
<asrwt>0</asrwt>
<pdfrwt beam="1">  1        2 0.11993916E+00 0.18839564E+04</pdfrwt>
<pdfrwt beam="2">  1       -2 0.17510315E+00 0.18839564E+04</pdfrwt>
<totfact> 0.65533217E+00</totfact>
</mgrwt>
</event>
<event>
 6    1  0.1780144E-005  0.1888274E+04  0.7818608E-02  0.8660715E-01
         -1   -1    0    0    0  501 -0.00000000000E+00  0.00000000000E+00  0.38395583436E+03  0.38395583436E+03  0.00000000000E+00 0.  1.
          1   -1    0    0  501    0  0.00000000000E+00 -0.00000000000E+00 -0.23216065069E+04  0.23216065069E+04  0.00000000000E+00 0. -1.
         23    2    1    2    0    0 -0.19683044429E+03  0.64380676866E+03 -0.27249720330E+02  0.68001027394E+03  0.91880608568E+02 0.  0.
         13    1    3    3    0    0 -0.15642140400E+03  0.35753106232E+03 -0.21395545225E+02  0.39083741570E+03  0.00000000000E+00 0. -1.
        -13    1    3    3    0    0 -0.40409040293E+02  0.28627570634E+03 -0.58541751048E+01  0.28917285824E+03  0.00000000000E+00 0.  1.
         22    1    1    2    0    0  0.19683044429E+03 -0.64380676866E+03 -0.19104009522E+04  0.20255520673E+04  0.00000000000E+00 0. -1.
<mgrwt>
<rscale>  0 0.18882737E+04</rscale>
<asrwt>0</asrwt>
<pdfrwt beam="1">  1        1 0.35717023E+00 0.18882737E+04</pdfrwt>
<pdfrwt beam="2">  1       -1 0.59070129E-01 0.18882737E+04</pdfrwt>
<totfact> 0.48956916E+00</totfact>
</mgrwt>
</event>
<event>
 6    1  0.1780144E-005  0.7080195E+03  0.7818608E-02  0.9703615E-01
         -1   -1    0    0    0  501 -0.00000000000E+00  0.00000000000E+00  0.15185690543E+03  0.15185690543E+03  0.00000000000E+00 0.  1.
          1   -1    0    0  501    0  0.00000000000E+00 -0.00000000000E+00 -0.82526967866E+03  0.82526967866E+03  0.00000000000E+00 0. -1.
         23    2    1    2    0    0  0.40177989562E+02 -0.16337509323E+03 -0.76294467962E+03  0.78654417621E+03  0.90892601737E+02 0.  0.
         11    1    3    3    0    0  0.30019488045E+02 -0.81383142029E+02 -0.20619741292E+03  0.22370015325E+03  0.00000000000E+00 0. -1.
        -11    1    3    3    0    0  0.10158501517E+02 -0.81991951200E+02 -0.55674726669E+03  0.56284402296E+03  0.00000000000E+00 0.  1.
         22    1    1    2    0    0 -0.40177989562E+02  0.16337509323E+03  0.89531906382E+02  0.19058240788E+03  0.00000000000E+00 0.  1.
<mgrwt>
<rscale>  0 0.70801949E+03</rscale>
<asrwt>0</asrwt>
<pdfrwt beam="1">  1        1 0.12696456E+00 0.70801949E+03</pdfrwt>
<pdfrwt beam="2">  1       -1 0.23362601E-01 0.70801949E+03</pdfrwt>
<totfact> 0.33434582E+02</totfact>
</mgrwt>
</event>
<event>
 6    1  0.1780144E-005  0.4644164E+04  0.7818608E-02  0.7885873E-01
         -2   -1    0    0    0  501 -0.00000000000E+00  0.00000000000E+00  0.15348706901E+04  0.15348706901E+04  0.00000000000E+00 0.  1.
          2   -1    0    0  501    0  0.00000000000E+00 -0.00000000000E+00 -0.35130423761E+04  0.35130423761E+04  0.00000000000E+00 0. -1.
         23    2    1    2    0    0 -0.22360986210E+04  0.42684745619E+03 -0.49630957298E+03  0.23316194304E+04  0.88262009598E+02 0.  0.
         13    1    3    3    0    0 -0.13006264083E+04  0.27636557249E+03 -0.25533872299E+03  0.13539589533E+04  0.00000000000E+00 0. -1.
        -13    1    3    3    0    0 -0.93547221268E+03  0.15048188370E+03 -0.24097085000E+03  0.97766047714E+03  0.00000000000E+00 0.  1.
         22    1    1    2    0    0  0.22360986210E+04 -0.42684745619E+03 -0.14818621130E+04  0.27162936358E+04  0.00000000000E+00 0.  1.
<mgrwt>
<rscale>  0 0.46441644E+04</rscale>
<asrwt>0</asrwt>
<pdfrwt beam="1">  1        2 0.54046805E+00 0.46441644E+04</pdfrwt>
<pdfrwt beam="2">  1       -2 0.23613395E+00 0.46441644E+04</pdfrwt>
<totfact> 0.46578555E-02</totfact>
</mgrwt>
</event>
<event>
 6    1  0.1780144E-005  0.3493312E+04  0.7818608E-02  0.8115377E-01
          1   -1    0    0  501    0  0.00000000000E+00  0.00000000000E+00  0.90803594885E+03  0.90803594885E+03  0.00000000000E+00 0. -1.
         -1   -1    0    0    0  501 -0.00000000000E+00 -0.00000000000E+00 -0.33597874232E+04  0.33597874232E+04  0.00000000000E+00 0.  1.
         23    2    1    2    0    0 -0.13228334445E+04 -0.80123508000E+03 -0.23815413513E+03  0.15674754027E+04  0.91628438251E+02 0.  0.
         11    1    3    3    0    0 -0.37749222183E+03 -0.24519821160E+03 -0.29845968637E+02  0.45112450870E+03  0.00000000000E+00 0.  1.
        -11    1    3    3    0    0 -0.94534122268E+03 -0.55603686841E+03 -0.20830816649E+03  0.11163508940E+04  0.00000000000E+00 0. -1.
         22    1    1    2    0    0  0.13228334445E+04  0.80123508000E+03 -0.22135973392E+04  0.27003479693E+04  0.00000000000E+00 0.  1.
<mgrwt>
<rscale>  0 0.34933123E+04</rscale>
<asrwt>0</asrwt>
<pdfrwt beam="1">  1        1 0.13969784E+00 0.34933123E+04</pdfrwt>
<pdfrwt beam="2">  1       -1 0.51689038E+00 0.34933123E+04</pdfrwt>
<totfact> 0.17027488E-02</totfact>
</mgrwt>
</event>
<event>
 6    1  0.1780144E-005  0.1462973E+04  0.7818608E-02  0.8909455E-01
          2   -1    0    0  501    0  0.00000000000E+00  0.00000000000E+00  0.27815792568E+04  0.27815792568E+04  0.00000000000E+00 0. -1.
         -2   -1    0    0    0  501 -0.00000000000E+00 -0.00000000000E+00 -0.19236295929E+03  0.19236295929E+03  0.00000000000E+00 0.  1.
         23    2    1    2    0    0 -0.65272723741E+03  0.32327146043E+03  0.12295490117E+04  0.14314596679E+04  0.82028805067E+02 0.  0.
         11    1    3    3    0    0 -0.21528712130E+03  0.13151435492E+03  0.36404935878E+03  0.44291817052E+03  0.00000000000E+00 0. -1.
        -11    1    3    3    0    0 -0.43744011611E+03  0.19175710551E+03  0.86549965297E+03  0.98854149735E+03  0.00000000000E+00 0.  1.
         22    1    1    2    0    0  0.65272723741E+03 -0.32327146043E+03  0.13596672857E+04  0.15424825482E+04  0.00000000000E+00 0.  1.
<mgrwt>
<rscale>  0 0.14629734E+04</rscale>
<asrwt>0</asrwt>
<pdfrwt beam="1">  1        2 0.42793524E+00 0.14629734E+04</pdfrwt>
<pdfrwt beam="2">  1       -2 0.29594303E-01 0.14629734E+04</pdfrwt>
<totfact> 0.24312380E+01</totfact>
</mgrwt>
</event>
<event>
 6    1  0.1780144E-005  0.1848579E+04  0.7818608E-02  0.8680884E-01
          2   -1    0    0  501    0  0.00000000000E+00  0.00000000000E+00  0.80887510131E+03  0.80887510131E+03  0.00000000000E+00 0. -1.
         -2   -1    0    0    0  501 -0.00000000000E+00 -0.00000000000E+00 -0.10561716590E+04  0.10561716590E+04  0.00000000000E+00 0.  1.
         23    2    1    2    0    0  0.14608220206E+03  0.35581502803E+03 -0.96937906945E+03  0.10469101594E+04  0.91546477906E+02 0.  0.
         11    1    3    3    0    0  0.44729120174E+02  0.18112604977E+03 -0.56308908623E+03  0.59319192436E+03  0.00000000000E+00 0.  1.
        -11    1    3    3    0    0  0.10135308188E+03  0.17468897826E+03 -0.40628998323E+03  0.45371823503E+03  0.00000000000E+00 0. -1.
         22    1    1    2    0    0 -0.14608220206E+03 -0.35581502803E+03  0.72208251177E+03  0.81813660090E+03  0.00000000000E+00 0. -1.
<mgrwt>
<rscale>  0 0.18485789E+04</rscale>
<asrwt>0</asrwt>
<pdfrwt beam="1">  1        2 0.12444232E+00 0.18485789E+04</pdfrwt>
<pdfrwt beam="2">  1       -2 0.16248795E+00 0.18485789E+04</pdfrwt>
<totfact> 0.77047585E+00</totfact>
</mgrwt>
</event>
<event>
 6    1  0.1780144E-005  0.3441200E+04  0.7818608E-02  0.8127868E-01
          2   -1    0    0  501    0  0.00000000000E+00  0.00000000000E+00  0.13834417957E+04  0.13834417957E+04  0.00000000000E+00 0.  1.
         -2   -1    0    0    0  501 -0.00000000000E+00 -0.00000000000E+00 -0.21399266032E+04  0.21399266032E+04  0.00000000000E+00 0. -1.
         23    2    1    2    0    0 -0.28577418977E+03 -0.11262074973E+04  0.91915800831E+03  0.14843026665E+04  0.91064522193E+02 0.  0.
         11    1    3    3    0    0 -0.21597673063E+03 -0.86594512937E+03  0.75329616954E+03  0.11678878518E+04  0.00000000000E+00 0. -1.
        -11    1    3    3    0    0 -0.69797459139E+02 -0.26026236792E+03  0.16586183877E+03  0.31641481479E+03  0.00000000000E+00 0.  1.
         22    1    1    2    0    0  0.28577418977E+03  0.11262074973E+04 -0.16756428159E+04  0.20390657323E+04  0.00000000000E+00 0. -1.
<mgrwt>
<rscale>  0 0.34411997E+04</rscale>
<asrwt>0</asrwt>
<pdfrwt beam="1">  1        2 0.21283720E+00 0.34411997E+04</pdfrwt>
<pdfrwt beam="2">  1       -2 0.32921948E+00 0.34411997E+04</pdfrwt>
<totfact> 0.25628469E-01</totfact>
</mgrwt>
</event>
<event>
 6    1  0.1780144E-005  0.1621083E+04  0.7818608E-02  0.8807700E-01
          2   -1    0    0  501    0  0.00000000000E+00  0.00000000000E+00  0.14462952521E+04  0.14462952521E+04  0.00000000000E+00 0. -1.
         -2   -1    0    0    0  501 -0.00000000000E+00 -0.00000000000E+00 -0.45424830705E+03  0.45424830705E+03  0.00000000000E+00 0.  1.
         23    2    1    2    0    0  0.77312166007E+03  0.22550476848E+03  0.42139595233E+03  0.91352174714E+03  0.91531043787E+02 0.  0.
         13    1    3    3    0    0  0.46365845562E+03  0.13423560178E+03  0.20148556292E+03  0.52306289518E+03  0.00000000000E+00 0. -1.
        -13    1    3    3    0    0  0.30946320445E+03  0.91269166704E+02  0.21991038941E+03  0.39045885196E+03  0.00000000000E+00 0.  1.
         22    1    1    2    0    0 -0.77312166007E+03 -0.22550476848E+03  0.57065099272E+03  0.98702181200E+03  0.00000000000E+00 0.  1.
<mgrwt>
<rscale>  0 0.16210826E+04</rscale>
<asrwt>0</asrwt>
<pdfrwt beam="1">  1        2 0.22250696E+00 0.16210826E+04</pdfrwt>
<pdfrwt beam="2">  1       -2 0.69884356E-01 0.16210826E+04</pdfrwt>
<totfact> 0.24319084E+01</totfact>
</mgrwt>
</event>
<event>
 6    1  0.1780144E-005  0.1230644E+04  0.7818608E-02  0.9086449E-01
          2   -1    0    0  501    0  0.00000000000E+00  0.00000000000E+00  0.11467336468E+04  0.11467336468E+04  0.00000000000E+00 0. -1.
         -2   -1    0    0    0  501 -0.00000000000E+00 -0.00000000000E+00 -0.33017351421E+03  0.33017351421E+03  0.00000000000E+00 0.  1.
         23    2    1    2    0    0  0.31698183520E+03 -0.50843527240E+03  0.26167742751E+03  0.66028073085E+03  0.92258643978E+02 0.  0.
         13    1    3    3    0    0  0.81427633382E+02 -0.12023270246E+03  0.22123657109E+02  0.14688709413E+03  0.00000000000E+00 0.  1.
        -13    1    3    3    0    0  0.23555420181E+03 -0.38820256995E+03  0.23955377040E+03  0.51339363671E+03  0.00000000000E+00 0. -1.
         22    1    1    2    0    0 -0.31698183520E+03  0.50843527240E+03  0.55488270510E+03  0.81662643020E+03  0.00000000000E+00 0. -1.
<mgrwt>
<rscale>  0 0.12306439E+04</rscale>
<asrwt>0</asrwt>
<pdfrwt beam="1">  1        2 0.17642056E+00 0.12306439E+04</pdfrwt>
<pdfrwt beam="2">  1       -2 0.50795926E-01 0.12306439E+04</pdfrwt>
<totfact> 0.73572463E+01</totfact>
</mgrwt>
</event>
<event>
 6    1  0.1780144E-005  0.2134311E+04  0.7818608E-02  0.8546278E-01
         -2   -1    0    0    0  501 -0.00000000000E+00  0.00000000000E+00  0.10830006402E+04  0.10830006402E+04  0.00000000000E+00 0. -1.
          2   -1    0    0  501    0  0.00000000000E+00 -0.00000000000E+00 -0.10515417589E+04  0.10515417589E+04  0.00000000000E+00 0.  1.
         23    2    1    2    0    0  0.52493768686E+03 -0.71764846264E+03  0.60237918973E+03  0.10778830928E+04  0.91609947752E+02 0.  0.
         11    1    3    3    0    0  0.43431956731E+03 -0.53412882763E+03  0.48267970306E+03  0.84077748947E+03  0.00000000000E+00 0.  1.
        -11    1    3    3    0    0  0.90618119554E+02 -0.18351963501E+03  0.11969948666E+03  0.23710560334E+03  0.00000000000E+00 0. -1.
         22    1    1    2    0    0 -0.52493768686E+03  0.71764846264E+03 -0.57092030837E+03  0.10566593063E+04  0.00000000000E+00 0.  1.
<mgrwt>
<rscale>  0 0.21343106E+04</rscale>
<asrwt>0</asrwt>
<pdfrwt beam="1">  1        2 0.16177565E+00 0.21343106E+04</pdfrwt>
<pdfrwt beam="2">  1       -2 0.16661548E+00 0.21343106E+04</pdfrwt>
<totfact> 0.48367826E+00</totfact>
</mgrwt>
</event>
<event>
 6    1  0.1780144E-005  0.2327278E+04  0.7818608E-02  0.8467243E-01
         -2   -1    0    0    0  501 -0.00000000000E+00  0.00000000000E+00  0.33656471839E+03  0.33656471839E+03  0.00000000000E+00 0.  1.
          2   -1    0    0  501    0  0.00000000000E+00 -0.00000000000E+00 -0.40231672105E+04  0.40231672105E+04  0.00000000000E+00 0. -1.
         23    2    1    2    0    0 -0.11085732238E+04 -0.27163914710E+03 -0.22538594283E+04  0.25279363329E+04  0.88641760234E+02 0.  0.
         11    1    3    3    0    0 -0.78523375729E+03 -0.20795057521E+03 -0.15186820483E+04  0.17222748501E+04  0.00000000000E+00 0.  1.
        -11    1    3    3    0    0 -0.32333946651E+03 -0.63688571885E+02 -0.73517738003E+03  0.80566148282E+03  0.00000000000E+00 0. -1.
         22    1    1    2    0    0  0.11085732238E+04  0.27163914710E+03 -0.14327430638E+04  0.18317955960E+04  0.00000000000E+00 0.  1.
<mgrwt>
<rscale>  0 0.23272784E+04</rscale>
<asrwt>0</asrwt>
<pdfrwt beam="1">  1        2 0.61894875E+00 0.23272784E+04</pdfrwt>
<pdfrwt beam="2">  1       -2 0.51779192E-01 0.23272784E+04</pdfrwt>
<totfact> 0.10497468E+00</totfact>
</mgrwt>
</event>
<event>
 6    1  0.1780144E-005  0.5374717E+04  0.7818608E-02  0.7773167E-01
         -2   -1    0    0    0  501 -0.00000000000E+00  0.00000000000E+00  0.18326225531E+04  0.18326225531E+04  0.00000000000E+00 0.  1.
          2   -1    0    0  501    0  0.00000000000E+00 -0.00000000000E+00 -0.39407430992E+04  0.39407430992E+04  0.00000000000E+00 0. -1.
         23    2    1    2    0    0  0.21964350572E+04  0.15468237691E+04 -0.10698678487E+04  0.28932685365E+04  0.96927176255E+02 0.  0.
         13    1    3    3    0    0  0.14185972197E+04  0.95076259429E+03 -0.65296146979E+03  0.18283124086E+04  0.00000000000E+00 0. -1.
        -13    1    3    3    0    0  0.77783783742E+03  0.59606117476E+03 -0.41690637895E+03  0.10649561278E+04  0.00000000000E+00 0.  1.
         22    1    1    2    0    0 -0.21964350572E+04 -0.15468237691E+04 -0.10382526974E+04  0.28800971158E+04  0.00000000000E+00 0. -1.
<mgrwt>
<rscale>  0 0.53747166E+04</rscale>
<asrwt>0</asrwt>
<pdfrwt beam="1">  1        2 0.60626815E+00 0.53747166E+04</pdfrwt>
<pdfrwt beam="2">  1       -2 0.28194194E+00 0.53747166E+04</pdfrwt>
<totfact> 0.11005327E-02</totfact>
</mgrwt>
</event>
<event>
 6    1  0.1780144E-005  0.1968249E+04  0.7818608E-02  0.8621611E-01
          2   -1    0    0  501    0  0.00000000000E+00  0.00000000000E+00  0.22599485203E+04  0.22599485203E+04  0.00000000000E+00 0. -1.
         -2   -1    0    0    0  501 -0.00000000000E+00 -0.00000000000E+00 -0.42855025265E+03  0.42855025265E+03  0.00000000000E+00 0.  1.
         23    2    1    2    0    0  0.90266431952E+02  0.65402525104E+03 -0.75306700427E+02  0.67072254823E+03  0.91107518034E+02 0.  0.
         13    1    3    3    0    0  0.63195866624E+02  0.25585859905E+03 -0.65273901081E+02  0.27151063041E+03  0.00000000000E+00 0.  1.
        -13    1    3    3    0    0  0.27070565328E+02  0.39816665199E+03 -0.10032799346E+02  0.39921191782E+03  0.00000000000E+00 0. -1.
         22    1    1    2    0    0 -0.90266431952E+02 -0.65402525104E+03  0.19067049681E+04  0.20177762247E+04  0.00000000000E+00 0. -1.
<mgrwt>
<rscale>  0 0.19682495E+04</rscale>
<asrwt>0</asrwt>
<pdfrwt beam="1">  1        2 0.34768438E+00 0.19682495E+04</pdfrwt>
<pdfrwt beam="2">  1       -2 0.65930810E-01 0.19682495E+04</pdfrwt>
<totfact> 0.94217304E+00</totfact>
</mgrwt>
</event>
<event>
 6    1  0.1780144E-005  0.2900380E+04  0.7818608E-02  0.8272764E-01
         -2   -1    0    0    0  501 -0.00000000000E+00  0.00000000000E+00  0.50955627748E+03  0.50955627748E+03  0.00000000000E+00 0.  1.
          2   -1    0    0  501    0  0.00000000000E+00 -0.00000000000E+00 -0.41272212769E+04  0.41272212769E+04  0.00000000000E+00 0. -1.
         23    2    1    2    0    0 -0.19322762469E+01 -0.11214134044E+04 -0.34443213395E+03  0.11767739202E+04  0.92690921966E+02 0.  0.
         13    1    3    3    0    0 -0.39226682198E+02 -0.77482745337E+03 -0.21661706980E+03  0.80549318434E+03  0.00000000000E+00 0. -1.
        -13    1    3    3    0    0  0.37294405951E+02 -0.34658595102E+03 -0.12781506416E+03  0.37128073581E+03  0.00000000000E+00 0.  1.
         22    1    1    2    0    0  0.19322762469E+01  0.11214134044E+04 -0.32732328655E+04  0.34600036343E+04  0.00000000000E+00 0. -1.
<mgrwt>
<rscale>  0 0.29003803E+04</rscale>
<asrwt>0</asrwt>
<pdfrwt beam="1">  1        2 0.63495713E+00 0.29003803E+04</pdfrwt>
<pdfrwt beam="2">  1       -2 0.78393273E-01 0.29003803E+04</pdfrwt>
<totfact> 0.33523315E-01</totfact>
</mgrwt>
</event>
<event>
 6    1  0.1780144E-005  0.3064741E+04  0.7818608E-02  0.8225482E-01
          2   -1    0    0  501    0  0.00000000000E+00  0.00000000000E+00  0.11975777494E+04  0.11975777494E+04  0.00000000000E+00 0.  1.
         -2   -1    0    0    0  501 -0.00000000000E+00 -0.00000000000E+00 -0.19607573041E+04  0.19607573041E+04  0.00000000000E+00 0. -1.
         23    2    1    2    0    0  0.78390853027E+03 -0.18994539024E+03 -0.17228649869E+04  0.19047051385E+04  0.95110810963E+02 0.  0.
         11    1    3    3    0    0  0.42228968547E+03 -0.11756743605E+03 -0.82920847007E+03  0.93794315783E+03  0.00000000000E+00 0. -1.
        -11    1    3    3    0    0  0.36161884480E+03 -0.72377954184E+02 -0.89365651685E+03  0.96676198067E+03  0.00000000000E+00 0.  1.
         22    1    1    2    0    0 -0.78390853027E+03  0.18994539024E+03  0.95968543218E+03  0.12536299150E+04  0.00000000000E+00 0.  1.
<mgrwt>
<rscale>  0 0.30647410E+04</rscale>
<asrwt>0</asrwt>
<pdfrwt beam="1">  1        2 0.18424273E+00 0.30647410E+04</pdfrwt>
<pdfrwt beam="2">  1       -2 0.30165497E+00 0.30647410E+04</pdfrwt>
<totfact> 0.50240448E-01</totfact>
</mgrwt>
</event>
<event>
 6    1  0.1780144E-005  0.4627991E+04  0.7818608E-02  0.7888605E-01
          1   -1    0    0  501    0  0.00000000000E+00  0.00000000000E+00  0.34840921347E+04  0.34840921347E+04  0.00000000000E+00 0. -1.
         -1   -1    0    0    0  501 -0.00000000000E+00 -0.00000000000E+00 -0.15368637185E+04  0.15368637185E+04  0.00000000000E+00 0.  1.
         23    2    1    2    0    0 -0.75487749261E+03  0.21410167714E+04  0.49295353013E+03  0.23249016460E+04  0.91496648339E+02 0.  0.
         13    1    3    3    0    0 -0.34612603319E+03  0.89636602833E+03  0.24462447700E+03  0.99152227527E+03  0.00000000000E+00 0. -1.
        -13    1    3    3    0    0 -0.40875145943E+03  0.12446507430E+04  0.24832905312E+03  0.13333793708E+04  0.00000000000E+00 0.  1.
         22    1    1    2    0    0  0.75487749261E+03 -0.21410167714E+04  0.14542748861E+04  0.26960542073E+04  0.00000000000E+00 0. -1.
<mgrwt>
<rscale>  0 0.46279908E+04</rscale>
<asrwt>0</asrwt>
<pdfrwt beam="1">  1        1 0.53601417E+00 0.46279908E+04</pdfrwt>
<pdfrwt beam="2">  1       -1 0.23644057E+00 0.46279908E+04</pdfrwt>
<totfact> 0.16347465E-02</totfact>
</mgrwt>
</event>
<event>
 6    1  0.1780144E-005  0.8580790E+03  0.7818608E-02  0.9479557E-01
         -2   -1    0    0    0  501 -0.00000000000E+00  0.00000000000E+00  0.14993941302E+03  0.14993941302E+03  0.00000000000E+00 0.  1.
          2   -1    0    0  501    0  0.00000000000E+00 -0.00000000000E+00 -0.12276617127E+04  0.12276617127E+04  0.00000000000E+00 0. -1.
         23    2    1    2    0    0 -0.90482977209E+02  0.28712696060E+03 -0.65037701375E+02  0.32111678778E+03  0.90868190927E+02 0.  0.
         13    1    3    3    0    0 -0.52470971395E+02  0.25733111307E+03 -0.72006252041E+02  0.27231857250E+03  0.00000000000E+00 0.  1.
        -13    1    3    3    0    0 -0.38012005814E+02  0.29795847530E+02  0.69685506656E+01  0.48798215279E+02  0.00000000000E+00 0. -1.
         22    1    1    2    0    0  0.90482977209E+02 -0.28712696060E+03 -0.10126845983E+04  0.10564843380E+04  0.00000000000E+00 0. -1.
<mgrwt>
<rscale>  0 0.85807896E+03</rscale>
<asrwt>0</asrwt>
<pdfrwt beam="1">  1        2 0.18887103E+00 0.85807896E+03</pdfrwt>
<pdfrwt beam="2">  1       -2 0.23067602E-01 0.85807896E+03</pdfrwt>
<totfact> 0.30329050E+02</totfact>
</mgrwt>
</event>
<event>
 6    1  0.1780144E-005  0.1116469E+04  0.7818608E-02  0.9189287E-01
         -1   -1    0    0    0  501 -0.00000000000E+00  0.00000000000E+00  0.80787153977E+03  0.80787153977E+03  0.00000000000E+00 0.  1.
          1   -1    0    0  501    0  0.00000000000E+00 -0.00000000000E+00 -0.38573663052E+03  0.38573663052E+03  0.00000000000E+00 0. -1.
         23    2    1    2    0    0  0.50841422124E+03  0.89966913023E+02  0.42855690726E+03  0.67725527947E+03  0.91840214604E+02 0.  0.
         11    1    3    3    0    0  0.33879206994E+02  0.31519737130E+01  0.33338714835E+01  0.34188452786E+02  0.00000000000E+00 0. -1.
        -11    1    3    3    0    0  0.47453501424E+03  0.86814939310E+02  0.42522303577E+03  0.64306682669E+03  0.00000000000E+00 0.  1.
         22    1    1    2    0    0 -0.50841422124E+03 -0.89966913023E+02 -0.64219980091E+01  0.51635289082E+03  0.00000000000E+00 0. -1.
<mgrwt>
<rscale>  0 0.11164688E+04</rscale>
<asrwt>0</asrwt>
<pdfrwt beam="1">  1        1 0.59344097E-01 0.11164688E+04</pdfrwt>
<pdfrwt beam="2">  1       -1 0.12428793E+00 0.11164688E+04</pdfrwt>
<totfact> 0.35592389E+01</totfact>
</mgrwt>
</event>
<event>
 6    1  0.1780144E-005  0.2638544E+04  0.7818608E-02  0.8355225E-01
         -1   -1    0    0    0  501 -0.00000000000E+00  0.00000000000E+00  0.19130644579E+04  0.19130644579E+04  0.00000000000E+00 0.  1.
          1   -1    0    0  501    0  0.00000000000E+00 -0.00000000000E+00 -0.90978596958E+03  0.90978596958E+03  0.00000000000E+00 0. -1.
         23    2    1    2    0    0  0.26890704626E+03  0.67431907253E+03 -0.67423506785E+03  0.99499131305E+03  0.91638284690E+02 0.  0.
         13    1    3    3    0    0  0.13520408585E+03  0.29288102556E+03 -0.35715612904E+03  0.48126909363E+03  0.00000000000E+00 0. -1.
        -13    1    3    3    0    0  0.13370296041E+03  0.38143804697E+03 -0.31707893880E+03  0.51372221942E+03  0.00000000000E+00 0.  1.
         22    1    1    2    0    0 -0.26890704626E+03 -0.67431907253E+03  0.16775135561E+04  0.18278591144E+04  0.00000000000E+00 0.  1.
<mgrwt>
<rscale>  0 0.26385444E+04</rscale>
<asrwt>0</asrwt>
<pdfrwt beam="1">  1        1 0.13996707E+00 0.26385444E+04</pdfrwt>
<pdfrwt beam="2">  1       -1 0.29431761E+00 0.26385444E+04</pdfrwt>
<totfact> 0.56369470E-01</totfact>
</mgrwt>
</event>
<event>
 6    1  0.1780144E-005  0.4663586E+04  0.7818608E-02  0.7882607E-01
         -1   -1    0    0    0  501 -0.00000000000E+00  0.00000000000E+00  0.23769202044E+04  0.23769202044E+04  0.00000000000E+00 0.  1.
          1   -1    0    0  501    0  0.00000000000E+00 -0.00000000000E+00 -0.22875230432E+04  0.22875230432E+04  0.00000000000E+00 0. -1.
         23    2    1    2    0    0 -0.10907217760E+04  0.10800411538E+04 -0.17094730820E+04  0.22996817294E+04  0.10037406050E+03 0.  0.
         13    1    3    3    0    0 -0.69510053993E+03  0.75417063184E+03 -0.11499758909E+04  0.15409031937E+04  0.00000000000E+00 0.  1.
        -13    1    3    3    0    0 -0.39562123602E+03  0.32587052200E+03 -0.55949719104E+03  0.75877853573E+03  0.00000000000E+00 0. -1.
         22    1    1    2    0    0  0.10907217760E+04 -0.10800411538E+04  0.17988702432E+04  0.23647615183E+04  0.00000000000E+00 0.  1.
<mgrwt>
<rscale>  0 0.46635865E+04</rscale>
<asrwt>0</asrwt>
<pdfrwt beam="1">  1        1 0.35192662E+00 0.46635865E+04</pdfrwt>
<pdfrwt beam="2">  1       -1 0.36568003E+00 0.46635865E+04</pdfrwt>
<totfact> 0.17192103E-02</totfact>
</mgrwt>
</event>
<event>
 6    1  0.1780144E-005  0.4219043E+04  0.7818608E-02  0.7961760E-01
         -2   -1    0    0    0  501 -0.00000000000E+00  0.00000000000E+00  0.15939818220E+04  0.15939818220E+04  0.00000000000E+00 0.  1.
          2   -1    0    0  501    0  0.00000000000E+00 -0.00000000000E+00 -0.27918009345E+04  0.27918009345E+04  0.00000000000E+00 0. -1.
         23    2    1    2    0    0 -0.61075991086E+03  0.12637499644E+02  0.14986830393E+04  0.16209480001E+04  0.90742447357E+02 0.  0.
         11    1    3    3    0    0 -0.20247997249E+03 -0.32703182903E+02  0.44380874697E+03  0.48891087257E+03  0.00000000000E+00 0. -1.
        -11    1    3    3    0    0 -0.40827993838E+03  0.45340682547E+02  0.10548742923E+04  0.11320371276E+04  0.00000000000E+00 0.  1.
         22    1    1    2    0    0  0.61075991086E+03 -0.12637499644E+02 -0.26965021518E+04  0.27648347564E+04  0.00000000000E+00 0. -1.
<mgrwt>
<rscale>  0 0.42190425E+04</rscale>
<asrwt>0</asrwt>
<pdfrwt beam="1">  1        2 0.42950783E+00 0.42190425E+04</pdfrwt>
<pdfrwt beam="2">  1       -2 0.24522797E+00 0.42190425E+04</pdfrwt>
<totfact> 0.12463143E-01</totfact>
</mgrwt>
</event>
<event>
 6    1  0.1780144E-005  0.2956100E+04  0.7818608E-02  0.8256379E-01
         -1   -1    0    0    0  501 -0.00000000000E+00  0.00000000000E+00  0.80822543724E+03  0.80822543724E+03  0.00000000000E+00 0.  1.
          1   -1    0    0  501    0  0.00000000000E+00 -0.00000000000E+00 -0.27029982415E+04  0.27029982415E+04  0.00000000000E+00 0. -1.
         23    2    1    2    0    0 -0.13469866497E+04  0.45593511787E+03 -0.47580878081E+03  0.15023163225E+04  0.91161782713E+02 0.  0.
         11    1    3    3    0    0 -0.10602621694E+04  0.32711517482E+03 -0.39469294359E+03  0.11776853252E+04  0.00000000000E+00 0. -1.
        -11    1    3    3    0    0 -0.28672448027E+03  0.12881994305E+03 -0.81115837216E+02  0.32463099723E+03  0.00000000000E+00 0.  1.
         22    1    1    2    0    0  0.13469866497E+04 -0.45593511787E+03 -0.14189640234E+04  0.20089073563E+04  0.00000000000E+00 0. -1.
<mgrwt>
<rscale>  0 0.29561001E+04</rscale>
<asrwt>0</asrwt>
<pdfrwt beam="1">  1        1 0.41584588E+00 0.29561001E+04</pdfrwt>
<pdfrwt beam="2">  1       -1 0.12434238E+00 0.29561001E+04</pdfrwt>
<totfact> 0.47279085E-01</totfact>
</mgrwt>
</event>
<event>
 6    1  0.1780144E-005  0.1274884E+04  0.7818608E-02  0.9049723E-01
          2   -1    0    0  501    0  0.00000000000E+00  0.00000000000E+00  0.84389215822E+03  0.84389215822E+03  0.00000000000E+00 0. -1.
         -2   -1    0    0    0  501 -0.00000000000E+00 -0.00000000000E+00 -0.48149801370E+03  0.48149801370E+03  0.00000000000E+00 0.  1.
         23    2    1    2    0    0 -0.42240511152E+03  0.87189800095E+02  0.66552267859E+03  0.79821368568E+03  0.90534594598E+02 0.  0.
         13    1    3    3    0    0 -0.29539197584E+03  0.10137103321E+03  0.45289370550E+03  0.55013199711E+03  0.00000000000E+00 0.  1.
        -13    1    3    3    0    0 -0.12701313567E+03 -0.14181233116E+02  0.21262897309E+03  0.24808168857E+03  0.00000000000E+00 0. -1.
         22    1    1    2    0    0  0.42240511152E+03 -0.87189800095E+02 -0.30312853407E+03  0.52717648624E+03  0.00000000000E+00 0.  1.
<mgrwt>
<rscale>  0 0.12748841E+04</rscale>
<asrwt>0</asrwt>
<pdfrwt beam="1">  1        2 0.12982956E+00 0.12748841E+04</pdfrwt>
<pdfrwt beam="2">  1       -2 0.74076618E-01 0.12748841E+04</pdfrwt>
<totfact> 0.51673242E+01</totfact>
</mgrwt>
</event>
<event>
 6    1  0.1780144E-005  0.3958046E+04  0.7818608E-02  0.8013064E-01
         -1   -1    0    0    0  501 -0.00000000000E+00  0.00000000000E+00  0.55523436940E+04  0.55523436940E+04  0.00000000000E+00 0.  1.
          1   -1    0    0  501    0  0.00000000000E+00 -0.00000000000E+00 -0.70538347128E+03  0.70538347128E+03  0.00000000000E+00 0. -1.
         23    2    1    2    0    0  0.78212993034E+03  0.14841449545E+04  0.40814444114E+04  0.44137022383E+04  0.90363108025E+02 0.  0.
         13    1    3    3    0    0  0.37340071421E+03  0.75841494744E+03  0.21575944547E+04  0.23172904775E+04  0.00000000000E+00 0.  1.
        -13    1    3    3    0    0  0.40872921612E+03  0.72573000705E+03  0.19238499567E+04  0.20964117609E+04  0.00000000000E+00 0. -1.
         22    1    1    2    0    0 -0.78212993034E+03 -0.14841449545E+04  0.76551581130E+03  0.18440249269E+04  0.00000000000E+00 0. -1.
<mgrwt>
<rscale>  0 0.39580457E+04</rscale>
<asrwt>0</asrwt>
<pdfrwt beam="1">  1        1 0.10852054E+00 0.39580457E+04</pdfrwt>
<pdfrwt beam="2">  1       -1 0.85420670E+00 0.39580457E+04</pdfrwt>
<totfact> 0.57216172E-04</totfact>
</mgrwt>
</event>
<event>
 6    1  0.1780144E-005  0.2314362E+04  0.7818608E-02  0.8472280E-01
          2   -1    0    0  501    0  0.00000000000E+00  0.00000000000E+00  0.21797445724E+04  0.21797445724E+04  0.00000000000E+00 0. -1.
         -2   -1    0    0    0  501 -0.00000000000E+00 -0.00000000000E+00 -0.61432318859E+03  0.61432318859E+03  0.00000000000E+00 0.  1.
         23    2    1    2    0    0 -0.44995166540E+03 -0.24191166312E+03  0.20352054424E+04  0.21000397964E+04  0.84428664968E+02 0.  0.
         11    1    3    3    0    0 -0.22764893005E+03 -0.90152996626E+02  0.84373853435E+03  0.87854784303E+03  0.00000000000E+00 0.  1.
        -11    1    3    3    0    0 -0.22230273535E+03 -0.15175866649E+03  0.11914669081E+04  0.12214919533E+04  0.00000000000E+00 0. -1.
         22    1    1    2    0    0  0.44995166540E+03  0.24191166312E+03 -0.46978405862E+03  0.69402796462E+03  0.00000000000E+00 0.  1.
<mgrwt>
<rscale>  0 0.23143618E+04</rscale>
<asrwt>0</asrwt>
<pdfrwt beam="1">  1        2 0.33534532E+00 0.23143618E+04</pdfrwt>
<pdfrwt beam="2">  1       -2 0.94511261E-01 0.23143618E+04</pdfrwt>
<totfact> 0.45277244E+00</totfact>
</mgrwt>
</event>
<event>
 6    1  0.1780144E-005  0.1229903E+04  0.7818608E-02  0.9087078E-01
         -1   -1    0    0    0  501 -0.00000000000E+00  0.00000000000E+00  0.22675513475E+03  0.22675513475E+03  0.00000000000E+00 0. -1.
          1   -1    0    0  501    0  0.00000000000E+00 -0.00000000000E+00 -0.16677255835E+04  0.16677255835E+04  0.00000000000E+00 0.  1.
         23    2    1    2    0    0  0.38962367660E+03 -0.10774340924E+03 -0.16795839901E+02  0.41404545520E+03  0.87956165948E+02 0.  0.
         11    1    3    3    0    0  0.17650229777E+03 -0.69307829095E+02 -0.47077820815E+02  0.19537900989E+03  0.00000000000E+00 0.  1.
        -11    1    3    3    0    0  0.21312137883E+03 -0.38435580145E+02  0.30281980914E+02  0.21866644531E+03  0.00000000000E+00 0. -1.
         22    1    1    2    0    0 -0.38962367660E+03  0.10774340924E+03 -0.14241746088E+04  0.14804352630E+04  0.00000000000E+00 0.  1.
<mgrwt>
<rscale>  0 0.12299030E+04</rscale>
<asrwt>0</asrwt>
<pdfrwt beam="1">  1        1 0.25657317E+00 0.12299030E+04</pdfrwt>
<pdfrwt beam="2">  1       -1 0.34885405E-01 0.12299030E+04</pdfrwt>
<totfact> 0.38661343E+01</totfact>
</mgrwt>
</event>
<event>
 6    1  0.1780144E-005  0.4528391E+04  0.7818608E-02  0.7905685E-01
          2   -1    0    0  501    0  0.00000000000E+00  0.00000000000E+00  0.13539531251E+04  0.13539531251E+04  0.00000000000E+00 0. -1.
         -2   -1    0    0    0  501 -0.00000000000E+00 -0.00000000000E+00 -0.37863799113E+04  0.37863799113E+04  0.00000000000E+00 0.  1.
         23    2    1    2    0    0 -0.15114848733E+03 -0.12097741468E+04 -0.33812530871E+04  0.35954477007E+04  0.89288173741E+02 0.  0.
         11    1    3    3    0    0 -0.82939609545E+02 -0.50193474684E+03 -0.15265861940E+04  0.16091248792E+04  0.00000000000E+00 0. -1.
        -11    1    3    3    0    0 -0.68208877789E+02 -0.70783939992E+03 -0.18546668930E+04  0.19863228215E+04  0.00000000000E+00 0.  1.
         22    1    1    2    0    0  0.15114848733E+03  0.12097741468E+04  0.94882630082E+03  0.15448853357E+04  0.00000000000E+00 0. -1.
<mgrwt>
<rscale>  0 0.45283908E+04</rscale>
<asrwt>0</asrwt>
<pdfrwt beam="1">  1        2 0.20830048E+00 0.45283908E+04</pdfrwt>
<pdfrwt beam="2">  1       -2 0.58251998E+00 0.45283908E+04</pdfrwt>
<totfact> 0.70056270E-03</totfact>
</mgrwt>
</event>
<event>
 6    1  0.1780144E-005  0.1390756E+04  0.7818608E-02  0.8960537E-01
         -1   -1    0    0    0  501 -0.00000000000E+00  0.00000000000E+00  0.34445400569E+03  0.34445400569E+03  0.00000000000E+00 0.  1.
          1   -1    0    0  501    0  0.00000000000E+00 -0.00000000000E+00 -0.14038168246E+04  0.14038168246E+04  0.00000000000E+00 0. -1.
         23    2    1    2    0    0  0.15309343773E+03  0.65055667714E+03 -0.30265500047E+03  0.73868264031E+03  0.85967452756E+02 0.  0.
         13    1    3    3    0    0  0.30058455286E+00  0.77448519017E+02 -0.12726122820E+02  0.78487691079E+02  0.00000000000E+00 0. -1.
        -13    1    3    3    0    0  0.15279285318E+03  0.57310815813E+03 -0.28992887765E+03  0.66019494923E+03  0.00000000000E+00 0.  1.
         22    1    1    2    0    0 -0.15309343773E+03 -0.65055667714E+03 -0.75670781840E+03  0.10095881899E+04  0.00000000000E+00 0. -1.
<mgrwt>
<rscale>  0 0.13907557E+04</rscale>
<asrwt>0</asrwt>
<pdfrwt beam="1">  1        1 0.21597182E+00 0.13907557E+04</pdfrwt>
<pdfrwt beam="2">  1       -1 0.52992924E-01 0.13907557E+04</pdfrwt>
<totfact> 0.26747375E+01</totfact>
</mgrwt>
</event>
<event>
 6    1  0.1780144E-005  0.1202715E+04  0.7818608E-02  0.9110483E-01
         -3   -1    0    0    0  501 -0.00000000000E+00  0.00000000000E+00  0.69029585552E+03  0.69029585552E+03  0.00000000000E+00 0.  1.
          3   -1    0    0  501    0  0.00000000000E+00 -0.00000000000E+00 -0.52387829095E+03  0.52387829095E+03  0.00000000000E+00 0. -1.
         23    2    1    2    0    0  0.56125341867E+03 -0.92317190343E+02  0.26955414953E+03  0.63610406529E+03  0.91875343561E+02 0.  0.
         11    1    3    3    0    0  0.31676365907E+03 -0.35206019040E+02  0.10354443164E+03  0.33511211379E+03  0.00000000000E+00 0.  1.
        -11    1    3    3    0    0  0.24448975959E+03 -0.57111171303E+02  0.16600971789E+03  0.30099195150E+03  0.00000000000E+00 0. -1.
         22    1    1    2    0    0 -0.56125341867E+03  0.92317190343E+02 -0.10313658496E+03  0.57807008118E+03  0.00000000000E+00 0.  1.
<mgrwt>
<rscale>  0 0.12027153E+04</rscale>
<asrwt>0</asrwt>
<pdfrwt beam="1">  1        3 0.80596661E-01 0.12027153E+04</pdfrwt>
<pdfrwt beam="2">  1       -3 0.10619936E+00 0.12027153E+04</pdfrwt>
<totfact> 0.28059458E+00</totfact>
</mgrwt>
</event>
<event>
 6    1  0.1780144E-005  0.2226231E+04  0.7818608E-02  0.8507589E-01
          2   -1    0    0  501    0  0.00000000000E+00  0.00000000000E+00  0.19340667978E+04  0.19340667978E+04  0.00000000000E+00 0. -1.
         -2   -1    0    0    0  501 -0.00000000000E+00 -0.00000000000E+00 -0.64063231976E+03  0.64063231976E+03  0.00000000000E+00 0.  1.
         23    2    1    2    0    0 -0.62777546647E+03 -0.90654018150E+03  0.48913688513E+03  0.12098504978E+04  0.92553754845E+02 0.  0.
         13    1    3    3    0    0 -0.36388512101E+03 -0.53235109409E+03  0.23605941332E+03  0.68668341708E+03  0.00000000000E+00 0.  1.
        -13    1    3    3    0    0 -0.26389034546E+03 -0.37418908742E+03  0.25307747180E+03  0.52316708068E+03  0.00000000000E+00 0. -1.
         22    1    1    2    0    0  0.62777546647E+03  0.90654018150E+03  0.80429759289E+03  0.13648486198E+04  0.00000000000E+00 0.  1.
<mgrwt>
<rscale>  0 0.22262306E+04</rscale>
<asrwt>0</asrwt>
<pdfrwt beam="1">  1        2 0.29754874E+00 0.22262306E+04</pdfrwt>
<pdfrwt beam="2">  1       -2 0.98558819E-01 0.22262306E+04</pdfrwt>
<totfact> 0.56678926E+00</totfact>
</mgrwt>
</event>
<event>
 6    1  0.1780144E-005  0.1285871E+04  0.7818608E-02  0.9040845E-01
          2   -1    0    0  501    0  0.00000000000E+00  0.00000000000E+00  0.10733929874E+04  0.10733929874E+04  0.00000000000E+00 0. -1.
         -2   -1    0    0    0  501 -0.00000000000E+00 -0.00000000000E+00 -0.38510235391E+03  0.38510235391E+03  0.00000000000E+00 0.  1.
         23    2    1    2    0    0  0.35063989675E+03  0.53025430269E+03  0.42577129993E+03  0.77072040484E+03  0.92794287967E+02 0.  0.
         11    1    3    3    0    0  0.37696174072E+02  0.12330222515E+03  0.79108205787E+02  0.15126978710E+03  0.00000000000E+00 0.  1.
        -11    1    3    3    0    0  0.31294372267E+03  0.40695207754E+03  0.34666309414E+03  0.61945061774E+03  0.00000000000E+00 0. -1.
         22    1    1    2    0    0 -0.35063989675E+03 -0.53025430269E+03  0.26251933353E+03  0.68777493644E+03  0.00000000000E+00 0. -1.
<mgrwt>
<rscale>  0 0.12858712E+04</rscale>
<asrwt>0</asrwt>
<pdfrwt beam="1">  1        2 0.16513738E+00 0.12858712E+04</pdfrwt>
<pdfrwt beam="2">  1       -2 0.59246516E-01 0.12858712E+04</pdfrwt>
<totfact> 0.59066866E+01</totfact>
</mgrwt>
</event>
<event>
 6    1  0.1780144E-005  0.4658867E+04  0.7818608E-02  0.7883399E-01
         -2   -1    0    0    0  501 -0.00000000000E+00  0.00000000000E+00  0.30460962818E+04  0.30460962818E+04  0.00000000000E+00 0.  1.
          2   -1    0    0  501    0  0.00000000000E+00 -0.00000000000E+00 -0.17813818520E+04  0.17813818520E+04  0.00000000000E+00 0. -1.
         23    2    1    2    0    0 -0.43625261625E+03  0.22504355380E+04  0.20908213016E+03  0.23037634100E+04  0.93989660414E+02 0.  0.
         13    1    3    3    0    0 -0.31437422404E+03  0.14958631983E+04  0.10190871505E+03  0.15319344786E+04  0.00000000000E+00 0. -1.
        -13    1    3    3    0    0 -0.12187839221E+03  0.75457233970E+03  0.10717341511E+03  0.77182893133E+03  0.00000000000E+00 0.  1.
         22    1    1    2    0    0  0.43625261625E+03 -0.22504355380E+04  0.10556322996E+04  0.25237147239E+04  0.00000000000E+00 0.  1.
<mgrwt>
<rscale>  0 0.46588671E+04</rscale>
<asrwt>0</asrwt>
<pdfrwt beam="1">  1        2 0.27405875E+00 0.46588671E+04</pdfrwt>
<pdfrwt beam="2">  1       -2 0.46863020E+00 0.46588671E+04</pdfrwt>
<totfact> 0.17350004E-02</totfact>
</mgrwt>
</event>
<event>
 6    1  0.1780144E-005  0.8114676E+03  0.7818608E-02  0.9543565E-01
         -2   -1    0    0    0  501 -0.00000000000E+00  0.00000000000E+00  0.12840529666E+03  0.12840529666E+03  0.00000000000E+00 0. -1.
          2   -1    0    0  501    0  0.00000000000E+00 -0.00000000000E+00 -0.12820337436E+04  0.12820337436E+04  0.00000000000E+00 0.  1.
         23    2    1    2    0    0  0.50066429570E+02 -0.23471216222E+03 -0.11416521912E+04  0.11701478062E+04  0.90992946527E+02 0.  0.
         11    1    3    3    0    0  0.30912158122E+02 -0.43130832141E+02 -0.13136417569E+03  0.14167701597E+03  0.00000000000E+00 0.  1.
        -11    1    3    3    0    0  0.19154271448E+02 -0.19158133008E+03 -0.10102880155E+04  0.10284707902E+04  0.00000000000E+00 0. -1.
         22    1    1    2    0    0 -0.50066429570E+02  0.23471216222E+03 -0.11976255789E+02  0.24029123406E+03  0.00000000000E+00 0. -1.
<mgrwt>
<rscale>  0 0.81146762E+03</rscale>
<asrwt>0</asrwt>
<pdfrwt beam="1">  1        2 0.19723596E+00 0.81146762E+03</pdfrwt>
<pdfrwt beam="2">  1       -2 0.19754661E-01 0.81146762E+03</pdfrwt>
<totfact> 0.37166407E+02</totfact>
</mgrwt>
</event>
<event>
 6    1  0.1780144E-005  0.3198072E+04  0.7818608E-02  0.8189327E-01
         -2   -1    0    0    0  501 -0.00000000000E+00  0.00000000000E+00  0.89990182719E+03  0.89990182719E+03  0.00000000000E+00 0.  1.
          2   -1    0    0  501    0  0.00000000000E+00 -0.00000000000E+00 -0.28413275720E+04  0.28413275720E+04  0.00000000000E+00 0. -1.
         23    2    1    2    0    0 -0.10765298184E+03  0.15406834321E+04 -0.49297257492E+03  0.16238463002E+04  0.92521591154E+02 0.  0.
         13    1    3    3    0    0 -0.87399044671E+02  0.11364384317E+04 -0.40527953788E+03  0.12097034372E+04  0.00000000000E+00 0.  1.
        -13    1    3    3    0    0 -0.20253937166E+02  0.40424500036E+03 -0.87693037037E+02  0.41414286307E+03  0.00000000000E+00 0. -1.
         22    1    1    2    0    0  0.10765298184E+03 -0.15406834321E+04 -0.14484531699E+04  0.21173830989E+04  0.00000000000E+00 0. -1.
<mgrwt>
<rscale>  0 0.31980718E+04</rscale>
<asrwt>0</asrwt>
<pdfrwt beam="1">  1        2 0.43712732E+00 0.31980718E+04</pdfrwt>
<pdfrwt beam="2">  1       -2 0.13844644E+00 0.31980718E+04</pdfrwt>
<totfact> 0.67921788E-01</totfact>
</mgrwt>
</event>
<event>
 6    1  0.1780144E-005  0.8857850E+03  0.7818608E-02  0.9443527E-01
         -1   -1    0    0    0  501 -0.00000000000E+00  0.00000000000E+00  0.15822502224E+03  0.15822502224E+03  0.00000000000E+00 0.  1.
          1   -1    0    0  501    0  0.00000000000E+00 -0.00000000000E+00 -0.12397138334E+04  0.12397138334E+04  0.00000000000E+00 0. -1.
         23    2    1    2    0    0  0.27173805671E+03  0.22652893577E+03 -0.13676793504E+03  0.38915024350E+03  0.87037427333E+02 0.  0.
         13    1    3    3    0    0  0.12069125623E+03  0.58088622142E+02 -0.79536388724E+02  0.15577774066E+03  0.00000000000E+00 0. -1.
        -13    1    3    3    0    0  0.15104680048E+03  0.16844031363E+03 -0.57231546311E+02  0.23337250284E+03  0.00000000000E+00 0.  1.
         22    1    1    2    0    0 -0.27173805671E+03 -0.22652893577E+03 -0.94472087610E+03  0.10087886121E+04  0.00000000000E+00 0. -1.
<mgrwt>
<rscale>  0 0.88578496E+03</rscale>
<asrwt>0</asrwt>
<pdfrwt beam="1">  1        1 0.19072520E+00 0.88578496E+03</pdfrwt>
<pdfrwt beam="2">  1       -1 0.24342311E-01 0.88578496E+03</pdfrwt>
<totfact> 0.14767526E+02</totfact>
</mgrwt>
</event>
<event>
 6    1  0.1780144E-005  0.2140328E+04  0.7818608E-02  0.8543684E-01
         -2   -1    0    0    0  501 -0.00000000000E+00  0.00000000000E+00  0.50961900578E+03  0.50961900578E+03  0.00000000000E+00 0.  1.
          2   -1    0    0  501    0  0.00000000000E+00 -0.00000000000E+00 -0.22472690767E+04  0.22472690767E+04  0.00000000000E+00 0. -1.
         23    2    1    2    0    0  0.10859299600E+02 -0.10441072689E+04 -0.58032263240E+03  0.11981434872E+04  0.92171280637E+02 0.  0.
         11    1    3    3    0    0 -0.35148473741E+02 -0.21941556466E+03 -0.11892756814E+03  0.25203644912E+03  0.00000000000E+00 0.  1.
        -11    1    3    3    0    0  0.46007773341E+02 -0.82469170421E+03 -0.46139506425E+03  0.94610703809E+03  0.00000000000E+00 0. -1.
         22    1    1    2    0    0 -0.10859299600E+02  0.10441072689E+04 -0.11573274385E+04  0.15587445952E+04  0.00000000000E+00 0. -1.
<mgrwt>
<rscale>  0 0.21403280E+04</rscale>
<asrwt>0</asrwt>
<pdfrwt beam="1">  1        2 0.34573371E+00 0.21403280E+04</pdfrwt>
<pdfrwt beam="2">  1       -2 0.78402923E-01 0.21403280E+04</pdfrwt>
<totfact> 0.64512811E+00</totfact>
</mgrwt>
</event>
<event>
 6    1  0.1780144E-005  0.2092181E+04  0.7818608E-02  0.8564696E-01
         -2   -1    0    0    0  501 -0.00000000000E+00  0.00000000000E+00  0.10679885237E+04  0.10679885237E+04  0.00000000000E+00 0. -1.
          2   -1    0    0  501    0  0.00000000000E+00 -0.00000000000E+00 -0.10246411889E+04  0.10246411889E+04  0.00000000000E+00 0.  1.
         23    2    1    2    0    0 -0.84812019830E+03  0.42537989946E+03 -0.41410291950E+03  0.10392937431E+04  0.91620559514E+02 0.  0.
         11    1    3    3    0    0 -0.20857605420E+03  0.11394161485E+03 -0.62243740379E+02  0.24568464583E+03  0.00000000000E+00 0. -1.
        -11    1    3    3    0    0 -0.63954414410E+03  0.31143828461E+03 -0.35185917912E+03  0.79360909729E+03  0.00000000000E+00 0.  1.
         22    1    1    2    0    0  0.84812019830E+03 -0.42537989946E+03  0.45745025429E+03  0.10533359696E+04  0.00000000000E+00 0. -1.
<mgrwt>
<rscale>  0 0.20921807E+04</rscale>
<asrwt>0</asrwt>
<pdfrwt beam="1">  1        2 0.15763711E+00 0.20921807E+04</pdfrwt>
<pdfrwt beam="2">  1       -2 0.16430593E+00 0.20921807E+04</pdfrwt>
<totfact> 0.52455652E+00</totfact>
</mgrwt>
</event>
<event>
 6    1  0.1780144E-005  0.7758255E+04  0.7818608E-02  0.7503920E-01
          2   -1    0    0  501    0  0.00000000000E+00  0.00000000000E+00  0.33226297735E+04  0.33226297735E+04  0.00000000000E+00 0. -1.
         -2   -1    0    0    0  501 -0.00000000000E+00 -0.00000000000E+00 -0.45288308692E+04  0.45288308692E+04  0.00000000000E+00 0.  1.
         23    2    1    2    0    0  0.16563745630E+04  0.23486894285E+04  0.20326591867E+04  0.35213180753E+04  0.89771343953E+02 0.  0.
         13    1    3    3    0    0  0.16249348877E+04  0.22809718135E+04  0.19858479395E+04  0.34331964468E+04  0.00000000000E+00 0. -1.
        -13    1    3    3    0    0  0.31439675249E+02  0.67717614987E+02  0.46811247191E+02  0.88121628576E+02  0.00000000000E+00 0.  1.
         22    1    1    2    0    0 -0.16563745630E+04 -0.23486894285E+04 -0.32388602824E+04  0.43301425673E+04  0.00000000000E+00 0.  1.
<mgrwt>
<rscale>  0 0.77582545E+04</rscale>
<asrwt>0</asrwt>
<pdfrwt beam="1">  1        2 0.51117381E+00 0.77582545E+04</pdfrwt>
<pdfrwt beam="2">  1       -2 0.69674321E+00 0.77582545E+04</pdfrwt>
<totfact> 0.15256323E-04</totfact>
</mgrwt>
</event>
<event>
 6    1  0.1780144E-005  0.2664330E+04  0.7818608E-02  0.8346672E-01
         -2   -1    0    0    0  501 -0.00000000000E+00  0.00000000000E+00  0.13924188274E+04  0.13924188274E+04  0.00000000000E+00 0. -1.
          2   -1    0    0  501    0  0.00000000000E+00 -0.00000000000E+00 -0.12745184994E+04  0.12745184994E+04  0.00000000000E+00 0.  1.
         23    2    1    2    0    0 -0.10743778166E+04 -0.20016612609E+03  0.81887630950E+03  0.13685839476E+04  0.90052431928E+02 0.  0.
         13    1    3    3    0    0 -0.79508411019E+03 -0.18792775544E+03  0.61327444623E+03  0.10215581873E+04  0.00000000000E+00 0. -1.
        -13    1    3    3    0    0 -0.27929370640E+03 -0.12238370648E+02  0.20560186327E+03  0.34702576033E+03  0.00000000000E+00 0.  1.
         22    1    1    2    0    0  0.10743778166E+04  0.20016612609E+03 -0.70097598153E+03  0.12983533793E+04  0.00000000000E+00 0.  1.
<mgrwt>
<rscale>  0 0.26643300E+04</rscale>
<asrwt>0</asrwt>
<pdfrwt beam="1">  1        2 0.19607977E+00 0.26643300E+04</pdfrwt>
<pdfrwt beam="2">  1       -2 0.21421828E+00 0.26643300E+04</pdfrwt>
<totfact> 0.16195686E+00</totfact>
</mgrwt>
</event>
<event>
 6    1  0.1780144E-005  0.1954534E+04  0.7818608E-02  0.8628178E-01
          1   -1    0    0  501    0  0.00000000000E+00  0.00000000000E+00  0.31721652810E+04  0.31721652810E+04  0.00000000000E+00 0. -1.
         -1   -1    0    0    0  501 -0.00000000000E+00 -0.00000000000E+00 -0.30107215333E+03  0.30107215333E+03  0.00000000000E+00 0.  1.
         23    2    1    2    0    0 -0.73416202367E+03  0.39187235341E+03  0.23418503900E+04  0.24870043515E+04  0.91485390547E+02 0.  0.
         11    1    3    3    0    0 -0.29289281845E+03  0.10905190203E+03  0.91897510209E+03  0.97066665684E+03  0.00000000000E+00 0.  1.
        -11    1    3    3    0    0 -0.44126920522E+03  0.28282045138E+03  0.14228752879E+04  0.15163376947E+04  0.00000000000E+00 0. -1.
         22    1    1    2    0    0  0.73416202367E+03 -0.39187235341E+03  0.52924273768E+03  0.98623308287E+03  0.00000000000E+00 0.  1.
<mgrwt>
<rscale>  0 0.19545338E+04</rscale>
<asrwt>0</asrwt>
<pdfrwt beam="1">  1        1 0.48802541E+00 0.19545338E+04</pdfrwt>
<pdfrwt beam="2">  1       -1 0.46318795E-01 0.19545338E+04</pdfrwt>
<totfact> 0.19325011E+00</totfact>
</mgrwt>
</event>
<event>
 6    1  0.1780144E-005  0.1924196E+04  0.7818608E-02  0.8642906E-01
         -4   -1    0    0    0  501 -0.00000000000E+00  0.00000000000E+00  0.13037786778E+04  0.13037786778E+04  0.00000000000E+00 0. -1.
          4   -1    0    0  501    0  0.00000000000E+00 -0.00000000000E+00 -0.70996111205E+03  0.70996111205E+03  0.00000000000E+00 0.  1.
         23    2    1    2    0    0  0.80322307410E+03  0.41877090968E+03 -0.34786743611E+02  0.91116110362E+03  0.92022049858E+02 0.  0.
         13    1    3    3    0    0  0.16512683550E+03  0.12485073430E+03  0.94994732558E+01  0.20723131436E+03  0.00000000000E+00 0.  1.
        -13    1    3    3    0    0  0.63809623859E+03  0.29392017538E+03 -0.44286216867E+02  0.70392978926E+03  0.00000000000E+00 0. -1.
         22    1    1    2    0    0 -0.80322307410E+03 -0.41877090968E+03  0.62860430934E+03  0.11025786862E+04  0.00000000000E+00 0. -1.
<mgrwt>
<rscale>  0 0.19241956E+04</rscale>
<asrwt>0</asrwt>
<pdfrwt beam="1">  1        4 0.10922479E+00 0.19241956E+04</pdfrwt>
<pdfrwt beam="2">  1       -4 0.20058133E+00 0.19241956E+04</pdfrwt>
<totfact> 0.16271041E-01</totfact>
</mgrwt>
</event>
<event>
 6    1  0.1780144E-005  0.4731593E+04  0.7818608E-02  0.7871300E-01
          1   -1    0    0  501    0  0.00000000000E+00  0.00000000000E+00  0.31396100422E+04  0.31396100422E+04  0.00000000000E+00 0. -1.
         -1   -1    0    0    0  501 -0.00000000000E+00 -0.00000000000E+00 -0.17827035406E+04  0.17827035406E+04  0.00000000000E+00 0.  1.
         23    2    1    2    0    0 -0.71466710916E+03 -0.13453946655E+04  0.25604950107E+04  0.29808035566E+04  0.90660136879E+02 0.  0.
         11    1    3    3    0    0 -0.91479335124E+02 -0.11886834708E+03  0.23278586545E+03  0.27692492095E+03  0.00000000000E+00 0.  1.
        -11    1    3    3    0    0 -0.62318777404E+03 -0.12265263184E+04  0.23277091453E+04  0.27038786357E+04  0.00000000000E+00 0. -1.
         22    1    1    2    0    0  0.71466710916E+03  0.13453946655E+04 -0.12035885091E+04  0.19415100262E+04  0.00000000000E+00 0.  1.
<mgrwt>
<rscale>  0 0.47315934E+04</rscale>
<asrwt>0</asrwt>
<pdfrwt beam="1">  1        1 0.48301693E+00 0.47315934E+04</pdfrwt>
<pdfrwt beam="2">  1       -1 0.27426208E+00 0.47315934E+04</pdfrwt>
<totfact> 0.16857040E-02</totfact>
</mgrwt>
</event>
<event>
 6    1  0.1780144E-005  0.1023011E+04  0.7818608E-02  0.9283660E-01
          2   -1    0    0  501    0  0.00000000000E+00  0.00000000000E+00  0.82768957983E+03  0.82768957983E+03  0.00000000000E+00 0.  1.
         -2   -1    0    0    0  501 -0.00000000000E+00 -0.00000000000E+00 -0.31610655110E+03  0.31610655110E+03  0.00000000000E+00 0. -1.
         23    2    1    2    0    0  0.44566090707E+03  0.19122526905E+03  0.42488990782E+03  0.65115382171E+03  0.91044594301E+02 0.  0.
         13    1    3    3    0    0  0.33551479599E+03  0.17871449879E+03  0.35485250992E+03  0.52002822443E+03  0.00000000000E+00 0.  1.
        -13    1    3    3    0    0  0.11014611108E+03  0.12510770252E+02  0.70037397903E+02  0.13112559728E+03  0.00000000000E+00 0. -1.
         22    1    1    2    0    0 -0.44566090707E+03 -0.19122526905E+03  0.86693120909E+02  0.49264230921E+03  0.00000000000E+00 0. -1.
<mgrwt>
<rscale>  0 0.10230114E+04</rscale>
<asrwt>0</asrwt>
<pdfrwt beam="1">  1        2 0.12733686E+00 0.10230114E+04</pdfrwt>
<pdfrwt beam="2">  1       -2 0.48631777E-01 0.10230114E+04</pdfrwt>
<totfact> 0.13138811E+02</totfact>
</mgrwt>
</event>
<event>
 6    1  0.3276972E-005  0.4138553E+04  0.7818608E-02  0.7977165E-01
         -1   -1    0    0    0  501 -0.00000000000E+00  0.00000000000E+00  0.18859763997E+04  0.18859763997E+04  0.00000000000E+00 0.  1.
          1   -1    0    0  501    0  0.00000000000E+00 -0.00000000000E+00 -0.22703914739E+04  0.22703914739E+04  0.00000000000E+00 0. -1.
         23    2    1    2    0    0  0.95364434172E+03  0.16650117765E+04  0.58317036071E+03  0.20074324813E+04  0.89418963700E+02 0.  0.
         13    1    3    3    0    0  0.62150009984E+03  0.10547430364E+04  0.41393070487E+03  0.12923172503E+04  0.00000000000E+00 0.  1.
        -13    1    3    3    0    0  0.33214424188E+03  0.61026874010E+03  0.16923965584E+03  0.71511523104E+03  0.00000000000E+00 0. -1.
         22    1    1    2    0    0 -0.95364434172E+03 -0.16650117765E+04 -0.96758543494E+03  0.21489353923E+04  0.00000000000E+00 0.  1.
<mgrwt>
<rscale>  0 0.41385528E+04</rscale>
<asrwt>0</asrwt>
<pdfrwt beam="1">  1        1 0.34929099E+00 0.41385528E+04</pdfrwt>
<pdfrwt beam="2">  1       -1 0.29015022E+00 0.41385528E+04</pdfrwt>
<totfact> 0.57733067E-02</totfact>
</mgrwt>
</event>
<event>
 6    1  0.1780144E-005  0.3475980E+04  0.7818608E-02  0.8119506E-01
          1   -1    0    0  501    0  0.00000000000E+00  0.00000000000E+00  0.22744294727E+04  0.22744294727E+04  0.00000000000E+00 0. -1.
         -1   -1    0    0    0  501 -0.00000000000E+00 -0.00000000000E+00 -0.13280730931E+04  0.13280730931E+04  0.00000000000E+00 0.  1.
         23    2    1    2    0    0 -0.34252210873E+02 -0.97536516835E+03  0.19624535552E+04  0.21936150984E+04  0.90624598636E+02 0.  0.
         13    1    3    3    0    0  0.30778420015E+01 -0.78782228625E+03  0.15363116786E+04  0.17265361281E+04  0.00000000000E+00 0.  1.
        -13    1    3    3    0    0 -0.37330052875E+02 -0.18754288210E+03  0.42614187659E+03  0.46707897026E+03  0.00000000000E+00 0. -1.
         22    1    1    2    0    0  0.34252210873E+02  0.97536516835E+03 -0.10160971757E+04  0.14088874675E+04  0.00000000000E+00 0.  1.
<mgrwt>
<rscale>  0 0.34759796E+04</rscale>
<asrwt>0</asrwt>
<pdfrwt beam="1">  1        1 0.34991223E+00 0.34759796E+04</pdfrwt>
<pdfrwt beam="2">  1       -1 0.20431894E+00 0.34759796E+04</pdfrwt>
<totfact> 0.22264815E-01</totfact>
</mgrwt>
</event>
<event>
 6    1  0.1780144E-005  0.1914246E+04  0.7818608E-02  0.8647797E-01
         -2   -1    0    0    0  501 -0.00000000000E+00  0.00000000000E+00  0.16949703548E+04  0.16949703548E+04  0.00000000000E+00 0.  1.
          2   -1    0    0  501    0  0.00000000000E+00 -0.00000000000E+00 -0.54047239606E+03  0.54047239606E+03  0.00000000000E+00 0. -1.
         23    2    1    2    0    0 -0.25178002291E+03 -0.63085173966E+03  0.13623565512E+04  0.15251102289E+04  0.92621490030E+02 0.  0.
         11    1    3    3    0    0 -0.68304439904E+02 -0.27662913185E+03  0.51575435669E+03  0.58922977652E+03  0.00000000000E+00 0.  1.
        -11    1    3    3    0    0 -0.18347558301E+03 -0.35422260781E+03  0.84660219446E+03  0.93588045236E+03  0.00000000000E+00 0. -1.
         22    1    1    2    0    0  0.25178002291E+03  0.63085173966E+03 -0.20785859239E+03  0.71033252199E+03  0.00000000000E+00 0. -1.
<mgrwt>
<rscale>  0 0.19142463E+04</rscale>
<asrwt>0</asrwt>
<pdfrwt beam="1">  1        2 0.83149600E-01 0.19142463E+04</pdfrwt>
<pdfrwt beam="2">  1       -2 0.26076467E+00 0.19142463E+04</pdfrwt>
<totfact> 0.29023344E+00</totfact>
</mgrwt>
</event>
<event>
 6    1  0.1780144E-005  0.2208559E+04  0.7818608E-02  0.8514874E-01
         -2   -1    0    0    0  501 -0.00000000000E+00  0.00000000000E+00  0.39300022170E+03  0.39300022170E+03  0.00000000000E+00 0.  1.
          2   -1    0    0  501    0  0.00000000000E+00 -0.00000000000E+00 -0.31028813287E+04  0.31028813287E+04  0.00000000000E+00 0. -1.
         23    2    1    2    0    0 -0.21326183969E+03  0.88115793018E+03 -0.36448590381E+03  0.98136398845E+03  0.91133932054E+02 0.  0.
         11    1    3    3    0    0 -0.13625540535E+03  0.58429058302E+03 -0.19446015851E+03  0.63069467584E+03  0.00000000000E+00 0.  1.
        -11    1    3    3    0    0 -0.77006434340E+02  0.29686734716E+03 -0.17002574530E+03  0.35066931261E+03  0.00000000000E+00 0. -1.
         22    1    1    2    0    0  0.21326183969E+03 -0.88115793018E+03 -0.23453952032E+04  0.25145175619E+04  0.00000000000E+00 0. -1.
<mgrwt>
<rscale>  0 0.22085589E+04</rscale>
<asrwt>0</asrwt>
<pdfrwt beam="1">  1        2 0.47736636E+00 0.22085589E+04</pdfrwt>
<pdfrwt beam="2">  1       -2 0.60461572E-01 0.22085589E+04</pdfrwt>
<totfact> 0.34931937E+00</totfact>
</mgrwt>
</event>
<event>
 6    1  0.1780144E-005  0.9315977E+03  0.7818608E-02  0.9386922E-01
         -2   -1    0    0    0  501 -0.00000000000E+00  0.00000000000E+00  0.34661384523E+03  0.34661384523E+03  0.00000000000E+00 0.  1.
          2   -1    0    0  501    0  0.00000000000E+00 -0.00000000000E+00 -0.62596624864E+03  0.62596624864E+03  0.00000000000E+00 0. -1.
         23    2    1    2    0    0 -0.32996102881E+03  0.66783544381E+00 -0.47855779935E+03  0.58714849643E+03  0.82771148389E+02 0.  0.
         11    1    3    3    0    0 -0.13791148330E+03  0.18335105147E+02 -0.26565646901E+03  0.29988183144E+03  0.00000000000E+00 0. -1.
        -11    1    3    3    0    0 -0.19204954551E+03 -0.17667269703E+02 -0.21290133035E+03  0.28726666499E+03  0.00000000000E+00 0.  1.
         22    1    1    2    0    0  0.32996102881E+03 -0.66783544381E+00  0.19920539594E+03  0.38543159745E+03  0.00000000000E+00 0.  1.
<mgrwt>
<rscale>  0 0.93159770E+03</rscale>
<asrwt>0</asrwt>
<pdfrwt beam="1">  1        2 0.96302499E-01 0.93159770E+03</pdfrwt>
<pdfrwt beam="2">  1       -2 0.53325207E-01 0.93159770E+03</pdfrwt>
<totfact> 0.15646690E+02</totfact>
</mgrwt>
</event>
<event>
 6    1  0.1780144E-005  0.2507924E+04  0.7818608E-02  0.8400168E-01
         -2   -1    0    0    0  501 -0.00000000000E+00  0.00000000000E+00  0.52535608438E+03  0.52535608438E+03  0.00000000000E+00 0.  1.
          2   -1    0    0  501    0  0.00000000000E+00 -0.00000000000E+00 -0.29930579460E+04  0.29930579460E+04  0.00000000000E+00 0. -1.
         23    2    1    2    0    0 -0.82921738639E+02  0.12489652175E+04 -0.11801270211E+04  0.17226860167E+04  0.90317201151E+02 0.  0.
         11    1    3    3    0    0 -0.34190704280E+02  0.85019462012E+03 -0.75164917272E+03  0.11353309540E+04  0.00000000000E+00 0.  1.
        -11    1    3    3    0    0 -0.48731034359E+02  0.39877059740E+03 -0.42847784843E+03  0.58735506268E+03  0.00000000000E+00 0. -1.
         22    1    1    2    0    0  0.82921738639E+02 -0.12489652175E+04 -0.12875748405E+04  0.17957280137E+04  0.00000000000E+00 0.  1.
<mgrwt>
<rscale>  0 0.25079244E+04</rscale>
<asrwt>0</asrwt>
<pdfrwt beam="1">  1        2 0.46047046E+00 0.25079244E+04</pdfrwt>
<pdfrwt beam="2">  1       -2 0.80824012E-01 0.25079244E+04</pdfrwt>
<totfact> 0.21175964E+00</totfact>
</mgrwt>
</event>
<event>
 6    1  0.1780144E-005  0.9872864E+03  0.7818608E-02  0.9322600E-01
          2   -1    0    0  501    0  0.00000000000E+00  0.00000000000E+00  0.57339510013E+03  0.57339510013E+03  0.00000000000E+00 0. -1.
         -2   -1    0    0    0  501 -0.00000000000E+00 -0.00000000000E+00 -0.42498379131E+03  0.42498379131E+03  0.00000000000E+00 0.  1.
         23    2    1    2    0    0  0.39066755904E+03 -0.29338327230E+03  0.90541712404E+02  0.50639944437E+03  0.97712381102E+02 0.  0.
         13    1    3    3    0    0  0.27861080123E+03 -0.19281869955E+03  0.10605684431E+03  0.35503673568E+03  0.00000000000E+00 0.  1.
        -13    1    3    3    0    0  0.11205675781E+03 -0.10056457276E+03 -0.15515131905E+02  0.15136270869E+03  0.00000000000E+00 0. -1.
         22    1    1    2    0    0 -0.39066755904E+03  0.29338327230E+03  0.57869596410E+02  0.49197944707E+03  0.00000000000E+00 0.  1.
<mgrwt>
<rscale>  0 0.98728643E+03</rscale>
<asrwt>0</asrwt>
<pdfrwt beam="1">  1        2 0.88214630E-01 0.98728643E+03</pdfrwt>
<pdfrwt beam="2">  1       -2 0.65382122E-01 0.98728643E+03</pdfrwt>
<totfact> 0.11290088E+02</totfact>
</mgrwt>
</event>
<event>
 6    1  0.1780144E-005  0.2080034E+04  0.7818608E-02  0.8570090E-01
         -1   -1    0    0    0  501 -0.00000000000E+00  0.00000000000E+00  0.16244991272E+04  0.16244991272E+04  0.00000000000E+00 0.  1.
          1   -1    0    0  501    0  0.00000000000E+00 -0.00000000000E+00 -0.66582685993E+03  0.66582685993E+03  0.00000000000E+00 0. -1.
         23    2    1    2    0    0 -0.32204346982E+03  0.98163031314E+03  0.59098556949E+03  0.11937387467E+04  0.91859588362E+02 0.  0.
         11    1    3    3    0    0 -0.39609053495E+02  0.22318911453E+03  0.10609740306E+03  0.25027767959E+03  0.00000000000E+00 0. -1.
        -11    1    3    3    0    0 -0.28243441632E+03  0.75844119861E+03  0.48488816642E+03  0.94346106714E+03  0.00000000000E+00 0.  1.
         22    1    1    2    0    0  0.32204346982E+03 -0.98163031314E+03  0.36768669780E+03  0.10965872404E+04  0.00000000000E+00 0.  1.
<mgrwt>
<rscale>  0 0.20800338E+04</rscale>
<asrwt>0</asrwt>
<pdfrwt beam="1">  1        1 0.10243490E+00 0.20800338E+04</pdfrwt>
<pdfrwt beam="2">  1       -1 0.24992294E+00 0.20800338E+04</pdfrwt>
<totfact> 0.18894254E+00</totfact>
</mgrwt>
</event>
<event>
 6    1  0.1780144E-005  0.2750754E+04  0.7818608E-02  0.8318722E-01
          1   -1    0    0  501    0  0.00000000000E+00  0.00000000000E+00  0.14354005009E+04  0.14354005009E+04  0.00000000000E+00 0. -1.
         -1   -1    0    0    0  501 -0.00000000000E+00 -0.00000000000E+00 -0.13178637752E+04  0.13178637752E+04  0.00000000000E+00 0.  1.
         23    2    1    2    0    0 -0.28227558558E+03  0.62489110619E+03  0.12504813194E+04  0.14289788637E+04  0.90048108943E+02 0.  0.
         13    1    3    3    0    0 -0.10542310216E+02  0.75127551971E+02  0.10323080834E+03  0.12810889571E+03  0.00000000000E+00 0.  1.
        -13    1    3    3    0    0 -0.27173327536E+03  0.54976355422E+03  0.11472505111E+04  0.13008699680E+04  0.00000000000E+00 0. -1.
         22    1    1    2    0    0  0.28227558558E+03 -0.62489110619E+03 -0.11329445938E+04  0.13242854123E+04  0.00000000000E+00 0.  1.
<mgrwt>
<rscale>  0 0.27507543E+04</rscale>
<asrwt>0</asrwt>
<pdfrwt beam="1">  1        1 0.22083085E+00 0.27507543E+04</pdfrwt>
<pdfrwt beam="2">  1       -1 0.20274827E+00 0.27507543E+04</pdfrwt>
<totfact> 0.90895224E-01</totfact>
</mgrwt>
</event>
<event>
 6    1  0.1780144E-005  0.7534155E+03  0.7818608E-02  0.9630007E-01
          2   -1    0    0  501    0  0.00000000000E+00  0.00000000000E+00  0.23263575237E+04  0.23263575237E+04  0.00000000000E+00 0.  1.
         -2   -1    0    0    0  501 -0.00000000000E+00 -0.00000000000E+00 -0.61000392369E+02  0.61000392369E+02  0.00000000000E+00 0. -1.
         23    2    1    2    0    0  0.13472096704E+03 -0.34580622609E+03  0.11505101552E+04  0.12123619734E+04  0.91740135733E+02 0.  0.
         13    1    3    3    0    0  0.83990158404E+02 -0.11037658760E+03  0.35260084531E+03  0.37889931897E+03  0.00000000000E+00 0.  1.
        -13    1    3    3    0    0  0.50730808640E+02 -0.23542963848E+03  0.79790930988E+03  0.83346265448E+03  0.00000000000E+00 0. -1.
         22    1    1    2    0    0 -0.13472096704E+03  0.34580622609E+03  0.11148469761E+04  0.11749959426E+04  0.00000000000E+00 0.  1.
<mgrwt>
<rscale>  0 0.75341548E+03</rscale>
<asrwt>0</asrwt>
<pdfrwt beam="1">  1        2 0.35790109E+00 0.75341548E+03</pdfrwt>
<pdfrwt beam="2">  1       -2 0.93846776E-02 0.75341548E+03</pdfrwt>
<totfact> 0.34405740E+02</totfact>
</mgrwt>
</event>
<event>
 6    1  0.1780144E-005  0.3139258E+04  0.7818608E-02  0.8205046E-01
         -2   -1    0    0    0  501 -0.00000000000E+00  0.00000000000E+00  0.13694920148E+04  0.13694920148E+04  0.00000000000E+00 0.  1.
          2   -1    0    0  501    0  0.00000000000E+00 -0.00000000000E+00 -0.17990135277E+04  0.17990135277E+04  0.00000000000E+00 0. -1.
         23    2    1    2    0    0 -0.33968996766E+03 -0.15300067836E+04 -0.14762293545E+03  0.15760932718E+04  0.77249196148E+02 0.  0.
         13    1    3    3    0    0 -0.16773990031E+02 -0.99212739402E+02  0.87498676423E+01  0.10100046824E+03  0.00000000000E+00 0. -1.
        -13    1    3    3    0    0 -0.32291597763E+03 -0.14307940442E+04 -0.15637280309E+03  0.14750928035E+04  0.00000000000E+00 0.  1.
         22    1    1    2    0    0  0.33968996766E+03  0.15300067836E+04 -0.28189857748E+03  0.15924122707E+04  0.00000000000E+00 0. -1.
<mgrwt>
<rscale>  0 0.31392577E+04</rscale>
<asrwt>0</asrwt>
<pdfrwt beam="1">  1        2 0.27677131E+00 0.31392577E+04</pdfrwt>
<pdfrwt beam="2">  1       -2 0.21069108E+00 0.31392577E+04</pdfrwt>
<totfact> 0.82879030E-01</totfact>
</mgrwt>
</event>
<event>
 6    1  0.1780144E-005  0.2702389E+04  0.7818608E-02  0.8334230E-01
         -2   -1    0    0    0  501 -0.00000000000E+00  0.00000000000E+00  0.14804158262E+04  0.14804158262E+04  0.00000000000E+00 0. -1.
          2   -1    0    0  501    0  0.00000000000E+00 -0.00000000000E+00 -0.12332526410E+04  0.12332526410E+04  0.00000000000E+00 0.  1.
         23    2    1    2    0    0 -0.57673518079E+03  0.10829624652E+04 -0.44002609626E+03  0.13073753689E+04  0.10087725268E+03 0.  0.
         13    1    3    3    0    0 -0.22174492593E+03  0.50636059745E+03 -0.22648977361E+03  0.59738554081E+03  0.00000000000E+00 0. -1.
        -13    1    3    3    0    0 -0.35499025486E+03  0.57660186777E+03 -0.21353632265E+03  0.70998982814E+03  0.00000000000E+00 0.  1.
         22    1    1    2    0    0  0.57673518079E+03 -0.10829624652E+04  0.68718928144E+03  0.14062930983E+04  0.00000000000E+00 0. -1.
<mgrwt>
<rscale>  0 0.27023891E+04</rscale>
<asrwt>0</asrwt>
<pdfrwt beam="1">  1        2 0.18973117E+00 0.27023891E+04</pdfrwt>
<pdfrwt beam="2">  1       -2 0.22775628E+00 0.27023891E+04</pdfrwt>
<totfact> 0.14017368E+00</totfact>
</mgrwt>
</event>
<event>
 6    1  0.1780144E-005  0.1215315E+04  0.7818608E-02  0.9099556E-01
          2   -1    0    0  501    0  0.00000000000E+00  0.00000000000E+00  0.25123289079E+03  0.25123289079E+03  0.00000000000E+00 0. -1.
         -2   -1    0    0    0  501 -0.00000000000E+00 -0.00000000000E+00 -0.14697420616E+04  0.14697420616E+04  0.00000000000E+00 0.  1.
         23    2    1    2    0    0  0.12778556075E+03 -0.47390837746E+03 -0.11121657214E+04  0.12187526619E+04  0.86759203701E+02 0.  0.
         11    1    3    3    0    0  0.87854711116E+02 -0.37384954212E+03 -0.77746895330E+03  0.86714468444E+03  0.00000000000E+00 0.  1.
        -11    1    3    3    0    0  0.39930849635E+02 -0.10005883534E+03 -0.33469676808E+03  0.35160797751E+03  0.00000000000E+00 0. -1.
         22    1    1    2    0    0 -0.12778556075E+03  0.47390837746E+03 -0.10634344941E+03  0.50222229042E+03  0.00000000000E+00 0. -1.
<mgrwt>
<rscale>  0 0.12153149E+04</rscale>
<asrwt>0</asrwt>
<pdfrwt beam="1">  1        2 0.38651214E-01 0.12153149E+04</pdfrwt>
<pdfrwt beam="2">  1       -2 0.22611416E+00 0.12153149E+04</pdfrwt>
<totfact> 0.11941318E+01</totfact>
</mgrwt>
</event>
<event>
 6    1  0.1780144E-005  0.2821721E+04  0.7818608E-02  0.8296557E-01
         -2   -1    0    0    0  501 -0.00000000000E+00  0.00000000000E+00  0.10885589744E+04  0.10885589744E+04  0.00000000000E+00 0.  1.
          2   -1    0    0  501    0  0.00000000000E+00 -0.00000000000E+00 -0.18285888345E+04  0.18285888345E+04  0.00000000000E+00 0. -1.
         23    2    1    2    0    0 -0.68867708974E+03  0.84670554921E+03 -0.12923591297E+04  0.16939331740E+04  0.89616163345E+02 0.  0.
         11    1    3    3    0    0 -0.28480410151E+03  0.42094396832E+03 -0.60213733164E+03  0.78795721131E+03  0.00000000000E+00 0. -1.
        -11    1    3    3    0    0 -0.40387298824E+03  0.42576158090E+03 -0.69022179810E+03  0.90597596269E+03  0.00000000000E+00 0.  1.
         22    1    1    2    0    0  0.68867708974E+03 -0.84670554921E+03  0.55232926964E+03  0.12232146349E+04  0.00000000000E+00 0.  1.
<mgrwt>
<rscale>  0 0.28217206E+04</rscale>
<asrwt>0</asrwt>
<pdfrwt beam="1">  1        2 0.28132136E+00 0.28217206E+04</pdfrwt>
<pdfrwt beam="2">  1       -2 0.16747061E+00 0.28217206E+04</pdfrwt>
<totfact> 0.16058665E+00</totfact>
</mgrwt>
</event>
<event>
 6    1  0.1780144E-005  0.2866755E+04  0.7818608E-02  0.8282838E-01
          1   -1    0    0  501    0  0.00000000000E+00  0.00000000000E+00  0.31007277225E+04  0.31007277225E+04  0.00000000000E+00 0. -1.
         -1   -1    0    0    0  501 -0.00000000000E+00 -0.00000000000E+00 -0.66260939826E+03  0.66260939826E+03  0.00000000000E+00 0.  1.
         23    2    1    2    0    0 -0.72257768384E+02  0.12453019934E+04  0.29700311986E+03  0.12853596071E+04  0.89107948131E+02 0.  0.
         11    1    3    3    0    0 -0.55303287317E+02  0.35106787726E+03  0.10506000465E+03  0.37060047572E+03  0.00000000000E+00 0. -1.
        -11    1    3    3    0    0 -0.16954481067E+02  0.89423411616E+03  0.19194311521E+03  0.91475913136E+03  0.00000000000E+00 0.  1.
         22    1    1    2    0    0  0.72257768384E+02 -0.12453019934E+04  0.21411152044E+04  0.24779775137E+04  0.00000000000E+00 0. -1.
<mgrwt>
<rscale>  0 0.28667552E+04</rscale>
<asrwt>0</asrwt>
<pdfrwt beam="1">  1        1 0.47703503E+00 0.28667552E+04</pdfrwt>
<pdfrwt beam="2">  1       -1 0.10193991E+00 0.28667552E+04</pdfrwt>
<totfact> 0.39537692E-01</totfact>
</mgrwt>
</event>
<event>
 6    1  0.1780144E-005  0.1522478E+04  0.7818608E-02  0.8869642E-01
         -2   -1    0    0    0  501 -0.00000000000E+00  0.00000000000E+00  0.34049234058E+03  0.34049234058E+03  0.00000000000E+00 0.  1.
          2   -1    0    0  501    0  0.00000000000E+00 -0.00000000000E+00 -0.17019020160E+04  0.17019020160E+04  0.00000000000E+00 0. -1.
         23    2    1    2    0    0 -0.43896445173E+03  0.13571436549E+03 -0.14927405856E+04  0.15645282803E+04  0.91466415451E+02 0.  0.
         13    1    3    3    0    0 -0.27551505637E+03  0.43229523281E+02 -0.82383783095E+03  0.86976209947E+03  0.00000000000E+00 0. -1.
        -13    1    3    3    0    0 -0.16344939536E+03  0.92484842213E+02 -0.66890275461E+03  0.69476618082E+03  0.00000000000E+00 0.  1.
         22    1    1    2    0    0  0.43896445173E+03 -0.13571436549E+03  0.13133091017E+03  0.47786607627E+03  0.00000000000E+00 0.  1.
<mgrwt>
<rscale>  0 0.15224777E+04</rscale>
<asrwt>0</asrwt>
<pdfrwt beam="1">  1        2 0.26183108E+00 0.15224777E+04</pdfrwt>
<pdfrwt beam="2">  1       -2 0.52383437E-01 0.15224777E+04</pdfrwt>
<totfact> 0.32450494E+01</totfact>
</mgrwt>
</event>
<event>
 6    1  0.1780144E-005  0.4536258E+03  0.7818608E-02  0.1026646E+00
          1   -1    0    0  501    0  0.00000000000E+00  0.00000000000E+00  0.73714480983E+03  0.73714480983E+03  0.00000000000E+00 0. -1.
         -1   -1    0    0    0  501 -0.00000000000E+00 -0.00000000000E+00 -0.69788326841E+02  0.69788326841E+02  0.00000000000E+00 0.  1.
         23    2    1    2    0    0 -0.72025498785E+02  0.10457970991E+03  0.66173480172E+03  0.67982612860E+03  0.90255355076E+02 0.  0.
         13    1    3    3    0    0 -0.57574981644E+02  0.38241790737E+02  0.49493758555E+03  0.49974045930E+03  0.00000000000E+00 0. -1.
        -13    1    3    3    0    0 -0.14450517141E+02  0.66337919169E+02  0.16679721617E+03  0.18008566930E+03  0.00000000000E+00 0.  1.
         22    1    1    2    0    0  0.72025498785E+02 -0.10457970991E+03  0.56216812639E+01  0.12710700807E+03  0.00000000000E+00 0.  1.
<mgrwt>
<rscale>  0 0.45362585E+03</rscale>
<asrwt>0</asrwt>
<pdfrwt beam="1">  1        1 0.11340689E+00 0.45362585E+03</pdfrwt>
<pdfrwt beam="2">  1       -1 0.10736666E-01 0.45362585E+03</pdfrwt>
<totfact> 0.14254706E+03</totfact>
</mgrwt>
</event>
<event>
 6    1  0.1780144E-005  0.5522450E+04  0.7818608E-02  0.7752608E-01
          1   -1    0    0  501    0  0.00000000000E+00  0.00000000000E+00  0.20556092064E+04  0.20556092064E+04  0.00000000000E+00 0. -1.
         -1   -1    0    0    0  501 -0.00000000000E+00 -0.00000000000E+00 -0.37090533379E+04  0.37090533379E+04  0.00000000000E+00 0.  1.
         23    2    1    2    0    0 -0.31334511603E+03 -0.24136095365E+04 -0.21865874206E+04  0.32730891612E+04  0.90840257416E+02 0.  0.
         11    1    3    3    0    0 -0.12410569243E+03 -0.65732637346E+03 -0.58338311177E+03  0.88759001754E+03  0.00000000000E+00 0. -1.
        -11    1    3    3    0    0 -0.18923942360E+03 -0.17562831630E+04 -0.16032043088E+04  0.23854991436E+04  0.00000000000E+00 0.  1.
         22    1    1    2    0    0  0.31334511603E+03  0.24136095365E+04  0.53314328912E+03  0.24915733831E+04  0.00000000000E+00 0. -1.
<mgrwt>
<rscale>  0 0.55224502E+04</rscale>
<asrwt>0</asrwt>
<pdfrwt beam="1">  1        1 0.31624757E+00 0.55224502E+04</pdfrwt>
<pdfrwt beam="2">  1       -1 0.57062358E+00 0.55224502E+04</pdfrwt>
<totfact> 0.11365221E-03</totfact>
</mgrwt>
</event>
<event>
 6    1  0.1780144E-005  0.9826902E+03  0.7818608E-02  0.9327736E-01
          2   -1    0    0  501    0  0.00000000000E+00  0.00000000000E+00  0.39853815712E+03  0.39853815712E+03  0.00000000000E+00 0. -1.
         -2   -1    0    0    0  501 -0.00000000000E+00 -0.00000000000E+00 -0.60576382765E+03  0.60576382765E+03  0.00000000000E+00 0.  1.
         23    2    1    2    0    0 -0.78154655103E+02  0.35435155739E+03  0.22781877479E+03  0.43778910253E+03  0.89915114440E+02 0.  0.
         13    1    3    3    0    0 -0.14234903215E+02  0.22986895999E+03  0.11178246108E+03  0.25600330045E+03  0.00000000000E+00 0. -1.
        -13    1    3    3    0    0 -0.63919751888E+02  0.12448259740E+03  0.11603631371E+03  0.18178580207E+03  0.00000000000E+00 0.  1.
         22    1    1    2    0    0  0.78154655103E+02 -0.35435155739E+03 -0.43504444532E+03  0.56651288224E+03  0.00000000000E+00 0.  1.
<mgrwt>
<rscale>  0 0.98269018E+03</rscale>
<asrwt>0</asrwt>
<pdfrwt beam="1">  1        2 0.61313563E-01 0.98269018E+03</pdfrwt>
<pdfrwt beam="2">  1       -2 0.93194435E-01 0.98269018E+03</pdfrwt>
<totfact> 0.77807684E+01</totfact>
</mgrwt>
</event>
<event>
 6    1  0.1780144E-005  0.1574879E+04  0.7818608E-02  0.8836131E-01
          1   -1    0    0  501    0  0.00000000000E+00  0.00000000000E+00  0.15177327287E+04  0.15177327287E+04  0.00000000000E+00 0. -1.
         -1   -1    0    0    0  501 -0.00000000000E+00 -0.00000000000E+00 -0.40854447326E+03  0.40854447326E+03  0.00000000000E+00 0.  1.
         23    2    1    2    0    0  0.17018843395E+02 -0.38649760327E+03  0.13916246998E+04  0.14472778455E+04  0.91234964323E+02 0.  0.
         13    1    3    3    0    0  0.73825228454E+01 -0.29816246324E+03  0.11923926143E+04  0.12291279440E+04  0.00000000000E+00 0. -1.
        -13    1    3    3    0    0  0.96363205495E+01 -0.88335140034E+02  0.19923208548E+03  0.21814990150E+03  0.00000000000E+00 0.  1.
         22    1    1    2    0    0 -0.17018843395E+02  0.38649760327E+03 -0.28243644436E+03  0.47899935644E+03  0.00000000000E+00 0.  1.
<mgrwt>
<rscale>  0 0.15748794E+04</rscale>
<asrwt>0</asrwt>
<pdfrwt beam="1">  1        1 0.23349734E+00 0.15748794E+04</pdfrwt>
<pdfrwt beam="2">  1       -1 0.62852997E-01 0.15748794E+04</pdfrwt>
<totfact> 0.15697350E+01</totfact>
</mgrwt>
</event>
<event>
 6    1  0.1780144E-005  0.4777040E+04  0.7818608E-02  0.7863852E-01
          2   -1    0    0  501    0  0.00000000000E+00  0.00000000000E+00  0.23311654923E+04  0.23311654923E+04  0.00000000000E+00 0. -1.
         -2   -1    0    0    0  501 -0.00000000000E+00 -0.00000000000E+00 -0.24472854591E+04  0.24472854591E+04  0.00000000000E+00 0.  1.
         23    2    1    2    0    0  0.10600606748E+04 -0.17676702993E+04 -0.12635740104E+04  0.24194177377E+04  0.92606634175E+02 0.  0.
         11    1    3    3    0    0  0.57630978116E+03 -0.10494532245E+04 -0.72807924774E+03  0.14012795671E+04  0.00000000000E+00 0. -1.
        -11    1    3    3    0    0  0.48375089362E+03 -0.71821707479E+03 -0.53549476267E+03  0.10181381706E+04  0.00000000000E+00 0.  1.
         22    1    1    2    0    0 -0.10600606748E+04  0.17676702993E+04  0.11474540436E+04  0.23590332137E+04  0.00000000000E+00 0. -1.
<mgrwt>
<rscale>  0 0.47770398E+04</rscale>
<asrwt>0</asrwt>
<pdfrwt beam="1">  1        2 0.35864084E+00 0.47770398E+04</pdfrwt>
<pdfrwt beam="2">  1       -2 0.37650546E+00 0.47770398E+04</pdfrwt>
<totfact> 0.34017021E-02</totfact>
</mgrwt>
</event>
<event>
 6    1  0.1780144E-005  0.3047223E+04  0.7818608E-02  0.8230373E-01
         -2   -1    0    0    0  501 -0.00000000000E+00  0.00000000000E+00  0.14595106613E+04  0.14595106613E+04  0.00000000000E+00 0.  1.
          2   -1    0    0  501    0  0.00000000000E+00 -0.00000000000E+00 -0.15905277203E+04  0.15905277203E+04  0.00000000000E+00 0. -1.
         23    2    1    2    0    0 -0.11652124454E+04 -0.42565984089E+03 -0.94773492753E+03  0.15647995389E+04  0.10719030196E+03 0.  0.
         11    1    3    3    0    0 -0.24195557548E+03 -0.62381745259E+02 -0.14760791138E+03  0.29021040324E+03  0.00000000000E+00 0.  1.
        -11    1    3    3    0    0 -0.92325686996E+03 -0.36327809563E+03 -0.80012701615E+03  0.12745891356E+04  0.00000000000E+00 0. -1.
         22    1    1    2    0    0  0.11652124454E+04  0.42565984089E+03  0.81671786859E+03  0.14852388428E+04  0.00000000000E+00 0.  1.
<mgrwt>
<rscale>  0 0.30472231E+04</rscale>
<asrwt>0</asrwt>
<pdfrwt beam="1">  1        2 0.24469657E+00 0.30472231E+04</pdfrwt>
<pdfrwt beam="2">  1       -2 0.22454010E+00 0.30472231E+04</pdfrwt>
<totfact> 0.89066613E-01</totfact>
</mgrwt>
</event>
<event>
 6    1  0.1780144E-005  0.3876843E+04  0.7818608E-02  0.8029863E-01
          1   -1    0    0  501    0  0.00000000000E+00  0.00000000000E+00  0.13888198650E+04  0.13888198650E+04  0.00000000000E+00 0. -1.
         -1   -1    0    0    0  501 -0.00000000000E+00 -0.00000000000E+00 -0.27055179605E+04  0.27055179605E+04  0.00000000000E+00 0.  1.
         23    2    1    2    0    0 -0.86185930807E+03  0.17067365946E+04 -0.98863773597E+03  0.21543958496E+04  0.90915529557E+02 0.  0.
         11    1    3    3    0    0 -0.38139445089E+03  0.85454920522E+03 -0.47441977236E+03  0.10491854897E+04  0.00000000000E+00 0. -1.
        -11    1    3    3    0    0 -0.48046485718E+03  0.85218738939E+03 -0.51421796362E+03  0.11052103599E+04  0.00000000000E+00 0.  1.
         22    1    1    2    0    0  0.86185930807E+03 -0.17067365946E+04 -0.32806035961E+03  0.19399419759E+04  0.00000000000E+00 0. -1.
<mgrwt>
<rscale>  0 0.38768426E+04</rscale>
<asrwt>0</asrwt>
<pdfrwt beam="1">  1        1 0.21366460E+00 0.38768426E+04</pdfrwt>
<pdfrwt beam="2">  1       -1 0.41623353E+00 0.38768426E+04</pdfrwt>
<totfact> 0.34208974E-02</totfact>
</mgrwt>
</event>
<event>
 6    1  0.1780144E-005  0.1005776E+04  0.7818608E-02  0.9302232E-01
         -2   -1    0    0    0  501 -0.00000000000E+00  0.00000000000E+00  0.60183613380E+03  0.60183613380E+03  0.00000000000E+00 0.  1.
          2   -1    0    0  501    0  0.00000000000E+00 -0.00000000000E+00 -0.42020806571E+03  0.42020806571E+03  0.00000000000E+00 0. -1.
         23    2    1    2    0    0  0.16267451199E+02  0.26414754238E+03 -0.33799513378E+03  0.43890885841E+03  0.91442448660E+02 0.  0.
         13    1    3    3    0    0 -0.30235097990E+02  0.14153284736E+03 -0.21462088055E+03  0.25885870741E+03  0.00000000000E+00 0.  1.
        -13    1    3    3    0    0  0.46502549189E+02  0.12261469502E+03 -0.12337425323E+03  0.18005015100E+03  0.00000000000E+00 0. -1.
         22    1    1    2    0    0 -0.16267451199E+02 -0.26414754238E+03  0.51962320187E+03  0.58313534110E+03  0.00000000000E+00 0.  1.
<mgrwt>
<rscale>  0 0.10057761E+04</rscale>
<asrwt>0</asrwt>
<pdfrwt beam="1">  1        2 0.64647394E-01 0.10057761E+04</pdfrwt>
<pdfrwt beam="2">  1       -2 0.92590175E-01 0.10057761E+04</pdfrwt>
<totfact> 0.74308408E+01</totfact>
</mgrwt>
</event>
<event>
 6    1  0.1780144E-005  0.2475018E+04  0.7818608E-02  0.8411940E-01
         -2   -1    0    0    0  501 -0.00000000000E+00  0.00000000000E+00  0.10863000016E+04  0.10863000016E+04  0.00000000000E+00 0.  1.
          2   -1    0    0  501    0  0.00000000000E+00 -0.00000000000E+00 -0.14097660823E+04  0.14097660823E+04  0.00000000000E+00 0. -1.
         23    2    1    2    0    0 -0.72168540216E+03  0.20559041972E+03 -0.11522721565E+04  0.13780246036E+04  0.90130156118E+02 0.  0.
         13    1    3    3    0    0 -0.27486110351E+03  0.71348898409E+02 -0.51671799081E+03  0.58960730453E+03  0.00000000000E+00 0.  1.
        -13    1    3    3    0    0 -0.44682429865E+03  0.13424152131E+03 -0.63555416566E+03  0.78841729902E+03  0.00000000000E+00 0. -1.
         22    1    1    2    0    0  0.72168540216E+03 -0.20559041972E+03  0.82880607584E+03  0.11180414803E+04  0.00000000000E+00 0.  1.
<mgrwt>
<rscale>  0 0.24750183E+04</rscale>
<asrwt>0</asrwt>
<pdfrwt beam="1">  1        2 0.21688709E+00 0.24750183E+04</pdfrwt>
<pdfrwt beam="2">  1       -2 0.16712308E+00 0.24750183E+04</pdfrwt>
<totfact> 0.28536206E+00</totfact>
</mgrwt>
</event>
<event>
 6    1  0.1780144E-005  0.2047076E+04  0.7818608E-02  0.8584922E-01
         -2   -1    0    0    0  501 -0.00000000000E+00  0.00000000000E+00  0.33269051670E+03  0.33269051670E+03  0.00000000000E+00 0.  1.
          2   -1    0    0  501    0  0.00000000000E+00 -0.00000000000E+00 -0.31489618222E+04  0.31489618222E+04  0.00000000000E+00 0. -1.
         23    2    1    2    0    0 -0.66279959902E+03 -0.77536494469E+03 -0.15020864234E+04  0.18180490177E+04  0.92436472935E+02 0.  0.
         11    1    3    3    0    0 -0.45932137249E+03 -0.50503287308E+03 -0.93504920023E+03  0.11577354331E+04  0.00000000000E+00 0.  1.
        -11    1    3    3    0    0 -0.20347822652E+03 -0.27033207161E+03 -0.56703722318E+03  0.66031358466E+03  0.00000000000E+00 0. -1.
         22    1    1    2    0    0  0.66279959902E+03  0.77536494469E+03 -0.13141848821E+04  0.16636033212E+04  0.00000000000E+00 0.  1.
<mgrwt>
<rscale>  0 0.20470757E+04</rscale>
<asrwt>0</asrwt>
<pdfrwt beam="1">  1        2 0.48445565E+00 0.20470757E+04</pdfrwt>
<pdfrwt beam="2">  1       -2 0.51183158E-01 0.20470757E+04</pdfrwt>
<totfact> 0.46862103E+00</totfact>
</mgrwt>
</event>
<event>
 6    1  0.1780144E-005  0.3266982E+04  0.7818608E-02  0.8171348E-01
          1   -1    0    0  501    0  0.00000000000E+00  0.00000000000E+00  0.79168099520E+03  0.79168099520E+03  0.00000000000E+00 0. -1.
         -1   -1    0    0    0  501 -0.00000000000E+00 -0.00000000000E+00 -0.33704142910E+04  0.33704142910E+04  0.00000000000E+00 0.  1.
         23    2    1    2    0    0  0.68033423899E+03  0.95492156407E+03 -0.27369091392E+04  0.29789852036E+04  0.94611504070E+02 0.  0.
         11    1    3    3    0    0  0.31486032958E+03  0.43140710753E+03 -0.13657333178E+04  0.14664503452E+04  0.00000000000E+00 0. -1.
        -11    1    3    3    0    0  0.36547390942E+03  0.52351445654E+03 -0.13711758213E+04  0.15125348583E+04  0.00000000000E+00 0.  1.
         22    1    1    2    0    0 -0.68033423899E+03 -0.95492156407E+03  0.15817584333E+03  0.11831100827E+04  0.00000000000E+00 0. -1.
<mgrwt>
<rscale>  0 0.32669821E+04</rscale>
<asrwt>0</asrwt>
<pdfrwt beam="1">  1        1 0.12179708E+00 0.32669821E+04</pdfrwt>
<pdfrwt beam="2">  1       -1 0.51852526E+00 0.32669821E+04</pdfrwt>
<totfact> 0.21245473E-02</totfact>
</mgrwt>
</event>
<event>
 6    1  0.1780144E-005  0.2599640E+04  0.7818608E-02  0.8368323E-01
         -1   -1    0    0    0  501 -0.00000000000E+00  0.00000000000E+00  0.14230011518E+04  0.14230011518E+04  0.00000000000E+00 0.  1.
          1   -1    0    0  501    0  0.00000000000E+00 -0.00000000000E+00 -0.11873019493E+04  0.11873019493E+04  0.00000000000E+00 0. -1.
         23    2    1    2    0    0  0.33896551551E+03 -0.10301553635E+04  0.83479996741E+03  0.13713360232E+04  0.86912653233E+02 0.  0.
         11    1    3    3    0    0  0.11673019319E+03 -0.48938349935E+03  0.39916960559E+03  0.64222933712E+03  0.00000000000E+00 0. -1.
        -11    1    3    3    0    0  0.22223532232E+03 -0.54077186415E+03  0.43563036183E+03  0.72910668608E+03  0.00000000000E+00 0.  1.
         22    1    1    2    0    0 -0.33896551551E+03  0.10301553635E+04 -0.59910076489E+03  0.12389670779E+04  0.00000000000E+00 0. -1.
<mgrwt>
<rscale>  0 0.25996400E+04</rscale>
<asrwt>0</asrwt>
<pdfrwt beam="1">  1        1 0.18266184E+00 0.25996400E+04</pdfrwt>
<pdfrwt beam="2">  1       -1 0.21892325E+00 0.25996400E+04</pdfrwt>
<totfact> 0.10759548E+00</totfact>
</mgrwt>
</event>
<event>
 6    1  0.1780144E-005  0.2007835E+04  0.7818608E-02  0.8602966E-01
          1   -1    0    0  501    0  0.00000000000E+00  0.00000000000E+00  0.51977245490E+03  0.51977245490E+03  0.00000000000E+00 0. -1.
         -1   -1    0    0    0  501 -0.00000000000E+00 -0.00000000000E+00 -0.19390229300E+04  0.19390229300E+04  0.00000000000E+00 0.  1.
         23    2    1    2    0    0  0.40917538391E+03 -0.91341129175E+03 -0.65934927365E+03  0.12021353200E+04  0.92968706169E+02 0.  0.
         13    1    3    3    0    0  0.27430165232E+03 -0.49966326320E+03 -0.37414949601E+03  0.68183034431E+03  0.00000000000E+00 0. -1.
        -13    1    3    3    0    0  0.13487373159E+03 -0.41374802855E+03 -0.28519977764E+03  0.52030497573E+03  0.00000000000E+00 0.  1.
         22    1    1    2    0    0 -0.40917538391E+03  0.91341129175E+03 -0.75990120150E+03  0.12566600649E+04  0.00000000000E+00 0.  1.
<mgrwt>
<rscale>  0 0.20078354E+04</rscale>
<asrwt>0</asrwt>
<pdfrwt beam="1">  1        1 0.79964993E-01 0.20078354E+04</pdfrwt>
<pdfrwt beam="2">  1       -1 0.29831122E+00 0.20078354E+04</pdfrwt>
<totfact> 0.13194232E+00</totfact>
</mgrwt>
</event>
<event>
 6    1  0.1780144E-005  0.1614985E+04  0.7818608E-02  0.8811395E-01
         -2   -1    0    0    0  501 -0.00000000000E+00  0.00000000000E+00  0.71720326081E+03  0.71720326081E+03  0.00000000000E+00 0.  1.
          2   -1    0    0  501    0  0.00000000000E+00 -0.00000000000E+00 -0.90914835722E+03  0.90914835722E+03  0.00000000000E+00 0. -1.
         23    2    1    2    0    0  0.26755301505E+03  0.71776904682E+03 -0.34624827987E+03  0.84495127707E+03  0.85309840413E+02 0.  0.
         13    1    3    3    0    0  0.57773730726E+02  0.24995248842E+03 -0.90781434065E+02  0.27213106989E+03  0.00000000000E+00 0. -1.
        -13    1    3    3    0    0  0.20977928433E+03  0.46781655840E+03 -0.25546684580E+03  0.57282020718E+03  0.00000000000E+00 0.  1.
         22    1    1    2    0    0 -0.26755301505E+03 -0.71776904682E+03  0.15430318346E+03  0.78140034096E+03  0.00000000000E+00 0.  1.
<mgrwt>
<rscale>  0 0.16149850E+04</rscale>
<asrwt>0</asrwt>
<pdfrwt beam="1">  1        2 0.13986898E+00 0.16149850E+04</pdfrwt>
<pdfrwt beam="2">  1       -2 0.11033896E+00 0.16149850E+04</pdfrwt>
<totfact> 0.18058392E+01</totfact>
</mgrwt>
</event>
<event>
 6    1  0.1780144E-005  0.2506673E+04  0.7818608E-02  0.8400612E-01
          2   -1    0    0  501    0  0.00000000000E+00  0.00000000000E+00  0.33703265254E+04  0.33703265254E+04  0.00000000000E+00 0. -1.
         -2   -1    0    0    0  501 -0.00000000000E+00 -0.00000000000E+00 -0.46608321035E+03  0.46608321035E+03  0.00000000000E+00 0.  1.
         23    2    1    2    0    0 -0.32088928631E+02  0.85723786442E+03  0.59676566164E+02  0.86530784513E+03  0.96487920258E+02 0.  0.
         11    1    3    3    0    0 -0.39100882396E+02  0.42156349856E+03  0.71750410275E+02  0.42940980857E+03  0.00000000000E+00 0. -1.
        -11    1    3    3    0    0  0.70119537653E+01  0.43567436586E+03 -0.12073844111E+02  0.43589803655E+03  0.00000000000E+00 0.  1.
         22    1    1    2    0    0  0.32088928631E+02 -0.85723786442E+03  0.28445667489E+04  0.29711018906E+04  0.00000000000E+00 0. -1.
<mgrwt>
<rscale>  0 0.25066732E+04</rscale>
<asrwt>0</asrwt>
<pdfrwt beam="1">  1        2 0.51851176E+00 0.25066732E+04</pdfrwt>
<pdfrwt beam="2">  1       -2 0.71705112E-01 0.25066732E+04</pdfrwt>
<totfact> 0.15713975E+00</totfact>
</mgrwt>
</event>
<event>
 6    1  0.1780144E-005  0.3448063E+04  0.7818608E-02  0.8126210E-01
         -1   -1    0    0    0  501 -0.00000000000E+00  0.00000000000E+00  0.94978557378E+03  0.94978557378E+03  0.00000000000E+00 0.  1.
          1   -1    0    0  501    0  0.00000000000E+00 -0.00000000000E+00 -0.31294276499E+04  0.31294276499E+04  0.00000000000E+00 0. -1.
         23    2    1    2    0    0  0.86671822749E+02 -0.25253223590E+03 -0.31041438722E+04  0.31169304658E+04  0.90894520973E+02 0.  0.
         13    1    3    3    0    0  0.12505193881E+02 -0.11024047677E+03 -0.87259352918E+03  0.87961855924E+03  0.00000000000E+00 0. -1.
        -13    1    3    3    0    0  0.74166628867E+02 -0.14229175913E+03 -0.22315503430E+04  0.22373119065E+04  0.00000000000E+00 0.  1.
         22    1    1    2    0    0 -0.86671822749E+02  0.25253223590E+03  0.92450179615E+03  0.96228275788E+03  0.00000000000E+00 0.  1.
<mgrwt>
<rscale>  0 0.34480634E+04</rscale>
<asrwt>0</asrwt>
<pdfrwt beam="1">  1        1 0.48145041E+00 0.34480634E+04</pdfrwt>
<pdfrwt beam="2">  1       -1 0.14612086E+00 0.34480634E+04</pdfrwt>
<totfact> 0.14706099E-01</totfact>
</mgrwt>
</event>
<event>
 6    1  0.1780144E-005  0.6551782E+03  0.7818608E-02  0.9797111E-01
         -1   -1    0    0    0  501 -0.00000000000E+00  0.00000000000E+00  0.17528198050E+03  0.17528198050E+03  0.00000000000E+00 0.  1.
          1   -1    0    0  501    0  0.00000000000E+00 -0.00000000000E+00 -0.61223986429E+03  0.61223986429E+03  0.00000000000E+00 0. -1.
         23    2    1    2    0    0  0.26707439836E+03 -0.13306081602E+03 -0.36538598179E+03  0.48067261116E+03  0.92224337431E+02 0.  0.
         11    1    3    3    0    0  0.10450668336E+03 -0.49723787374E+01 -0.13839451275E+03  0.17349182279E+03  0.00000000000E+00 0. -1.
        -11    1    3    3    0    0  0.16256771500E+03 -0.12808843729E+03 -0.22699146904E+03  0.30718078837E+03  0.00000000000E+00 0.  1.
         22    1    1    2    0    0 -0.26707439836E+03  0.13306081602E+03 -0.71571901995E+02  0.30684923362E+03  0.00000000000E+00 0.  1.
<mgrwt>
<rscale>  0 0.65517819E+03</rscale>
<asrwt>0</asrwt>
<pdfrwt beam="1">  1        1 0.94190746E-01 0.65517819E+03</pdfrwt>
<pdfrwt beam="2">  1       -1 0.26966459E-01 0.65517819E+03</pdfrwt>
<totfact> 0.41328319E+02</totfact>
</mgrwt>
</event>
<event>
 6    1  0.1780144E-005  0.1165289E+04  0.7818608E-02  0.9143794E-01
         -2   -1    0    0    0  501 -0.00000000000E+00  0.00000000000E+00  0.13211577027E+04  0.13211577027E+04  0.00000000000E+00 0.  1.
          2   -1    0    0  501    0  0.00000000000E+00 -0.00000000000E+00 -0.25695222286E+03  0.25695222286E+03  0.00000000000E+00 0. -1.
         23    2    1    2    0    0  0.47713307636E+03  0.27321827734E+03  0.78123959356E+03  0.95974604205E+03  0.92048699384E+02 0.  0.
         13    1    3    3    0    0  0.24246231907E+03  0.90982335747E+02  0.33024944126E+03  0.41967899047E+03  0.00000000000E+00 0.  1.
        -13    1    3    3    0    0  0.23467075728E+03  0.18223594159E+03  0.45099015230E+03  0.54006705158E+03  0.00000000000E+00 0. -1.
         22    1    1    2    0    0 -0.47713307636E+03 -0.27321827734E+03  0.28296588625E+03  0.61836388349E+03  0.00000000000E+00 0. -1.
<mgrwt>
<rscale>  0 0.11652886E+04</rscale>
<asrwt>0</asrwt>
<pdfrwt beam="1">  1        2 0.39531112E-01 0.11652886E+04</pdfrwt>
<pdfrwt beam="2">  1       -2 0.20325503E+00 0.11652886E+04</pdfrwt>
<totfact> 0.16340555E+01</totfact>
</mgrwt>
</event>
<event>
 6    1  0.1874575E-005  0.1574119E+04  0.7818608E-02  0.8836607E-01
          1   -1    0    0  501    0  0.00000000000E+00  0.00000000000E+00  0.13156564340E+04  0.13156564340E+04  0.00000000000E+00 0. -1.
         -1   -1    0    0    0  501 -0.00000000000E+00 -0.00000000000E+00 -0.47083912134E+03  0.47083912134E+03  0.00000000000E+00 0.  1.
         23    2    1    2    0    0  0.55200859710E+03  0.16437221618E+03  0.10286719821E+04  0.11819012648E+04  0.83623179900E+02 0.  0.
         11    1    3    3    0    0  0.20231522150E+03  0.63614784974E+02  0.29982843514E+03  0.36725383625E+03  0.00000000000E+00 0. -1.
        -11    1    3    3    0    0  0.34969337561E+03  0.10075743121E+03  0.72884354697E+03  0.81464742856E+03  0.00000000000E+00 0.  1.
         22    1    1    2    0    0 -0.55200859710E+03 -0.16437221618E+03 -0.18385466942E+03  0.60459429057E+03  0.00000000000E+00 0.  1.
<mgrwt>
<rscale>  0 0.15741188E+04</rscale>
<asrwt>0</asrwt>
<pdfrwt beam="1">  1        1 0.20240868E+00 0.15741188E+04</pdfrwt>
<pdfrwt beam="2">  1       -1 0.72436789E-01 0.15741188E+04</pdfrwt>
<totfact> 0.16295559E+01</totfact>
</mgrwt>
</event>
<event>
 6    1  0.1780144E-005  0.2701366E+04  0.7818608E-02  0.8334562E-01
          2   -1    0    0  501    0  0.00000000000E+00  0.00000000000E+00  0.25824808985E+04  0.25824808985E+04  0.00000000000E+00 0. -1.
         -2   -1    0    0    0  501 -0.00000000000E+00 -0.00000000000E+00 -0.70643118068E+03  0.70643118068E+03  0.00000000000E+00 0.  1.
         23    2    1    2    0    0  0.99143713533E+03  0.44594986502E+03  0.19117214168E+04  0.22012120536E+04  0.94004542563E+02 0.  0.
         11    1    3    3    0    0  0.36905410256E+03  0.20694947968E+03  0.68923099412E+03  0.80874494188E+03  0.00000000000E+00 0. -1.
        -11    1    3    3    0    0  0.62238303277E+03  0.23900038533E+03  0.12224904227E+04  0.13924671117E+04  0.00000000000E+00 0.  1.
         22    1    1    2    0    0 -0.99143713533E+03 -0.44594986502E+03 -0.35671699042E+02  0.10877000255E+04  0.00000000000E+00 0.  1.
<mgrwt>
<rscale>  0 0.27013663E+04</rscale>
<asrwt>0</asrwt>
<pdfrwt beam="1">  1        2 0.39730475E+00 0.27013663E+04</pdfrwt>
<pdfrwt beam="2">  1       -2 0.10868172E+00 0.27013663E+04</pdfrwt>
<totfact> 0.18486414E+00</totfact>
</mgrwt>
</event>
<event>
 6    1  0.1780144E-005  0.1926692E+04  0.7818608E-02  0.8641683E-01
         -2   -1    0    0    0  501 -0.00000000000E+00  0.00000000000E+00  0.14856453272E+04  0.14856453272E+04  0.00000000000E+00 0.  1.
          2   -1    0    0  501    0  0.00000000000E+00 -0.00000000000E+00 -0.62466836178E+03  0.62466836178E+03  0.00000000000E+00 0. -1.
         23    2    1    2    0    0 -0.14205941949E+03 -0.10229150173E+03  0.14666160672E+04  0.14798827637E+04  0.91901444649E+02 0.  0.
         13    1    3    3    0    0 -0.14459751519E+03 -0.94985386670E+02  0.11290318343E+04  0.11422099404E+04  0.00000000000E+00 0.  1.
        -13    1    3    3    0    0  0.25380957050E+01 -0.73061150645E+01  0.33758423290E+03  0.33767282324E+03  0.00000000000E+00 0. -1.
         22    1    1    2    0    0  0.14205941949E+03  0.10229150173E+03 -0.60563910180E+03  0.63043092533E+03  0.00000000000E+00 0. -1.
<mgrwt>
<rscale>  0 0.19266921E+04</rscale>
<asrwt>0</asrwt>
<pdfrwt beam="1">  1        2 0.96102825E-01 0.19266921E+04</pdfrwt>
<pdfrwt beam="2">  1       -2 0.22856082E+00 0.19266921E+04</pdfrwt>
<totfact> 0.38502719E+00</totfact>
</mgrwt>
</event>
<event>
 6    1  0.1780144E-005  0.1617329E+04  0.7818608E-02  0.8809973E-01
          2   -1    0    0  501    0  0.00000000000E+00  0.00000000000E+00  0.80542313347E+03  0.80542313347E+03  0.00000000000E+00 0. -1.
         -2   -1    0    0    0  501 -0.00000000000E+00 -0.00000000000E+00 -0.81191850170E+03  0.81191850170E+03  0.00000000000E+00 0.  1.
         23    2    1    2    0    0 -0.21827457556E+03  0.61788950993E+03 -0.47248615407E+03  0.81324049148E+03  0.93197072808E+02 0.  0.
         11    1    3    3    0    0 -0.54542802642E+02  0.28717829050E+03 -0.19214420459E+03  0.34980806625E+03  0.00000000000E+00 0.  1.
        -11    1    3    3    0    0 -0.16373177292E+03  0.33071121943E+03 -0.28034194948E+03  0.46343242523E+03  0.00000000000E+00 0. -1.
         22    1    1    2    0    0  0.21827457556E+03 -0.61788950993E+03  0.46599078584E+03  0.80410114370E+03  0.00000000000E+00 0. -1.
<mgrwt>
<rscale>  0 0.16173286E+04</rscale>
<asrwt>0</asrwt>
<pdfrwt beam="1">  1        2 0.12391125E+00 0.16173286E+04</pdfrwt>
<pdfrwt beam="2">  1       -2 0.12491054E+00 0.16173286E+04</pdfrwt>
<totfact> 0.15701344E+01</totfact>
</mgrwt>
</event>
<event>
 6    1  0.1780144E-005  0.8491813E+04  0.7818608E-02  0.7440525E-01
         -2   -1    0    0    0  501 -0.00000000000E+00  0.00000000000E+00  0.49727305269E+04  0.49727305269E+04  0.00000000000E+00 0.  1.
          2   -1    0    0  501    0  0.00000000000E+00 -0.00000000000E+00 -0.36253166503E+04  0.36253166503E+04  0.00000000000E+00 0. -1.
         23    2    1    2    0    0  0.24441661739E+04  0.45519834938E+03  0.41581169363E+04  0.48455539377E+04  0.91119064054E+02 0.  0.
         11    1    3    3    0    0  0.14294975443E+04  0.31141718992E+03  0.24333302588E+04  0.28392851290E+04  0.00000000000E+00 0. -1.
        -11    1    3    3    0    0  0.10146686296E+04  0.14378115945E+03  0.17247866775E+04  0.20062688087E+04  0.00000000000E+00 0.  1.
         22    1    1    2    0    0 -0.24441661739E+04 -0.45519834938E+03 -0.28107030598E+04  0.37524932396E+04  0.00000000000E+00 0. -1.
<mgrwt>
<rscale>  0 0.84918132E+04</rscale>
<asrwt>0</asrwt>
<pdfrwt beam="1">  1        2 0.55774102E+00 0.84918132E+04</pdfrwt>
<pdfrwt beam="2">  1       -2 0.76503546E+00 0.84918132E+04</pdfrwt>
<totfact> 0.45874543E-05</totfact>
</mgrwt>
</event>
<event>
 6    1  0.1780144E-005  0.1395812E+04  0.7818608E-02  0.8956856E-01
          1   -1    0    0  501    0  0.00000000000E+00  0.00000000000E+00  0.57437844481E+03  0.57437844481E+03  0.00000000000E+00 0. -1.
         -1   -1    0    0    0  501 -0.00000000000E+00 -0.00000000000E+00 -0.84799957520E+03  0.84799957520E+03  0.00000000000E+00 0.  1.
         23    2    1    2    0    0  0.33821631867E+03 -0.26068583030E+03  0.42139687046E+03  0.60665907220E+03  0.90069568221E+02 0.  0.
         11    1    3    3    0    0  0.21525224393E+02 -0.35399976442E+02  0.14293663208E+02  0.43826960027E+02  0.00000000000E+00 0.  1.
        -11    1    3    3    0    0  0.31669109428E+03 -0.22528585386E+03  0.40710320725E+03  0.56283211217E+03  0.00000000000E+00 0. -1.
         22    1    1    2    0    0 -0.33821631867E+03  0.26068583030E+03 -0.69501800085E+03  0.81571894782E+03  0.00000000000E+00 0.  1.
<mgrwt>
<rscale>  0 0.13958118E+04</rscale>
<asrwt>0</asrwt>
<pdfrwt beam="1">  1        1 0.88365915E-01 0.13958118E+04</pdfrwt>
<pdfrwt beam="2">  1       -1 0.13046147E+00 0.13958118E+04</pdfrwt>
<totfact> 0.17883480E+01</totfact>
</mgrwt>
</event>
<event>
 6    1  0.1780144E-005  0.1057821E+04  0.7818608E-02  0.9247306E-01
          1   -1    0    0  501    0  0.00000000000E+00  0.00000000000E+00  0.27337904763E+03  0.27337904763E+03  0.00000000000E+00 0. -1.
         -1   -1    0    0    0  501 -0.00000000000E+00 -0.00000000000E+00 -0.10232915826E+04  0.10232915826E+04  0.00000000000E+00 0.  1.
         23    2    1    2    0    0 -0.37439663835E+03  0.13891172525E+03 -0.79558076185E+03  0.89473170803E+03  0.90148602403E+02 0.  0.
         11    1    3    3    0    0 -0.27022529079E+03  0.14169365116E+03 -0.58656459945E+03  0.66117836315E+03  0.00000000000E+00 0.  1.
        -11    1    3    3    0    0 -0.10417134756E+03 -0.27819259162E+01 -0.20901616239E+03  0.23355334489E+03  0.00000000000E+00 0. -1.
         22    1    1    2    0    0  0.37439663835E+03 -0.13891172525E+03  0.45668226888E+02  0.40193892219E+03  0.00000000000E+00 0. -1.
<mgrwt>
<rscale>  0 0.10578213E+04</rscale>
<asrwt>0</asrwt>
<pdfrwt beam="1">  1        1 0.42058315E-01 0.10578213E+04</pdfrwt>
<pdfrwt beam="2">  1       -1 0.15742947E+00 0.10578213E+04</pdfrwt>
<totfact> 0.30239553E+01</totfact>
</mgrwt>
</event>
<event>
 6    1  0.1780144E-005  0.1879374E+04  0.7818608E-02  0.8665192E-01
          1   -1    0    0  501    0  0.00000000000E+00  0.00000000000E+00  0.90917367211E+03  0.90917367211E+03  0.00000000000E+00 0. -1.
         -1   -1    0    0    0  501 -0.00000000000E+00 -0.00000000000E+00 -0.97122410334E+03  0.97122410334E+03  0.00000000000E+00 0.  1.
         23    2    1    2    0    0 -0.72324807472E+03 -0.14012101598E+03  0.54936783684E+03  0.92302952068E+03  0.86352760162E+02 0.  0.
         11    1    3    3    0    0 -0.53815232560E+03 -0.11228172996E+03  0.45390971900E+03  0.71291594556E+03  0.00000000000E+00 0. -1.
        -11    1    3    3    0    0 -0.18509574912E+03 -0.27839286014E+02  0.95458117845E+02  0.21011357512E+03  0.00000000000E+00 0.  1.
         22    1    1    2    0    0  0.72324807472E+03  0.14012101598E+03 -0.61141826807E+03  0.95736825477E+03  0.00000000000E+00 0.  1.
<mgrwt>
<rscale>  0 0.18793737E+04</rscale>
<asrwt>0</asrwt>
<pdfrwt beam="1">  1        1 0.13987287E+00 0.18793737E+04</pdfrwt>
<pdfrwt beam="2">  1       -1 0.14941909E+00 0.18793737E+04</pdfrwt>
<totfact> 0.59104050E+00</totfact>
</mgrwt>
</event>
<event>
 6    1  0.1780144E-005  0.2680641E+04  0.7818608E-02  0.8341314E-01
          2   -1    0    0  501    0  0.00000000000E+00  0.00000000000E+00  0.23565257614E+04  0.23565257614E+04  0.00000000000E+00 0. -1.
         -2   -1    0    0    0  501 -0.00000000000E+00 -0.00000000000E+00 -0.76233353168E+03  0.76233353168E+03  0.00000000000E+00 0.  1.
         23    2    1    2    0    0  0.68469236794E+03 -0.73260037868E+03 -0.23400925699E+03  0.10337147826E+04  0.91098660233E+02 0.  0.
         11    1    3    3    0    0  0.35094035171E+03 -0.32595177126E+03 -0.14277707618E+03  0.49978893658E+03  0.00000000000E+00 0.  1.
        -11    1    3    3    0    0  0.33375201622E+03 -0.40664860742E+03 -0.91232180804E+02  0.53392584604E+03  0.00000000000E+00 0. -1.
         22    1    1    2    0    0 -0.68469236794E+03  0.73260037868E+03  0.18282014867E+04  0.20851445105E+04  0.00000000000E+00 0. -1.
<mgrwt>
<rscale>  0 0.26806407E+04</rscale>
<asrwt>0</asrwt>
<pdfrwt beam="1">  1        2 0.36254242E+00 0.26806407E+04</pdfrwt>
<pdfrwt beam="2">  1       -2 0.11728208E+00 0.26806407E+04</pdfrwt>
<totfact> 0.20783719E+00</totfact>
</mgrwt>
</event>
<event>
 6    1  0.1780144E-005  0.1116204E+04  0.7818608E-02  0.9189540E-01
         -1   -1    0    0    0  501 -0.00000000000E+00  0.00000000000E+00  0.33790342794E+03  0.33790342794E+03  0.00000000000E+00 0.  1.
          1   -1    0    0  501    0  0.00000000000E+00 -0.00000000000E+00 -0.92179590841E+03  0.92179590841E+03  0.00000000000E+00 0. -1.
         23    2    1    2    0    0  0.40742364926E+03  0.18573158466E+03 -0.66300710788E+03  0.80500232098E+03  0.89219169248E+02 0.  0.
         13    1    3    3    0    0  0.70552313117E+02 -0.21536851255E+01 -0.11253070986E+03  0.13283609414E+03  0.00000000000E+00 0.  1.
        -13    1    3    3    0    0  0.33687133614E+03  0.18788526979E+03 -0.55047639802E+03  0.67216622683E+03  0.00000000000E+00 0. -1.
         22    1    1    2    0    0 -0.40742364926E+03 -0.18573158466E+03  0.79114627416E+02  0.45469701537E+03  0.00000000000E+00 0.  1.
<mgrwt>
<rscale>  0 0.11162043E+04</rscale>
<asrwt>0</asrwt>
<pdfrwt beam="1">  1        1 0.14181475E+00 0.11162043E+04</pdfrwt>
<pdfrwt beam="2">  1       -1 0.51985144E-01 0.11162043E+04</pdfrwt>
<totfact> 0.64757018E+01</totfact>
</mgrwt>
</event>
<event>
 6    1  0.1780144E-005  0.3373293E+04  0.7818608E-02  0.8144492E-01
         -2   -1    0    0    0  501 -0.00000000000E+00  0.00000000000E+00  0.15426179097E+04  0.15426179097E+04  0.00000000000E+00 0.  1.
          2   -1    0    0  501    0  0.00000000000E+00 -0.00000000000E+00 -0.18441229469E+04  0.18441229469E+04  0.00000000000E+00 0. -1.
         23    2    1    2    0    0 -0.16547643013E+04 -0.16889918105E+03 -0.42355701679E+03  0.17189073781E+04  0.92033699241E+02 0.  0.
         11    1    3    3    0    0 -0.41363476600E+03 -0.74116216146E+01 -0.12545582523E+03  0.43230523460E+03  0.00000000000E+00 0.  1.
        -11    1    3    3    0    0 -0.12411295353E+04 -0.16148755943E+03 -0.29810119156E+03  0.12866021435E+04  0.00000000000E+00 0. -1.
         22    1    1    2    0    0  0.16547643013E+04  0.16889918105E+03  0.12205197958E+03  0.16678334785E+04  0.00000000000E+00 0. -1.
<mgrwt>
<rscale>  0 0.33732934E+04</rscale>
<asrwt>0</asrwt>
<pdfrwt beam="1">  1        2 0.28371122E+00 0.33732934E+04</pdfrwt>
<pdfrwt beam="2">  1       -2 0.23732583E+00 0.33732934E+04</pdfrwt>
<totfact> 0.52113981E-01</totfact>
</mgrwt>
</event>
<event>
 6    1  0.1780144E-005  0.2953996E+04  0.7818608E-02  0.8256991E-01
         -2   -1    0    0    0  501 -0.00000000000E+00  0.00000000000E+00  0.12527562281E+04  0.12527562281E+04  0.00000000000E+00 0.  1.
          2   -1    0    0  501    0  0.00000000000E+00 -0.00000000000E+00 -0.17413787082E+04  0.17413787082E+04  0.00000000000E+00 0. -1.
         23    2    1    2    0    0 -0.38347786892E+03  0.92734569600E+03 -0.13410226240E+04  0.16774681899E+04  0.92371716843E+02 0.  0.
         13    1    3    3    0    0 -0.79359423912E+02  0.17737451463E+03 -0.20282562469E+03  0.28088764771E+03  0.00000000000E+00 0.  1.
        -13    1    3    3    0    0 -0.30411844500E+03  0.74997118136E+03 -0.11381969993E+04  0.13965805422E+04  0.00000000000E+00 0. -1.
         22    1    1    2    0    0  0.38347786892E+03 -0.92734569600E+03  0.85240014396E+03  0.13166667465E+04  0.00000000000E+00 0.  1.
<mgrwt>
<rscale>  0 0.29539960E+04</rscale>
<asrwt>0</asrwt>
<pdfrwt beam="1">  1        2 0.26790442E+00 0.29539960E+04</pdfrwt>
<pdfrwt beam="2">  1       -2 0.19273173E+00 0.29539960E+04</pdfrwt>
<totfact> 0.11877486E+00</totfact>
</mgrwt>
</event>
<event>
 6    1  0.1780144E-005  0.2202802E+04  0.7818608E-02  0.8517263E-01
         -2   -1    0    0    0  501 -0.00000000000E+00  0.00000000000E+00  0.49521455575E+03  0.49521455575E+03  0.00000000000E+00 0. -1.
          2   -1    0    0  501    0  0.00000000000E+00 -0.00000000000E+00 -0.24496137082E+04  0.24496137082E+04  0.00000000000E+00 0.  1.
         23    2    1    2    0    0 -0.10402547272E+04 -0.26098341451E+03 -0.65550409909E+03  0.12603786209E+04  0.92878437008E+02 0.  0.
         13    1    3    3    0    0 -0.74031505529E+03 -0.22843677370E+03 -0.46634758468E+03  0.90428414251E+03  0.00000000000E+00 0.  1.
        -13    1    3    3    0    0 -0.29993967193E+03 -0.32546640814E+02 -0.18915651442E+03  0.35609447844E+03  0.00000000000E+00 0. -1.
         22    1    1    2    0    0  0.10402547272E+04  0.26098341451E+03 -0.12988950534E+04  0.16844496430E+04  0.00000000000E+00 0.  1.
<mgrwt>
<rscale>  0 0.22028022E+04</rscale>
<asrwt>0</asrwt>
<pdfrwt beam="1">  1        2 0.37686364E+00 0.22028022E+04</pdfrwt>
<pdfrwt beam="2">  1       -2 0.76186856E-01 0.22028022E+04</pdfrwt>
<totfact> 0.52460762E+00</totfact>
</mgrwt>
</event>
<event>
 6    1  0.1780144E-005  0.3619450E+04  0.7818608E-02  0.8086051E-01
          1   -1    0    0  501    0  0.00000000000E+00  0.00000000000E+00  0.28711461621E+04  0.28711461621E+04  0.00000000000E+00 0. -1.
         -1   -1    0    0    0  501 -0.00000000000E+00 -0.00000000000E+00 -0.11406959999E+04  0.11406959999E+04  0.00000000000E+00 0.  1.
         23    2    1    2    0    0  0.99733528908E+03  0.14016065666E+04  0.14841361702E+04  0.22740708223E+04  0.97771606501E+02 0.  0.
         11    1    3    3    0    0  0.49360549058E+03  0.73918986419E+03  0.82072049935E+03  0.12098058413E+04  0.00000000000E+00 0. -1.
        -11    1    3    3    0    0  0.50372979850E+03  0.66241670238E+03  0.66341567083E+03  0.10642649810E+04  0.00000000000E+00 0.  1.
         22    1    1    2    0    0 -0.99733528908E+03 -0.14016065666E+04  0.24631399196E+03  0.17377713397E+04  0.00000000000E+00 0.  1.
<mgrwt>
<rscale>  0 0.36194502E+04</rscale>
<asrwt>0</asrwt>
<pdfrwt beam="1">  1        1 0.44171479E+00 0.36194502E+04</pdfrwt>
<pdfrwt beam="2">  1       -1 0.17549169E+00 0.36194502E+04</pdfrwt>
<totfact> 0.13422199E-01</totfact>
</mgrwt>
</event>
<event>
 6    1  0.1780144E-005  0.2645291E+04  0.7818608E-02  0.8352978E-01
         -2   -1    0    0    0  501 -0.00000000000E+00  0.00000000000E+00  0.24837590099E+04  0.24837590099E+04  0.00000000000E+00 0.  1.
          2   -1    0    0  501    0  0.00000000000E+00 -0.00000000000E+00 -0.70433198608E+03  0.70433198608E+03  0.00000000000E+00 0. -1.
         23    2    1    2    0    0 -0.21585266290E+03 -0.12005131819E+04  0.27946327550E+03  0.12547737643E+04  0.92375350549E+02 0.  0.
         11    1    3    3    0    0 -0.12641906831E+03 -0.73651836288E+03  0.21679543118E+03  0.77810111082E+03  0.00000000000E+00 0.  1.
        -11    1    3    3    0    0 -0.89433594590E+02 -0.46399481899E+03  0.62667844322E+02  0.47667265351E+03  0.00000000000E+00 0. -1.
         22    1    1    2    0    0  0.21585266290E+03  0.12005131819E+04  0.14999637483E+04  0.19333172317E+04  0.00000000000E+00 0. -1.
<mgrwt>
<rscale>  0 0.26452908E+04</rscale>
<asrwt>0</asrwt>
<pdfrwt beam="1">  1        2 0.10835877E+00 0.26452908E+04</pdfrwt>
<pdfrwt beam="2">  1       -2 0.38211677E+00 0.26452908E+04</pdfrwt>
<totfact> 0.34760131E-01</totfact>
</mgrwt>
</event>
<event>
 6    1  0.1780144E-005  0.2206009E+04  0.7818608E-02  0.8515931E-01
         -1   -1    0    0    0  501 -0.00000000000E+00  0.00000000000E+00  0.76741569529E+03  0.76741569529E+03  0.00000000000E+00 0.  1.
          1   -1    0    0  501    0  0.00000000000E+00 -0.00000000000E+00 -0.15853448665E+04  0.15853448665E+04  0.00000000000E+00 0. -1.
         23    2    1    2    0    0  0.95823383562E+03 -0.48505043421E+03 -0.67369723589E+03  0.12691144670E+04  0.57424361607E+02 0.  0.
         13    1    3    3    0    0  0.56074844166E+03 -0.29877281551E+03 -0.36892343413E+03  0.73471661908E+03  0.00000000000E+00 0.  1.
        -13    1    3    3    0    0  0.39748539397E+03 -0.18627761870E+03 -0.30477380175E+03  0.53439784794E+03  0.00000000000E+00 0. -1.
         22    1    1    2    0    0 -0.95823383562E+03  0.48505043421E+03 -0.14423193529E+03  0.10836460947E+04  0.00000000000E+00 0.  1.
<mgrwt>
<rscale>  0 0.22060086E+04</rscale>
<asrwt>0</asrwt>
<pdfrwt beam="1">  1        1 0.24389921E+00 0.22060086E+04</pdfrwt>
<pdfrwt beam="2">  1       -1 0.11806395E+00 0.22060086E+04</pdfrwt>
<totfact> 0.33524147E+00</totfact>
</mgrwt>
</event>
<event>
 6    1  0.1780144E-005  0.1984071E+04  0.7818608E-02  0.8614105E-01
         -1   -1    0    0    0  501 -0.00000000000E+00  0.00000000000E+00  0.14048419408E+04  0.14048419408E+04  0.00000000000E+00 0.  1.
          1   -1    0    0  501    0  0.00000000000E+00 -0.00000000000E+00 -0.70053017874E+03  0.70053017874E+03  0.00000000000E+00 0. -1.
         23    2    1    2    0    0  0.13281792682E+03 -0.27965991988E+03 -0.64490394105E+03  0.72109133661E+03  0.90671660820E+02 0.  0.
         13    1    3    3    0    0  0.49197442901E+02 -0.11408483776E+03 -0.16468941631E+03  0.20629673395E+03  0.00000000000E+00 0. -1.
        -13    1    3    3    0    0  0.83620483918E+02 -0.16557508211E+03 -0.48021452474E+03  0.51479460265E+03  0.00000000000E+00 0.  1.
         22    1    1    2    0    0 -0.13281792682E+03  0.27965991988E+03  0.13492157031E+04  0.13842807829E+04  0.00000000000E+00 0.  1.
<mgrwt>
<rscale>  0 0.19840707E+04</rscale>
<asrwt>0</asrwt>
<pdfrwt beam="1">  1        1 0.10777387E+00 0.19840707E+04</pdfrwt>
<pdfrwt beam="2">  1       -1 0.21612953E+00 0.19840707E+04</pdfrwt>
<totfact> 0.29532298E+00</totfact>
</mgrwt>
</event>
<event>
 6    1  0.1780144E-005  0.1654911E+04  0.7818608E-02  0.8787507E-01
         -2   -1    0    0    0  501 -0.00000000000E+00  0.00000000000E+00  0.67055513001E+03  0.67055513001E+03  0.00000000000E+00 0.  1.
          2   -1    0    0  501    0  0.00000000000E+00 -0.00000000000E+00 -0.10210681951E+04  0.10210681951E+04  0.00000000000E+00 0. -1.
         23    2    1    2    0    0 -0.78079507961E+03 -0.22839930185E+03 -0.32087591757E+03  0.87756831597E+03  0.73195609759E+02 0.  0.
         11    1    3    3    0    0 -0.32124017075E+03 -0.71207501050E+02 -0.16037372839E+03  0.36604028230E+03  0.00000000000E+00 0.  1.
        -11    1    3    3    0    0 -0.45955490886E+03 -0.15719180080E+03 -0.16050218917E+03  0.51152803367E+03  0.00000000000E+00 0. -1.
         22    1    1    2    0    0  0.78079507961E+03  0.22839930185E+03 -0.29637147539E+02  0.81405500916E+03  0.00000000000E+00 0.  1.
<mgrwt>
<rscale>  0 0.16549109E+04</rscale>
<asrwt>0</asrwt>
<pdfrwt beam="1">  1        2 0.15708741E+00 0.16549109E+04</pdfrwt>
<pdfrwt beam="2">  1       -2 0.10316233E+00 0.16549109E+04</pdfrwt>
<totfact> 0.17883973E+01</totfact>
</mgrwt>
</event>
<event>
 6    1  0.1780144E-005  0.3788921E+04  0.7818608E-02  0.8048537E-01
          1   -1    0    0  501    0  0.00000000000E+00  0.00000000000E+00  0.13340819515E+04  0.13340819515E+04  0.00000000000E+00 0. -1.
         -1   -1    0    0    0  501 -0.00000000000E+00 -0.00000000000E+00 -0.26902246893E+04  0.26902246893E+04  0.00000000000E+00 0.  1.
         23    2    1    2    0    0  0.24014114375E+03 -0.10647649430E+04 -0.23213884540E+04  0.25672234429E+04  0.10197891257E+03 0.  0.
         13    1    3    3    0    0  0.15613607433E+03 -0.84380859428E+03 -0.18775399091E+04  0.20643515998E+04  0.00000000000E+00 0. -1.
        -13    1    3    3    0    0  0.84005069427E+02 -0.22095634876E+03 -0.44384854497E+03  0.50287184313E+03  0.00000000000E+00 0.  1.
         22    1    1    2    0    0 -0.24014114375E+03  0.10647649430E+04  0.96524571626E+03  0.14570831979E+04  0.00000000000E+00 0. -1.
<mgrwt>
<rscale>  0 0.37889208E+04</rscale>
<asrwt>0</asrwt>
<pdfrwt beam="1">  1        1 0.20524338E+00 0.37889208E+04</pdfrwt>
<pdfrwt beam="2">  1       -1 0.41388072E+00 0.37889208E+04</pdfrwt>
<totfact> 0.39104671E-02</totfact>
</mgrwt>
</event>
<event>
 6    1  0.1780144E-005  0.1957368E+04  0.7818608E-02  0.8626816E-01
         -2   -1    0    0    0  501 -0.00000000000E+00  0.00000000000E+00  0.32403725203E+03  0.32403725203E+03  0.00000000000E+00 0. -1.
          2   -1    0    0  501    0  0.00000000000E+00 -0.00000000000E+00 -0.29559028580E+04  0.29559028580E+04  0.00000000000E+00 0.  1.
         23    2    1    2    0    0 -0.53413309961E+03  0.34306096703E+03 -0.25623246278E+04  0.26413283791E+04  0.90106119312E+02 0.  0.
         11    1    3    3    0    0 -0.71380422002E+02  0.22587732017E+02 -0.22287924901E+03  0.23511811909E+03  0.00000000000E+00 0. -1.
        -11    1    3    3    0    0 -0.46275267761E+03  0.32047323501E+03 -0.23394453788E+04  0.24062102600E+04  0.00000000000E+00 0.  1.
         22    1    1    2    0    0  0.53413309961E+03 -0.34306096703E+03 -0.69540978133E+02  0.63861173090E+03  0.00000000000E+00 0. -1.
<mgrwt>
<rscale>  0 0.19573683E+04</rscale>
<asrwt>0</asrwt>
<pdfrwt beam="1">  1        2 0.45475429E+00 0.19573683E+04</pdfrwt>
<pdfrwt beam="2">  1       -2 0.49851884E-01 0.19573683E+04</pdfrwt>
<totfact> 0.66007992E+00</totfact>
</mgrwt>
</event>
<event>
 6    1  0.1780144E-005  0.1018827E+04  0.7818608E-02  0.9288134E-01
          2   -1    0    0  501    0  0.00000000000E+00  0.00000000000E+00  0.10200693548E+04  0.10200693548E+04  0.00000000000E+00 0. -1.
         -2   -1    0    0    0  501 -0.00000000000E+00 -0.00000000000E+00 -0.25439644420E+03  0.25439644420E+03  0.00000000000E+00 0.  1.
         23    2    1    2    0    0 -0.32557856126E+02 -0.48521695566E+03  0.55767476106E+03  0.74554355685E+03  0.91315650223E+02 0.  0.
         13    1    3    3    0    0 -0.34121925125E+02 -0.33733360089E+03  0.44589437673E+03  0.56016074412E+03  0.00000000000E+00 0.  1.
        -13    1    3    3    0    0  0.15640689992E+01 -0.14788335477E+03  0.11178038434E+03  0.18538281272E+03  0.00000000000E+00 0. -1.
         22    1    1    2    0    0  0.32557856126E+02  0.48521695566E+03  0.20799814959E+03  0.52892224220E+03  0.00000000000E+00 0.  1.
<mgrwt>
<rscale>  0 0.10188268E+04</rscale>
<asrwt>0</asrwt>
<pdfrwt beam="1">  1        2 0.15693374E+00 0.10188268E+04</pdfrwt>
<pdfrwt beam="2">  1       -2 0.39137915E-01 0.10188268E+04</pdfrwt>
<totfact> 0.15039183E+02</totfact>
</mgrwt>
</event>
<event>
 6    1  0.1780144E-005  0.2190665E+04  0.7818608E-02  0.8522324E-01
         -2   -1    0    0    0  501 -0.00000000000E+00  0.00000000000E+00  0.74868772355E+03  0.74868772355E+03  0.00000000000E+00 0.  1.
          2   -1    0    0  501    0  0.00000000000E+00 -0.00000000000E+00 -0.16024745072E+04  0.16024745072E+04  0.00000000000E+00 0. -1.
         23    2    1    2    0    0 -0.15713328695E+03  0.60928900151E+03  0.53213351125E+03  0.82909159473E+03  0.91119928799E+02 0.  0.
         11    1    3    3    0    0 -0.14518892832E+03  0.39296036487E+03  0.36068250713E+03  0.55280154144E+03  0.00000000000E+00 0. -1.
        -11    1    3    3    0    0 -0.11944358627E+02  0.21632863664E+03  0.17145100412E+03  0.27629005329E+03  0.00000000000E+00 0.  1.
         22    1    1    2    0    0  0.15713328695E+03 -0.60928900151E+03 -0.13859202948E+04  0.15220706360E+04  0.00000000000E+00 0. -1.
<mgrwt>
<rscale>  0 0.21906647E+04</rscale>
<asrwt>0</asrwt>
<pdfrwt beam="1">  1        2 0.24653454E+00 0.21906647E+04</pdfrwt>
<pdfrwt beam="2">  1       -2 0.11518273E+00 0.21906647E+04</pdfrwt>
<totfact> 0.59734695E+00</totfact>
</mgrwt>
</event>
<event>
 6    1  0.1780144E-005  0.5770376E+04  0.7818608E-02  0.7719543E-01
          3   -1    0    0  501    0  0.00000000000E+00  0.00000000000E+00  0.19205000331E+04  0.19205000331E+04  0.00000000000E+00 0. -1.
         -3   -1    0    0    0  501 -0.00000000000E+00 -0.00000000000E+00 -0.43344490146E+04  0.43344490146E+04  0.00000000000E+00 0.  1.
         23    2    1    2    0    0  0.27732990634E+04  0.78917313221E+03 -0.11211140992E+04  0.30949800668E+04  0.89570431544E+02 0.  0.
         11    1    3    3    0    0  0.10152900273E+04  0.32226883796E+03 -0.38304171475E+03  0.11319858651E+04  0.00000000000E+00 0.  1.
        -11    1    3    3    0    0  0.17580090361E+04  0.46690429426E+03 -0.73807238450E+03  0.19629942017E+04  0.00000000000E+00 0. -1.
         22    1    1    2    0    0 -0.27732990634E+04 -0.78917313221E+03 -0.12928348822E+04  0.31599689809E+04  0.00000000000E+00 0.  1.
<mgrwt>
<rscale>  0 0.57703759E+04</rscale>
<asrwt>0</asrwt>
<pdfrwt beam="1">  1        3 0.29546154E+00 0.57703759E+04</pdfrwt>
<pdfrwt beam="2">  1       -3 0.66683831E+00 0.57703759E+04</pdfrwt>
<totfact> 0.27293721E-05</totfact>
</mgrwt>
</event>
<event>
 6    1  0.1780144E-005  0.5430447E+04  0.7818608E-02  0.7765333E-01
          2   -1    0    0  501    0  0.00000000000E+00  0.00000000000E+00  0.28221469228E+04  0.28221469228E+04  0.00000000000E+00 0. -1.
         -2   -1    0    0    0  501 -0.00000000000E+00 -0.00000000000E+00 -0.26123510228E+04  0.26123510228E+04  0.00000000000E+00 0.  1.
         23    2    1    2    0    0  0.18880005738E+04  0.18405782762E+04 -0.54063798484E+03  0.26930702932E+04  0.89797640273E+02 0.  0.
         11    1    3    3    0    0  0.57374012673E+03  0.51080424675E+03 -0.17929931969E+03  0.78882631647E+03  0.00000000000E+00 0. -1.
        -11    1    3    3    0    0  0.13142604471E+04  0.13297740294E+04 -0.36133866515E+03  0.19042439768E+04  0.00000000000E+00 0.  1.
         22    1    1    2    0    0 -0.18880005738E+04 -0.18405782762E+04  0.75043388490E+03  0.27414276524E+04  0.00000000000E+00 0. -1.
<mgrwt>
<rscale>  0 0.54304469E+04</rscale>
<asrwt>0</asrwt>
<pdfrwt beam="1">  1        2 0.43417645E+00 0.54304469E+04</pdfrwt>
<pdfrwt beam="2">  1       -2 0.40190016E+00 0.54304469E+04</pdfrwt>
<totfact> 0.11388780E-02</totfact>
</mgrwt>
</event>
<event>
 6    1  0.1780144E-005  0.3664167E+04  0.7818608E-02  0.8075950E-01
         -4   -1    0    0    0  501 -0.00000000000E+00  0.00000000000E+00  0.12974492792E+04  0.12974492792E+04  0.00000000000E+00 0.  1.
          4   -1    0    0  501    0  0.00000000000E+00 -0.00000000000E+00 -0.25870214204E+04  0.25870214204E+04  0.00000000000E+00 0. -1.
         23    2    1    2    0    0 -0.68469208632E+03  0.86668919634E+03 -0.21933041399E+04  0.24573459883E+04  0.89514469253E+02 0.  0.
         11    1    3    3    0    0 -0.47341092500E+03  0.66290854558E+03 -0.16119391984E+04  0.18060768597E+04  0.00000000000E+00 0.  1.
        -11    1    3    3    0    0 -0.21128116132E+03  0.20378065076E+03 -0.58136494143E+03  0.65126912861E+03  0.00000000000E+00 0. -1.
         22    1    1    2    0    0  0.68469208632E+03 -0.86668919634E+03  0.90373199873E+03  0.14271247113E+04  0.00000000000E+00 0.  1.
<mgrwt>
<rscale>  0 0.36641665E+04</rscale>
<asrwt>0</asrwt>
<pdfrwt beam="1">  1        4 0.39800329E+00 0.36641665E+04</pdfrwt>
<pdfrwt beam="2">  1       -4 0.19960758E+00 0.36641665E+04</pdfrwt>
<totfact> 0.14846976E-03</totfact>
</mgrwt>
</event>
<event>
 6    1  0.1780144E-005  0.2177194E+04  0.7818608E-02  0.8527981E-01
         -2   -1    0    0    0  501 -0.00000000000E+00  0.00000000000E+00  0.90924610643E+03  0.90924610643E+03  0.00000000000E+00 0.  1.
          2   -1    0    0  501    0  0.00000000000E+00 -0.00000000000E+00 -0.13033252183E+04  0.13033252183E+04  0.00000000000E+00 0. -1.
         23    2    1    2    0    0 -0.40370383146E+03  0.54383873540E+03 -0.10607791960E+04  0.12621891092E+04  0.95558835043E+02 0.  0.
         11    1    3    3    0    0 -0.29443407518E+03  0.34925252107E+03 -0.64611860053E+03  0.79128881835E+03  0.00000000000E+00 0. -1.
        -11    1    3    3    0    0 -0.10926975628E+03  0.19458621433E+03 -0.41466059547E+03  0.47090029080E+03  0.00000000000E+00 0.  1.
         22    1    1    2    0    0  0.40370383146E+03 -0.54383873540E+03  0.66670008408E+03  0.95038221562E+03  0.00000000000E+00 0.  1.
<mgrwt>
<rscale>  0 0.21771940E+04</rscale>
<asrwt>0</asrwt>
<pdfrwt beam="1">  1        2 0.20051157E+00 0.21771940E+04</pdfrwt>
<pdfrwt beam="2">  1       -2 0.13988402E+00 0.21771940E+04</pdfrwt>
<totfact> 0.54255034E+00</totfact>
</mgrwt>
</event>
<event>
 6    1  0.1897864E-005  0.3722284E+04  0.7818608E-02  0.8063041E-01
         -2   -1    0    0    0  501 -0.00000000000E+00  0.00000000000E+00  0.17669746997E+04  0.17669746997E+04  0.00000000000E+00 0.  1.
          2   -1    0    0  501    0  0.00000000000E+00 -0.00000000000E+00 -0.19603274187E+04  0.19603274187E+04  0.00000000000E+00 0. -1.
         23    2    1    2    0    0  0.11441913715E+04 -0.12007690740E+04 -0.93957489898E+03  0.19085476530E+04  0.93449929389E+02 0.  0.
         13    1    3    3    0    0  0.38973007058E+03 -0.37458238935E+03 -0.26415278300E+03  0.60164623085E+03  0.00000000000E+00 0.  1.
        -13    1    3    3    0    0  0.75446130088E+03 -0.82618668463E+03 -0.67542211597E+03  0.13069014221E+04  0.00000000000E+00 0. -1.
         22    1    1    2    0    0 -0.11441913715E+04  0.12007690740E+04  0.74622218002E+03  0.18187544654E+04  0.00000000000E+00 0.  1.
<mgrwt>
<rscale>  0 0.37222837E+04</rscale>
<asrwt>0</asrwt>
<pdfrwt beam="1">  1        2 0.30158883E+00 0.37222837E+04</pdfrwt>
<pdfrwt beam="2">  1       -2 0.27184226E+00 0.37222837E+04</pdfrwt>
<totfact> 0.26790153E-01</totfact>
</mgrwt>
</event>
<event>
 6    1  0.1780144E-005  0.3081278E+04  0.7818608E-02  0.8220895E-01
         -2   -1    0    0    0  501 -0.00000000000E+00  0.00000000000E+00  0.68445599008E+03  0.68445599008E+03  0.00000000000E+00 0.  1.
          2   -1    0    0  501    0  0.00000000000E+00 -0.00000000000E+00 -0.34678170604E+04  0.34678170604E+04  0.00000000000E+00 0. -1.
         23    2    1    2    0    0 -0.46494162784E+02 -0.17657959615E+03 -0.34526430966E+04  0.34585292277E+04  0.85662157100E+02 0.  0.
         13    1    3    3    0    0 -0.19709958937E+02 -0.12322401722E+03 -0.15745071399E+04  0.15794446412E+04  0.00000000000E+00 0. -1.
        -13    1    3    3    0    0 -0.26784203847E+02 -0.53355578928E+02 -0.18781359567E+04  0.18790845865E+04  0.00000000000E+00 0.  1.
         22    1    1    2    0    0  0.46494162784E+02  0.17657959615E+03  0.66928202629E+03  0.69374382280E+03  0.00000000000E+00 0.  1.
<mgrwt>
<rscale>  0 0.30812778E+04</rscale>
<asrwt>0</asrwt>
<pdfrwt beam="1">  1        2 0.53351032E+00 0.30812778E+04</pdfrwt>
<pdfrwt beam="2">  1       -2 0.10530092E+00 0.30812778E+04</pdfrwt>
<totfact> 0.53092855E-01</totfact>
</mgrwt>
</event>
<event>
 6    1  0.1780144E-005  0.8165485E+03  0.7818608E-02  0.9536368E-01
         -1   -1    0    0    0  501 -0.00000000000E+00  0.00000000000E+00  0.58388244539E+03  0.58388244539E+03  0.00000000000E+00 0.  1.
          1   -1    0    0  501    0  0.00000000000E+00 -0.00000000000E+00 -0.28548189629E+03  0.28548189629E+03  0.00000000000E+00 0. -1.
         23    2    1    2    0    0 -0.10626773355E+03  0.37389053382E+02  0.56321560062E+03  0.58158355007E+03  0.91306300018E+02 0.  0.
         13    1    3    3    0    0 -0.11884637977E+03  0.16164706338E+02  0.44991104867E+03  0.46562400220E+03  0.00000000000E+00 0. -1.
        -13    1    3    3    0    0  0.12578646217E+02  0.21224347044E+02  0.11330455196E+03  0.11595954787E+03  0.00000000000E+00 0.  1.
         22    1    1    2    0    0  0.10626773355E+03 -0.37389053382E+02 -0.26481505152E+03  0.28778079161E+03  0.00000000000E+00 0. -1.
<mgrwt>
<rscale>  0 0.81654851E+03</rscale>
<asrwt>0</asrwt>
<pdfrwt beam="1">  1        1 0.43920292E-01 0.81654851E+03</pdfrwt>
<pdfrwt beam="2">  1       -1 0.89828069E-01 0.81654851E+03</pdfrwt>
<totfact> 0.11483758E+02</totfact>
</mgrwt>
</event>
<event>
 6    1  0.1780144E-005  0.3607286E+04  0.7818608E-02  0.8088825E-01
          1   -1    0    0  501    0  0.00000000000E+00  0.00000000000E+00  0.22345003288E+04  0.22345003288E+04  0.00000000000E+00 0. -1.
         -1   -1    0    0    0  501 -0.00000000000E+00 -0.00000000000E+00 -0.14558634938E+04  0.14558634938E+04  0.00000000000E+00 0.  1.
         23    2    1    2    0    0  0.24040281247E+03  0.15857175576E+04 -0.45203977750E+03  0.16687657890E+04  0.90253051577E+02 0.  0.
         11    1    3    3    0    0  0.20541909584E+03  0.13872749747E+04 -0.36400384374E+03  0.14488711670E+04  0.00000000000E+00 0. -1.
        -11    1    3    3    0    0  0.34983716630E+02  0.19844258297E+03 -0.88035933763E+02  0.21989462203E+03  0.00000000000E+00 0.  1.
         22    1    1    2    0    0 -0.24040281247E+03 -0.15857175576E+04  0.12306766126E+04  0.20215980336E+04  0.00000000000E+00 0. -1.
<mgrwt>
<rscale>  0 0.36072857E+04</rscale>
<asrwt>0</asrwt>
<pdfrwt beam="1">  1        1 0.34376928E+00 0.36072857E+04</pdfrwt>
<pdfrwt beam="2">  1       -1 0.22397900E+00 0.36072857E+04</pdfrwt>
<totfact> 0.17271238E-01</totfact>
</mgrwt>
</event>
<event>
 6    1  0.1780144E-005  0.3167472E+04  0.7818608E-02  0.8197461E-01
          1   -1    0    0  501    0  0.00000000000E+00  0.00000000000E+00  0.30577743631E+04  0.30577743631E+04  0.00000000000E+00 0. -1.
         -1   -1    0    0    0  501 -0.00000000000E+00 -0.00000000000E+00 -0.82027649393E+03  0.82027649393E+03  0.00000000000E+00 0.  1.
         23    2    1    2    0    0  0.21418044714E+03  0.47146309257E+03  0.29504787465E+04  0.29968627710E+04  0.87811861326E+02 0.  0.
         13    1    3    3    0    0  0.17055364562E+02  0.58135779041E+02  0.52961567208E+03  0.53306980254E+03  0.00000000000E+00 0. -1.
        -13    1    3    3    0    0  0.19712508258E+03  0.41332731353E+03  0.24208630744E+04  0.24637929684E+04  0.00000000000E+00 0.  1.
         22    1    1    2    0    0 -0.21418044714E+03 -0.47146309257E+03 -0.71298087731E+03  0.88118808606E+03  0.00000000000E+00 0.  1.
<mgrwt>
<rscale>  0 0.31674725E+04</rscale>
<asrwt>0</asrwt>
<pdfrwt beam="1">  1        1 0.47042682E+00 0.31674725E+04</pdfrwt>
<pdfrwt beam="2">  1       -1 0.12619639E+00 0.31674725E+04</pdfrwt>
<totfact> 0.24837013E-01</totfact>
</mgrwt>
</event>
<event>
 6    1  0.1780144E-005  0.1127810E+04  0.7818608E-02  0.9178503E-01
         -1   -1    0    0    0  501 -0.00000000000E+00  0.00000000000E+00  0.25470423533E+03  0.25470423533E+03  0.00000000000E+00 0.  1.
          1   -1    0    0  501    0  0.00000000000E+00 -0.00000000000E+00 -0.12484621506E+04  0.12484621506E+04  0.00000000000E+00 0. -1.
         23    2    1    2    0    0 -0.53562886121E+03 -0.15523362388E+03 -0.57303886901E+03  0.80459622422E+03  0.89475045052E+02 0.  0.
         11    1    3    3    0    0 -0.36070188561E+03 -0.88356531059E+02 -0.43491123760E+03  0.57189204528E+03  0.00000000000E+00 0. -1.
        -11    1    3    3    0    0 -0.17492697560E+03 -0.66877092826E+02 -0.13812763141E+03  0.23270417894E+03  0.00000000000E+00 0.  1.
         22    1    1    2    0    0  0.53562886121E+03  0.15523362388E+03 -0.42071904626E+03  0.69857016171E+03  0.00000000000E+00 0.  1.
<mgrwt>
<rscale>  0 0.11278096E+04</rscale>
<asrwt>0</asrwt>
<pdfrwt beam="1">  1        1 0.19207110E+00 0.11278096E+04</pdfrwt>
<pdfrwt beam="2">  1       -1 0.39185268E-01 0.11278096E+04</pdfrwt>
<totfact> 0.61939368E+01</totfact>
</mgrwt>
</event>
<event>
 6    1  0.1780144E-005  0.2902524E+04  0.7818608E-02  0.8272127E-01
          2   -1    0    0  501    0  0.00000000000E+00  0.00000000000E+00  0.19943430904E+04  0.19943430904E+04  0.00000000000E+00 0. -1.
         -2   -1    0    0    0  501 -0.00000000000E+00 -0.00000000000E+00 -0.10560679968E+04  0.10560679968E+04  0.00000000000E+00 0.  1.
         23    2    1    2    0    0 -0.31232305999E+03  0.12820608969E+04 -0.16151634855E+03  0.13326314001E+04  0.92698869838E+02 0.  0.
         11    1    3    3    0    0 -0.19968387032E+03  0.71210750842E+03 -0.51811964304E+02  0.74138736923E+03  0.00000000000E+00 0. -1.
        -11    1    3    3    0    0 -0.11263918967E+03  0.56995338848E+03 -0.10970438424E+03  0.59124403085E+03  0.00000000000E+00 0.  1.
         22    1    1    2    0    0  0.31232305999E+03 -0.12820608969E+04  0.10997914421E+04  0.17177796871E+04  0.00000000000E+00 0. -1.
<mgrwt>
<rscale>  0 0.29025244E+04</rscale>
<asrwt>0</asrwt>
<pdfrwt beam="1">  1        2 0.30682202E+00 0.29025244E+04</pdfrwt>
<pdfrwt beam="2">  1       -2 0.16247200E+00 0.29025244E+04</pdfrwt>
<totfact> 0.14028367E+00</totfact>
</mgrwt>
</event>
<event>
 6    1  0.1780144E-005  0.2803400E+04  0.7818608E-02  0.8302214E-01
         -2   -1    0    0    0  501 -0.00000000000E+00  0.00000000000E+00  0.54153705697E+03  0.54153705697E+03  0.00000000000E+00 0.  1.
          2   -1    0    0  501    0  0.00000000000E+00 -0.00000000000E+00 -0.36281218221E+04  0.36281218221E+04  0.00000000000E+00 0. -1.
         23    2    1    2    0    0  0.10517964317E+04  0.50790245572E+03 -0.26932607638E+04  0.29372042518E+04  0.96304914930E+02 0.  0.
         11    1    3    3    0    0  0.54531011640E+03  0.22120726480E+03 -0.14284062192E+04  0.15448754332E+04  0.00000000000E+00 0. -1.
        -11    1    3    3    0    0  0.50648631533E+03  0.28669519092E+03 -0.12648545445E+04  0.13923288185E+04  0.00000000000E+00 0.  1.
         22    1    1    2    0    0 -0.10517964317E+04 -0.50790245572E+03 -0.39332400139E+03  0.12324546273E+04  0.00000000000E+00 0.  1.
<mgrwt>
<rscale>  0 0.28033997E+04</rscale>
<asrwt>0</asrwt>
<pdfrwt beam="1">  1        2 0.55817257E+00 0.28033997E+04</pdfrwt>
<pdfrwt beam="2">  1       -2 0.83313396E-01 0.28033997E+04</pdfrwt>
<totfact> 0.72279689E-01</totfact>
</mgrwt>
</event>
<event>
 6    1  0.1780144E-005  0.1356322E+04  0.7818608E-02  0.8986056E-01
          1   -1    0    0  501    0  0.00000000000E+00  0.00000000000E+00  0.21859390905E+03  0.21859390905E+03  0.00000000000E+00 0. -1.
         -1   -1    0    0    0  501 -0.00000000000E+00 -0.00000000000E+00 -0.21039114484E+04  0.21039114484E+04  0.00000000000E+00 0.  1.
         23    2    1    2    0    0 -0.51076036315E+03  0.19883346270E+03 -0.16216757743E+04  0.17142966147E+04  0.92572522495E+02 0.  0.
         13    1    3    3    0    0 -0.22590475093E+03  0.47119884578E+02 -0.59950442545E+03  0.64238523967E+03  0.00000000000E+00 0. -1.
        -13    1    3    3    0    0 -0.28485561222E+03  0.15171357813E+03 -0.10221713489E+04  0.10719113751E+04  0.00000000000E+00 0.  1.
         22    1    1    2    0    0  0.51076036315E+03 -0.19883346270E+03 -0.26364176509E+03  0.60820874275E+03  0.00000000000E+00 0. -1.
<mgrwt>
<rscale>  0 0.13563218E+04</rscale>
<asrwt>0</asrwt>
<pdfrwt beam="1">  1        1 0.33629832E-01 0.13563218E+04</pdfrwt>
<pdfrwt beam="2">  1       -1 0.32367868E+00 0.13563218E+04</pdfrwt>
<totfact> 0.30183128E+00</totfact>
</mgrwt>
</event>
<event>
 6    1  0.1780144E-005  0.6280183E+03  0.7818608E-02  0.9848924E-01
          4   -1    0    0  501    0  0.00000000000E+00  0.00000000000E+00  0.16278931816E+04  0.16278931816E+04  0.00000000000E+00 0. -1.
         -4   -1    0    0    0  501 -0.00000000000E+00 -0.00000000000E+00 -0.60570157904E+02  0.60570157904E+02  0.00000000000E+00 0.  1.
         23    2    1    2    0    0  0.28581793866E+03  0.10777672569E+03  0.70583611193E+03  0.77442427261E+03  0.90667637249E+02 0.  0.
         11    1    3    3    0    0  0.19246991380E+03  0.53440288310E+02  0.54710566655E+03  0.58243037567E+03  0.00000000000E+00 0.  1.
        -11    1    3    3    0    0  0.93348024854E+02  0.54336437378E+02  0.15873044539E+03  0.19199389694E+03  0.00000000000E+00 0. -1.
         22    1    1    2    0    0 -0.28581793866E+03 -0.10777672569E+03  0.86148691173E+03  0.91403906686E+03  0.00000000000E+00 0. -1.
<mgrwt>
<rscale>  0 0.62801830E+03</rscale>
<asrwt>0</asrwt>
<pdfrwt beam="1">  1        4 0.25044507E+00 0.62801830E+03</pdfrwt>
<pdfrwt beam="2">  1       -4 0.93184871E-02 0.62801830E+03</pdfrwt>
<totfact> 0.11431843E+01</totfact>
</mgrwt>
</event>
<event>
 6    1  0.1780144E-005  0.3071909E+04  0.7818608E-02  0.8223490E-01
         -2   -1    0    0    0  501 -0.00000000000E+00  0.00000000000E+00  0.50751812633E+03  0.50751812633E+03  0.00000000000E+00 0.  1.
          2   -1    0    0  501    0  0.00000000000E+00 -0.00000000000E+00 -0.46484191251E+04  0.46484191251E+04  0.00000000000E+00 0. -1.
         23    2    1    2    0    0 -0.11748720349E+04  0.59020934453E+03 -0.74364752198E+03  0.15131357808E+04  0.88864421922E+02 0.  0.
         13    1    3    3    0    0 -0.77441906322E+03  0.43471408254E+03 -0.51066916860E+03  0.10244433702E+04  0.00000000000E+00 0. -1.
        -13    1    3    3    0    0 -0.40045297168E+03  0.15549526199E+03 -0.23297835339E+03  0.48869241060E+03  0.00000000000E+00 0.  1.
         22    1    1    2    0    0  0.11748720349E+04 -0.59020934453E+03 -0.33972534768E+04  0.36428014706E+04  0.00000000000E+00 0. -1.
<mgrwt>
<rscale>  0 0.30719095E+04</rscale>
<asrwt>0</asrwt>
<pdfrwt beam="1">  1        2 0.71514138E+00 0.30719095E+04</pdfrwt>
<pdfrwt beam="2">  1       -2 0.78079714E-01 0.30719095E+04</pdfrwt>
<totfact> 0.10796874E-01</totfact>
</mgrwt>
</event>
<event>
 6    1  0.1780144E-005  0.6689232E+03  0.7818608E-02  0.9771905E-01
          2   -1    0    0  501    0  0.00000000000E+00  0.00000000000E+00  0.60445260785E+03  0.60445260785E+03  0.00000000000E+00 0.  1.
         -2   -1    0    0    0  501 -0.00000000000E+00 -0.00000000000E+00 -0.18506752476E+03  0.18506752476E+03  0.00000000000E+00 0. -1.
         23    2    1    2    0    0  0.32717659235E+02 -0.32537892579E+03  0.18008870559E+03  0.38429840706E+03  0.91167062109E+02 0.  0.
         11    1    3    3    0    0 -0.12945484815E+02 -0.16394922142E+03  0.49645767772E+02  0.17178950794E+03  0.00000000000E+00 0.  1.
        -11    1    3    3    0    0  0.45663144050E+02 -0.16142970437E+03  0.13044293782E+03  0.21250889912E+03  0.00000000000E+00 0. -1.
         22    1    1    2    0    0 -0.32717659235E+02  0.32537892579E+03  0.23929637751E+03  0.40522172555E+03  0.00000000000E+00 0. -1.
<mgrwt>
<rscale>  0 0.66892316E+03</rscale>
<asrwt>0</asrwt>
<pdfrwt beam="1">  1        2 0.92992708E-01 0.66892316E+03</pdfrwt>
<pdfrwt beam="2">  1       -2 0.28471927E-01 0.66892316E+03</pdfrwt>
<totfact> 0.55870312E+02</totfact>
</mgrwt>
</event>
<event>
 6    1  0.1780144E-005  0.1619263E+04  0.7818608E-02  0.8808801E-01
          2   -1    0    0  501    0  0.00000000000E+00  0.00000000000E+00  0.52629236707E+03  0.52629236707E+03  0.00000000000E+00 0. -1.
         -2   -1    0    0    0  501 -0.00000000000E+00 -0.00000000000E+00 -0.12455109717E+04  0.12455109717E+04  0.00000000000E+00 0.  1.
         23    2    1    2    0    0 -0.47030584270E+03 -0.33749969943E+03  0.25461026900E+03  0.63891485888E+03  0.91061380540E+02 0.  0.
         13    1    3    3    0    0 -0.28879320901E+03 -0.17663004476E+03  0.10720984114E+03  0.35509666335E+03  0.00000000000E+00 0. -1.
        -13    1    3    3    0    0 -0.18151263368E+03 -0.16086965467E+03  0.14740042786E+03  0.28381819553E+03  0.00000000000E+00 0.  1.
         22    1    1    2    0    0  0.47030584270E+03  0.33749969943E+03 -0.97382887366E+03  0.11328884799E+04  0.00000000000E+00 0.  1.
<mgrwt>
<rscale>  0 0.16192627E+04</rscale>
<asrwt>0</asrwt>
<pdfrwt beam="1">  1        2 0.80968057E-01 0.16192627E+04</pdfrwt>
<pdfrwt beam="2">  1       -2 0.19161707E+00 0.16192627E+04</pdfrwt>
<totfact> 0.83866222E+00</totfact>
</mgrwt>
</event>
<event>
 6    1  0.1780144E-005  0.1192149E+04  0.7818608E-02  0.9119756E-01
         -2   -1    0    0    0  501 -0.00000000000E+00  0.00000000000E+00  0.11682253832E+03  0.11682253832E+03  0.00000000000E+00 0.  1.
          2   -1    0    0  501    0  0.00000000000E+00 -0.00000000000E+00 -0.30414085519E+04  0.30414085519E+04  0.00000000000E+00 0. -1.
         23    2    1    2    0    0  0.50435937803E+03 -0.28107954883E+03 -0.18231503312E+04  0.19146296037E+04  0.92440759685E+02 0.  0.
         13    1    3    3    0    0  0.40654187865E+03 -0.26420375300E+03 -0.14785113247E+04  0.15559806102E+04  0.00000000000E+00 0.  1.
        -13    1    3    3    0    0  0.97817499381E+02 -0.16875795829E+02 -0.34463900655E+03  0.35864899346E+03  0.00000000000E+00 0. -1.
         22    1    1    2    0    0 -0.50435937803E+03  0.28107954883E+03 -0.11014356823E+04  0.12436014865E+04  0.00000000000E+00 0.  1.
<mgrwt>
<rscale>  0 0.11921494E+04</rscale>
<asrwt>0</asrwt>
<pdfrwt beam="1">  1        2 0.46790900E+00 0.11921494E+04</pdfrwt>
<pdfrwt beam="2">  1       -2 0.17972698E-01 0.11921494E+04</pdfrwt>
<totfact> 0.42357850E+01</totfact>
</mgrwt>
</event>
<event>
 6    1  0.1780144E-005  0.7048959E+03  0.7818608E-02  0.9708896E-01
         -1   -1    0    0    0  501 -0.00000000000E+00  0.00000000000E+00  0.12209265135E+04  0.12209265135E+04  0.00000000000E+00 0.  1.
          1   -1    0    0  501    0  0.00000000000E+00 -0.00000000000E+00 -0.10174204131E+03  0.10174204131E+03  0.00000000000E+00 0. -1.
         23    2    1    2    0    0  0.11873765287E+03 -0.22980278492E+03  0.13511514795E+03  0.30517143683E+03  0.89249943892E+02 0.  0.
         11    1    3    3    0    0  0.14016715869E+02 -0.10968878986E+03  0.31087418800E+02  0.11486743033E+03  0.00000000000E+00 0.  1.
        -11    1    3    3    0    0  0.10472093700E+03 -0.12011399507E+03  0.10402772915E+03  0.19030400649E+03  0.00000000000E+00 0. -1.
         22    1    1    2    0    0 -0.11873765287E+03  0.22980278492E+03  0.98406932421E+03  0.10174971179E+04  0.00000000000E+00 0.  1.
<mgrwt>
<rscale>  0 0.70489590E+03</rscale>
<asrwt>0</asrwt>
<pdfrwt beam="1">  1        1 0.15652623E-01 0.70489590E+03</pdfrwt>
<pdfrwt beam="2">  1       -1 0.18783484E+00 0.70489590E+03</pdfrwt>
<totfact> 0.68248316E+01</totfact>
</mgrwt>
</event>
<event>
 6    1  0.1780144E-005  0.2134734E+04  0.7818608E-02  0.8546095E-01
         -1   -1    0    0    0  501 -0.00000000000E+00  0.00000000000E+00  0.42761405099E+03  0.42761405099E+03  0.00000000000E+00 0.  1.
          1   -1    0    0  501    0  0.00000000000E+00 -0.00000000000E+00 -0.26642527107E+04  0.26642527107E+04  0.00000000000E+00 0. -1.
         23    2    1    2    0    0 -0.95313118174E+03 -0.10053544345E+03 -0.44634047127E+03  0.10611688451E+04  0.91066330008E+02 0.  0.
         13    1    3    3    0    0 -0.61784844708E+03 -0.22779007398E+02 -0.27428610874E+03  0.67637892944E+03  0.00000000000E+00 0. -1.
        -13    1    3    3    0    0 -0.33528273466E+03 -0.77756436057E+02 -0.17205436252E+03  0.38478991563E+03  0.00000000000E+00 0.  1.
         22    1    1    2    0    0  0.95313118174E+03  0.10053544345E+03 -0.17902981885E+04  0.20306979166E+04  0.00000000000E+00 0. -1.
<mgrwt>
<rscale>  0 0.21347336E+04</rscale>
<asrwt>0</asrwt>
<pdfrwt beam="1">  1        1 0.40988504E+00 0.21347336E+04</pdfrwt>
<pdfrwt beam="2">  1       -1 0.65786776E-01 0.21347336E+04</pdfrwt>
<totfact> 0.22342926E+00</totfact>
</mgrwt>
</event>
<event>
 6    1  0.1780144E-005  0.2710753E+04  0.7818608E-02  0.8331524E-01
          2   -1    0    0  501    0  0.00000000000E+00  0.00000000000E+00  0.34428076467E+04  0.34428076467E+04  0.00000000000E+00 0. -1.
         -2   -1    0    0    0  501 -0.00000000000E+00 -0.00000000000E+00 -0.53358948220E+03  0.53358948220E+03  0.00000000000E+00 0.  1.
         23    2    1    2    0    0 -0.41289306444E+03  0.36131593840E+03 -0.35931295155E+03  0.66213619369E+03  0.91042033348E+02 0.  0.
         11    1    3    3    0    0 -0.29565082721E+03  0.20406672744E+03 -0.24901984700E+03  0.43710813889E+03  0.00000000000E+00 0. -1.
        -11    1    3    3    0    0 -0.11724223723E+03  0.15724921096E+03 -0.11029310455E+03  0.22502805481E+03  0.00000000000E+00 0.  1.
         22    1    1    2    0    0  0.41289306444E+03 -0.36131593840E+03  0.32685311161E+04  0.33142609352E+04  0.00000000000E+00 0. -1.
<mgrwt>
<rscale>  0 0.27107534E+04</rscale>
<asrwt>0</asrwt>
<pdfrwt beam="1">  1        2 0.52966270E+00 0.27107534E+04</pdfrwt>
<pdfrwt beam="2">  1       -2 0.82090692E-01 0.27107534E+04</pdfrwt>
<totfact> 0.10185260E+00</totfact>
</mgrwt>
</event>
<event>
 6    1  0.1780144E-005  0.1147822E+04  0.7818608E-02  0.9159795E-01
         -1   -1    0    0    0  501 -0.00000000000E+00  0.00000000000E+00  0.78075528570E+03  0.78075528570E+03  0.00000000000E+00 0.  1.
          1   -1    0    0  501    0  0.00000000000E+00 -0.00000000000E+00 -0.42186540539E+03  0.42186540539E+03  0.00000000000E+00 0. -1.
         23    2    1    2    0    0  0.41483461788E+03 -0.36610825388E+03  0.32588143805E+03  0.64835309235E+03  0.89666085782E+02 0.  0.
         13    1    3    3    0    0  0.12502958772E+03 -0.99341705351E+02  0.14183160333E+03  0.21358224629E+03  0.00000000000E+00 0.  1.
        -13    1    3    3    0    0  0.28980503016E+03 -0.26676654853E+03  0.18404983472E+03  0.43477084606E+03  0.00000000000E+00 0. -1.
         22    1    1    2    0    0 -0.41483461788E+03  0.36610825388E+03  0.33008442262E+02  0.55426759874E+03  0.00000000000E+00 0. -1.
<mgrwt>
<rscale>  0 0.11478217E+04</rscale>
<asrwt>0</asrwt>
<pdfrwt beam="1">  1        1 0.64902370E-01 0.11478217E+04</pdfrwt>
<pdfrwt beam="2">  1       -1 0.12011620E+00 0.11478217E+04</pdfrwt>
<totfact> 0.34287595E+01</totfact>
</mgrwt>
</event>
<event>
 6    1  0.1780144E-005  0.2762923E+04  0.7818608E-02  0.8314873E-01
          1   -1    0    0  501    0  0.00000000000E+00  0.00000000000E+00  0.32182965810E+04  0.32182965810E+04  0.00000000000E+00 0. -1.
         -1   -1    0    0    0  501 -0.00000000000E+00 -0.00000000000E+00 -0.59299574934E+03  0.59299574934E+03  0.00000000000E+00 0.  1.
         23    2    1    2    0    0 -0.91647092152E+03  0.45112506133E+03  0.25939355501E+04  0.27893253290E+04  0.91659052833E+02 0.  0.
         13    1    3    3    0    0 -0.59542686620E+03  0.30273328416E+03  0.15766002647E+04  0.17122642871E+04  0.00000000000E+00 0.  1.
        -13    1    3    3    0    0 -0.32104405532E+03  0.14839177717E+03  0.10173352854E+04  0.10770610419E+04  0.00000000000E+00 0. -1.
         22    1    1    2    0    0  0.91647092152E+03 -0.45112506133E+03  0.31365281562E+02  0.10219670013E+04  0.00000000000E+00 0.  1.
<mgrwt>
<rscale>  0 0.27629232E+04</rscale>
<asrwt>0</asrwt>
<pdfrwt beam="1">  1        1 0.49512254E+00 0.27629232E+04</pdfrwt>
<pdfrwt beam="2">  1       -1 0.91230117E-01 0.27629232E+04</pdfrwt>
<totfact> 0.41904088E-01</totfact>
</mgrwt>
</event>
<event>
 6    1  0.2224696E-005  0.4721634E+04  0.7818608E-02  0.7872944E-01
          2   -1    0    0  501    0  0.00000000000E+00  0.00000000000E+00  0.29536136369E+04  0.29536136369E+04  0.00000000000E+00 0. -1.
         -2   -1    0    0    0  501 -0.00000000000E+00 -0.00000000000E+00 -0.18869956030E+04  0.18869956030E+04  0.00000000000E+00 0.  1.
         23    2    1    2    0    0  0.16594080481E+04 -0.50674555425E+02 -0.11858947481E+04  0.20423925196E+04  0.93903514381E+02 0.  0.
         13    1    3    3    0    0  0.40633088692E+03 -0.98620120147E+01 -0.34081578553E+03  0.53043137974E+03  0.00000000000E+00 0. -1.
        -13    1    3    3    0    0  0.12530771611E+04 -0.40812543410E+02 -0.84507896256E+03  0.15119611398E+04  0.00000000000E+00 0.  1.
         22    1    1    2    0    0 -0.16594080481E+04  0.50674555425E+02  0.22525127821E+04  0.27982167203E+04  0.00000000000E+00 0. -1.
<mgrwt>
<rscale>  0 0.47216336E+04</rscale>
<asrwt>0</asrwt>
<pdfrwt beam="1">  1        2 0.45440210E+00 0.47216336E+04</pdfrwt>
<pdfrwt beam="2">  1       -2 0.29030702E+00 0.47216336E+04</pdfrwt>
<totfact> 0.50448049E-02</totfact>
</mgrwt>
</event>
<event>
 6    1  0.1780144E-005  0.4397071E+04  0.7818608E-02  0.7928909E-01
          2   -1    0    0  501    0  0.00000000000E+00  0.00000000000E+00  0.32891609398E+04  0.32891609398E+04  0.00000000000E+00 0. -1.
         -2   -1    0    0    0  501 -0.00000000000E+00 -0.00000000000E+00 -0.14695412950E+04  0.14695412950E+04  0.00000000000E+00 0.  1.
         23    2    1    2    0    0 -0.27103124845E+03  0.12593579377E+04 -0.10166732346E+04  0.16435782163E+04  0.91019417149E+02 0.  0.
         13    1    3    3    0    0 -0.68946713704E+02  0.36269370283E+03 -0.24120248615E+03  0.44099774458E+03  0.00000000000E+00 0. -1.
        -13    1    3    3    0    0 -0.20208453474E+03  0.89666423484E+03 -0.77547074843E+03  0.12025804717E+04  0.00000000000E+00 0.  1.
         22    1    1    2    0    0  0.27103124845E+03 -0.12593579377E+04  0.28362928794E+04  0.31151240185E+04  0.00000000000E+00 0. -1.
<mgrwt>
<rscale>  0 0.43970708E+04</rscale>
<asrwt>0</asrwt>
<pdfrwt beam="1">  1        2 0.50602476E+00 0.43970708E+04</pdfrwt>
<pdfrwt beam="2">  1       -2 0.22608328E+00 0.43970708E+04</pdfrwt>
<totfact> 0.78191131E-02</totfact>
</mgrwt>
</event>
<event>
 6    1  0.1780144E-005  0.2101368E+04  0.7818608E-02  0.8560641E-01
         -2   -1    0    0    0  501 -0.00000000000E+00  0.00000000000E+00  0.39667194620E+03  0.39667194620E+03  0.00000000000E+00 0.  1.
          2   -1    0    0  501    0  0.00000000000E+00 -0.00000000000E+00 -0.27829981554E+04  0.27829981554E+04  0.00000000000E+00 0. -1.
         23    2    1    2    0    0  0.87785414802E+03  0.47982475242E+03 -0.16713138174E+04  0.19499943644E+04  0.91260323851E+02 0.  0.
         11    1    3    3    0    0  0.58443750699E+03  0.28134547642E+03 -0.11345000308E+04  0.13068331174E+04  0.00000000000E+00 0.  1.
        -11    1    3    3    0    0  0.29341664103E+03  0.19847927600E+03 -0.53681378658E+03  0.64316124704E+03  0.00000000000E+00 0. -1.
         22    1    1    2    0    0 -0.87785414802E+03 -0.47982475242E+03 -0.71501239179E+03  0.12296757372E+04  0.00000000000E+00 0.  1.
<mgrwt>
<rscale>  0 0.21013684E+04</rscale>
<asrwt>0</asrwt>
<pdfrwt beam="1">  1        2 0.42815356E+00 0.21013684E+04</pdfrwt>
<pdfrwt beam="2">  1       -2 0.61026454E-01 0.21013684E+04</pdfrwt>
<totfact> 0.54565322E+00</totfact>
</mgrwt>
</event>
<event>
 6    1  0.1780144E-005  0.4223537E+04  0.7818608E-02  0.7960910E-01
          1   -1    0    0  501    0  0.00000000000E+00  0.00000000000E+00  0.45813451604E+04  0.45813451604E+04  0.00000000000E+00 0. -1.
         -1   -1    0    0    0  501 -0.00000000000E+00 -0.00000000000E+00 -0.97341831889E+03  0.97341831889E+03  0.00000000000E+00 0.  1.
         23    2    1    2    0    0  0.17198870886E+04 -0.66065233506E+02  0.34118033683E+04  0.38224700199E+04  0.92187942190E+02 0.  0.
         13    1    3    3    0    0  0.47170782410E+03 -0.47726694359E+02  0.87668581974E+03  0.99667654492E+03  0.00000000000E+00 0.  1.
        -13    1    3    3    0    0  0.12481792645E+04 -0.18338539147E+02  0.25351175485E+04  0.28257934750E+04  0.00000000000E+00 0. -1.
         22    1    1    2    0    0 -0.17198870886E+04  0.66065233506E+02  0.19612347327E+03  0.17322934594E+04  0.00000000000E+00 0. -1.
<mgrwt>
<rscale>  0 0.42235366E+04</rscale>
<asrwt>0</asrwt>
<pdfrwt beam="1">  1        1 0.70482232E+00 0.42235366E+04</pdfrwt>
<pdfrwt beam="2">  1       -1 0.14975667E+00 0.42235366E+04</pdfrwt>
<totfact> 0.70850070E-03</totfact>
</mgrwt>
</event>
<event>
 6    1  0.1780144E-005  0.1865516E+04  0.7818608E-02  0.8672214E-01
         -2   -1    0    0    0  501 -0.00000000000E+00  0.00000000000E+00  0.68973445168E+03  0.68973445168E+03  0.00000000000E+00 0.  1.
          2   -1    0    0  501    0  0.00000000000E+00 -0.00000000000E+00 -0.12614096919E+04  0.12614096919E+04  0.00000000000E+00 0. -1.
         23    2    1    2    0    0 -0.52993386382E+03 -0.69428071397E+03 -0.61672468564E+03  0.10765670673E+04  0.12566504149E+03 0.  0.
         13    1    3    3    0    0 -0.49200340138E+03 -0.61107428943E+03 -0.50861372380E+03  0.93496901243E+03  0.00000000000E+00 0.  1.
        -13    1    3    3    0    0 -0.37930462441E+02 -0.83206424533E+02 -0.10811096184E+03  0.14159805484E+03  0.00000000000E+00 0. -1.
         22    1    1    2    0    0  0.52993386382E+03  0.69428071397E+03  0.45049445458E+02  0.87457707627E+03  0.00000000000E+00 0.  1.
<mgrwt>
<rscale>  0 0.18655163E+04</rscale>
<asrwt>0</asrwt>
<pdfrwt beam="1">  1        2 0.19406303E+00 0.18655163E+04</pdfrwt>
<pdfrwt beam="2">  1       -2 0.10611299E+00 0.18655163E+04</pdfrwt>
<totfact> 0.11723930E+01</totfact>
</mgrwt>
</event>
<event>
 6    1  0.1780144E-005  0.2603058E+04  0.7818608E-02  0.8367163E-01
          1   -1    0    0  501    0  0.00000000000E+00  0.00000000000E+00  0.11478047333E+04  0.11478047333E+04  0.00000000000E+00 0. -1.
         -1   -1    0    0    0  501 -0.00000000000E+00 -0.00000000000E+00 -0.14758419575E+04  0.14758419575E+04  0.00000000000E+00 0.  1.
         23    2    1    2    0    0 -0.74645651803E+03  0.54269502794E+02  0.90686327281E+03  0.11796516251E+04  0.95049717790E+02 0.  0.
         13    1    3    3    0    0 -0.49757958573E+03 -0.85873889859E+01  0.58947838485E+03  0.77145573664E+03  0.00000000000E+00 0. -1.
        -13    1    3    3    0    0 -0.24887693230E+03  0.62856891780E+02  0.31738488796E+03  0.40819588849E+03  0.00000000000E+00 0.  1.
         22    1    1    2    0    0  0.74645651803E+03 -0.54269502794E+02 -0.12349004970E+04  0.14439950657E+04  0.00000000000E+00 0.  1.
<mgrwt>
<rscale>  0 0.26030585E+04</rscale>
<asrwt>0</asrwt>
<pdfrwt beam="1">  1        1 0.17658534E+00 0.26030585E+04</pdfrwt>
<pdfrwt beam="2">  1       -1 0.22705261E+00 0.26030585E+04</pdfrwt>
<totfact> 0.10151637E+00</totfact>
</mgrwt>
</event>
<event>
 6    1  0.1780144E-005  0.2897888E+04  0.7818608E-02  0.8273506E-01
          2   -1    0    0  501    0  0.00000000000E+00  0.00000000000E+00  0.11954837836E+04  0.11954837836E+04  0.00000000000E+00 0. -1.
         -2   -1    0    0    0  501 -0.00000000000E+00 -0.00000000000E+00 -0.17561411420E+04  0.17561411420E+04  0.00000000000E+00 0.  1.
         23    2    1    2    0    0 -0.38545174034E+03  0.46149968245E+03  0.10605548829E+04  0.12224967833E+04  0.90369930828E+02 0.  0.
         13    1    3    3    0    0 -0.21167737655E+03  0.23757137514E+03  0.64862309655E+03  0.72246757118E+03  0.00000000000E+00 0. -1.
        -13    1    3    3    0    0 -0.17377436379E+03  0.22392830731E+03  0.41193178636E+03  0.50002921208E+03  0.00000000000E+00 0.  1.
         22    1    1    2    0    0  0.38545174034E+03 -0.46149968245E+03 -0.16212122414E+04  0.17291281423E+04  0.00000000000E+00 0.  1.
<mgrwt>
<rscale>  0 0.28978877E+04</rscale>
<asrwt>0</asrwt>
<pdfrwt beam="1">  1        2 0.18392058E+00 0.28978877E+04</pdfrwt>
<pdfrwt beam="2">  1       -2 0.27017556E+00 0.28978877E+04</pdfrwt>
<totfact> 0.79539826E-01</totfact>
</mgrwt>
</event>
<event>
 6    1  0.1780144E-005  0.2051289E+04  0.7818608E-02  0.8583010E-01
         -1   -1    0    0    0  501 -0.00000000000E+00  0.00000000000E+00  0.68441362536E+03  0.68441362536E+03  0.00000000000E+00 0.  1.
          1   -1    0    0  501    0  0.00000000000E+00 -0.00000000000E+00 -0.15370041626E+04  0.15370041626E+04  0.00000000000E+00 0. -1.
         23    2    1    2    0    0 -0.87529590921E+03 -0.49652505525E+03 -0.22429142716E+03  0.10350620947E+04  0.91470412744E+02 0.  0.
         13    1    3    3    0    0 -0.23386310751E+03 -0.12554435558E+03 -0.10042325489E+03  0.28379247417E+03  0.00000000000E+00 0. -1.
        -13    1    3    3    0    0 -0.64143280170E+03 -0.37098069968E+03 -0.12386817227E+03  0.75126962053E+03  0.00000000000E+00 0.  1.
         22    1    1    2    0    0  0.87529590921E+03  0.49652505525E+03 -0.62829911007E+03  0.11863556932E+04  0.00000000000E+00 0. -1.
<mgrwt>
<rscale>  0 0.20512890E+04</rscale>
<asrwt>0</asrwt>
<pdfrwt beam="1">  1        1 0.23646218E+00 0.20512890E+04</pdfrwt>
<pdfrwt beam="2">  1       -1 0.10529440E+00 0.20512890E+04</pdfrwt>
<totfact> 0.48170619E+00</totfact>
</mgrwt>
</event>
<event>
 6    1  0.1780144E-005  0.1474435E+04  0.7818608E-02  0.8901633E-01
          2   -1    0    0  501    0  0.00000000000E+00  0.00000000000E+00  0.21667046192E+04  0.21667046192E+04  0.00000000000E+00 0. -1.
         -2   -1    0    0    0  501 -0.00000000000E+00 -0.00000000000E+00 -0.25083713752E+03  0.25083713752E+03  0.00000000000E+00 0.  1.
         23    2    1    2    0    0 -0.20714356627E+03  0.62904694186E+03  0.44112425454E+03  0.80091684720E+03  0.90932260933E+02 0.  0.
         13    1    3    3    0    0 -0.14481354079E+01  0.65942898810E+02  0.22367825551E+02  0.69648277936E+02  0.00000000000E+00 0. -1.
        -13    1    3    3    0    0 -0.20569543086E+03  0.56310404305E+03  0.41875642898E+03  0.73126856926E+03  0.00000000000E+00 0.  1.
         22    1    1    2    0    0  0.20714356627E+03 -0.62904694186E+03  0.14747432272E+04  0.16166249096E+04  0.00000000000E+00 0. -1.
<mgrwt>
<rscale>  0 0.14744355E+04</rscale>
<asrwt>0</asrwt>
<pdfrwt beam="1">  1        2 0.33333916E+00 0.14744355E+04</pdfrwt>
<pdfrwt beam="2">  1       -2 0.38590330E-01 0.14744355E+04</pdfrwt>
<totfact> 0.33142629E+01</totfact>
</mgrwt>
</event>
<event>
 6    1  0.1780144E-005  0.3747157E+04  0.7818608E-02  0.8057591E-01
          2   -1    0    0  501    0  0.00000000000E+00  0.00000000000E+00  0.15425416374E+04  0.15425416374E+04  0.00000000000E+00 0. -1.
         -2   -1    0    0    0  501 -0.00000000000E+00 -0.00000000000E+00 -0.22756573225E+04  0.22756573225E+04  0.00000000000E+00 0.  1.
         23    2    1    2    0    0  0.19203902365E+03  0.11252084365E+04 -0.18792199207E+04  0.22006304356E+04  0.91289602479E+02 0.  0.
         13    1    3    3    0    0  0.14755926034E+03  0.90223063052E+03 -0.14323299255E+04  0.16992241940E+04  0.00000000000E+00 0.  1.
        -13    1    3    3    0    0  0.44479763308E+02  0.22297780598E+03 -0.44688999525E+03  0.50140624164E+03  0.00000000000E+00 0. -1.
         22    1    1    2    0    0 -0.19203902365E+03 -0.11252084365E+04  0.11461042356E+04  0.16175685244E+04  0.00000000000E+00 0. -1.
<mgrwt>
<rscale>  0 0.37471569E+04</rscale>
<asrwt>0</asrwt>
<pdfrwt beam="1">  1        2 0.23731410E+00 0.37471569E+04</pdfrwt>
<pdfrwt beam="2">  1       -2 0.35010113E+00 0.37471569E+04</pdfrwt>
<totfact> 0.15021453E-01</totfact>
</mgrwt>
</event>
<event>
 6    1  0.1780144E-005  0.1224990E+04  0.7818608E-02  0.9091260E-01
          2   -1    0    0  501    0  0.00000000000E+00  0.00000000000E+00  0.12596463953E+04  0.12596463953E+04  0.00000000000E+00 0. -1.
         -2   -1    0    0    0  501 -0.00000000000E+00 -0.00000000000E+00 -0.29782155527E+03  0.29782155527E+03  0.00000000000E+00 0.  1.
         23    2    1    2    0    0 -0.43890231853E+03 -0.45689687434E+02 -0.50071128806E+02  0.45354030598E+03  0.92026618224E+02 0.  0.
         13    1    3    3    0    0 -0.28743769609E+03 -0.47227607836E+02  0.77820153849E+01  0.29139566887E+03  0.00000000000E+00 0.  1.
        -13    1    3    3    0    0 -0.15146462244E+03  0.15379204028E+01 -0.57853144191E+02  0.16214463711E+03  0.00000000000E+00 0. -1.
         22    1    1    2    0    0  0.43890231853E+03  0.45689687434E+02  0.10118959688E+04  0.11039276446E+04  0.00000000000E+00 0. -1.
<mgrwt>
<rscale>  0 0.12249895E+04</rscale>
<asrwt>0</asrwt>
<pdfrwt beam="1">  1        2 0.19379175E+00 0.12249895E+04</pdfrwt>
<pdfrwt beam="2">  1       -2 0.45818701E-01 0.12249895E+04</pdfrwt>
<totfact> 0.77646581E+01</totfact>
</mgrwt>
</event>
<event>
 6    1  0.1780144E-005  0.2087007E+04  0.7818608E-02  0.8566989E-01
         -2   -1    0    0    0  501 -0.00000000000E+00  0.00000000000E+00  0.46035732408E+03  0.46035732408E+03  0.00000000000E+00 0.  1.
          2   -1    0    0  501    0  0.00000000000E+00 -0.00000000000E+00 -0.23653348671E+04  0.23653348671E+04  0.00000000000E+00 0. -1.
         23    2    1    2    0    0  0.44265963249E+03  0.85081589829E+03 -0.40478633334E+03  0.10451279804E+04  0.92764631167E+02 0.  0.
         11    1    3    3    0    0  0.14939209801E+03  0.26079751310E+03 -0.17224580466E+03  0.34641298909E+03  0.00000000000E+00 0. -1.
        -11    1    3    3    0    0  0.29326753448E+03  0.59001838519E+03 -0.23254052868E+03  0.69871499134E+03  0.00000000000E+00 0.  1.
         22    1    1    2    0    0 -0.44265963249E+03 -0.85081589829E+03 -0.15001912097E+04  0.17805642107E+04  0.00000000000E+00 0. -1.
<mgrwt>
<rscale>  0 0.20870067E+04</rscale>
<asrwt>0</asrwt>
<pdfrwt beam="1">  1        2 0.36389766E+00 0.20870067E+04</pdfrwt>
<pdfrwt beam="2">  1       -2 0.70824206E-01 0.20870067E+04</pdfrwt>
<totfact> 0.69565341E+00</totfact>
</mgrwt>
</event>
<event>
 6    1  0.1780144E-005  0.1067452E+04  0.7818608E-02  0.9237509E-01
          1   -1    0    0  501    0  0.00000000000E+00  0.00000000000E+00  0.62451955257E+03  0.62451955257E+03  0.00000000000E+00 0. -1.
         -1   -1    0    0    0  501 -0.00000000000E+00 -0.00000000000E+00 -0.45613236739E+03  0.45613236739E+03  0.00000000000E+00 0.  1.
         23    2    1    2    0    0 -0.21409436549E+03 -0.27445399000E+03 -0.31959495384E+03  0.48124558201E+03  0.91076812178E+02 0.  0.
         11    1    3    3    0    0 -0.17880520897E+03 -0.24543072644E+03 -0.23090150812E+03  0.38147483624E+03  0.00000000000E+00 0.  1.
        -11    1    3    3    0    0 -0.35289156519E+02 -0.29023263563E+02 -0.88693445724E+02  0.99770745763E+02  0.00000000000E+00 0. -1.
         22    1    1    2    0    0  0.21409436549E+03  0.27445399000E+03  0.48798213903E+03  0.59940633795E+03  0.00000000000E+00 0. -1.
<mgrwt>
<rscale>  0 0.10674523E+04</rscale>
<asrwt>0</asrwt>
<pdfrwt beam="1">  1        1 0.96079931E-01 0.10674523E+04</pdfrwt>
<pdfrwt beam="2">  1       -1 0.70174210E-01 0.10674523E+04</pdfrwt>
<totfact> 0.66248685E+01</totfact>
</mgrwt>
</event>
<event>
 6    1  0.1780144E-005  0.2587742E+04  0.7818608E-02  0.8372377E-01
         -1   -1    0    0    0  501 -0.00000000000E+00  0.00000000000E+00  0.87724660204E+03  0.87724660204E+03  0.00000000000E+00 0.  1.
          1   -1    0    0  501    0  0.00000000000E+00 -0.00000000000E+00 -0.19083601524E+04  0.19083601524E+04  0.00000000000E+00 0. -1.
         23    2    1    2    0    0  0.88370191913E+03  0.90041338127E+03 -0.21499819700E+03  0.12830364203E+04  0.91021382365E+02 0.  0.
         13    1    3    3    0    0  0.40833687603E+03  0.40417412773E+03 -0.14314755828E+03  0.59210383658E+03  0.00000000000E+00 0. -1.
        -13    1    3    3    0    0  0.47536504310E+03  0.49623925354E+03 -0.71850638727E+02  0.69093258371E+03  0.00000000000E+00 0.  1.
         22    1    1    2    0    0 -0.88370191913E+03 -0.90041338127E+03 -0.81611535334E+03  0.15025703341E+04  0.00000000000E+00 0. -1.
<mgrwt>
<rscale>  0 0.25877422E+04</rscale>
<asrwt>0</asrwt>
<pdfrwt beam="1">  1        1 0.29359387E+00 0.25877422E+04</pdfrwt>
<pdfrwt beam="2">  1       -1 0.13496102E+00 0.25877422E+04</pdfrwt>
<totfact> 0.13975418E+00</totfact>
</mgrwt>
</event>
<event>
 6    1  0.1780144E-005  0.3099566E+03  0.7818608E-02  0.1080367E+00
         -2   -1    0    0    0  501 -0.00000000000E+00  0.00000000000E+00  0.26600567925E+03  0.26600567925E+03  0.00000000000E+00 0.  1.
          2   -1    0    0  501    0  0.00000000000E+00 -0.00000000000E+00 -0.90292357457E+02  0.90292357457E+02  0.00000000000E+00 0. -1.
         23    2    1    2    0    0 -0.17744490104E+02  0.13981672972E+03  0.78321574822E+02  0.18498330525E+03  0.90669561044E+02 0.  0.
         11    1    3    3    0    0 -0.39949130387E+02  0.11701084024E+03  0.30183405617E+02  0.12727335828E+03  0.00000000000E+00 0. -1.
        -11    1    3    3    0    0  0.22204640282E+02  0.22805889475E+02  0.48138169205E+02  0.57709946969E+02  0.00000000000E+00 0.  1.
         22    1    1    2    0    0  0.17744490104E+02 -0.13981672972E+03  0.97391746975E+02  0.17131473146E+03  0.00000000000E+00 0. -1.
<mgrwt>
<rscale>  0 0.30995664E+03</rscale>
<asrwt>0</asrwt>
<pdfrwt beam="1">  1        2 0.13891132E-01 0.30995664E+03</pdfrwt>
<pdfrwt beam="2">  1       -2 0.40923950E-01 0.30995664E+03</pdfrwt>
<totfact> 0.24396076E+03</totfact>
</mgrwt>
</event>
<event>
 6    1  0.1780144E-005  0.3382774E+04  0.7818608E-02  0.8142147E-01
         -2   -1    0    0    0  501 -0.00000000000E+00  0.00000000000E+00  0.26298652604E+04  0.26298652604E+04  0.00000000000E+00 0.  1.
          2   -1    0    0  501    0  0.00000000000E+00 -0.00000000000E+00 -0.10878082999E+04  0.10878082999E+04  0.00000000000E+00 0. -1.
         23    2    1    2    0    0 -0.89370176105E+03  0.11619717892E+04  0.16961802921E+04  0.22436873738E+04  0.90687218314E+02 0.  0.
         13    1    3    3    0    0 -0.56700841229E+03  0.66460644716E+03  0.10016940244E+04  0.13291317421E+04  0.00000000000E+00 0. -1.
        -13    1    3    3    0    0 -0.32669334875E+03  0.49736534205E+03  0.69448626762E+03  0.91455563172E+03  0.00000000000E+00 0.  1.
         22    1    1    2    0    0  0.89370176105E+03 -0.11619717892E+04 -0.15412333154E+03  0.14739861865E+04  0.00000000000E+00 0. -1.
<mgrwt>
<rscale>  0 0.33827736E+04</rscale>
<asrwt>0</asrwt>
<pdfrwt beam="1">  1        2 0.16735512E+00 0.33827736E+04</pdfrwt>
<pdfrwt beam="2">  1       -2 0.40459465E+00 0.33827736E+04</pdfrwt>
<totfact> 0.12724363E-01</totfact>
</mgrwt>
</event>
<event>
 6    1  0.1780144E-005  0.1541936E+04  0.7818608E-02  0.8857035E-01
         -1   -1    0    0    0  501 -0.00000000000E+00  0.00000000000E+00  0.63528410203E+03  0.63528410203E+03  0.00000000000E+00 0.  1.
          1   -1    0    0  501    0  0.00000000000E+00 -0.00000000000E+00 -0.93563159831E+03  0.93563159831E+03  0.00000000000E+00 0. -1.
         23    2    1    2    0    0  0.64314857537E+03  0.22235520428E+03  0.21254079271E+03  0.71877937095E+03  0.91587491883E+02 0.  0.
         13    1    3    3    0    0  0.11393871036E+03  0.47181816335E+02  0.33331591280E+01  0.12336637897E+03  0.00000000000E+00 0.  1.
        -13    1    3    3    0    0  0.52920986501E+03  0.17517338795E+03  0.20920763359E+03  0.59541299198E+03  0.00000000000E+00 0. -1.
         22    1    1    2    0    0 -0.64314857537E+03 -0.22235520428E+03 -0.51288828900E+03  0.85213632938E+03  0.00000000000E+00 0. -1.
<mgrwt>
<rscale>  0 0.15419363E+04</rscale>
<asrwt>0</asrwt>
<pdfrwt beam="1">  1        1 0.14394332E+00 0.15419363E+04</pdfrwt>
<pdfrwt beam="2">  1       -1 0.97736016E-01 0.15419363E+04</pdfrwt>
<totfact> 0.16483629E+01</totfact>
</mgrwt>
</event>
<event>
 6    1  0.1780144E-005  0.2574573E+04  0.7818608E-02  0.8376890E-01
          1   -1    0    0  501    0  0.00000000000E+00  0.00000000000E+00  0.93970831611E+03  0.93970831611E+03  0.00000000000E+00 0. -1.
         -1   -1    0    0    0  501 -0.00000000000E+00 -0.00000000000E+00 -0.17634269017E+04  0.17634269017E+04  0.00000000000E+00 0.  1.
         23    2    1    2    0    0  0.55237542192E+03  0.11485634307E+04 -0.23542658938E+03  0.12994244093E+04  0.93603180842E+02 0.  0.
         11    1    3    3    0    0  0.32185800069E+03  0.66488445822E+03 -0.89405668543E+02  0.74408150693E+03  0.00000000000E+00 0.  1.
        -11    1    3    3    0    0  0.23051742123E+03  0.48367897250E+03 -0.14602092083E+03  0.55534290240E+03  0.00000000000E+00 0. -1.
         22    1    1    2    0    0 -0.55237542192E+03 -0.11485634307E+04 -0.58829199626E+03  0.14037108085E+04  0.00000000000E+00 0. -1.
<mgrwt>
<rscale>  0 0.25745733E+04</rscale>
<asrwt>0</asrwt>
<pdfrwt beam="1">  1        1 0.14457051E+00 0.25745733E+04</pdfrwt>
<pdfrwt beam="2">  1       -1 0.27129644E+00 0.25745733E+04</pdfrwt>
<totfact> 0.75564836E-01</totfact>
</mgrwt>
</event>
<event>
 6    1  0.2137509E-005  0.2890112E+04  0.7818608E-02  0.8275825E-01
          1   -1    0    0  501    0  0.00000000000E+00  0.00000000000E+00  0.21081174985E+04  0.21081174985E+04  0.00000000000E+00 0. -1.
         -1   -1    0    0    0  501 -0.00000000000E+00 -0.00000000000E+00 -0.99054580921E+03  0.99054580921E+03  0.00000000000E+00 0.  1.
         23    2    1    2    0    0  0.10307819507E+04 -0.86080789213E+03 -0.89940012048E+01  0.13457651612E+04  0.86610162254E+02 0.  0.
         13    1    3    3    0    0  0.45615837139E+03 -0.37678008128E+03 -0.46846029909E+02  0.59349662169E+03  0.00000000000E+00 0. -1.
        -13    1    3    3    0    0  0.57462357927E+03 -0.48402781085E+03  0.37852028704E+02  0.75226853955E+03  0.00000000000E+00 0.  1.
         22    1    1    2    0    0 -0.10307819507E+04  0.86080789213E+03  0.11265656905E+04  0.17528981465E+04  0.00000000000E+00 0. -1.
<mgrwt>
<rscale>  0 0.28901121E+04</rscale>
<asrwt>0</asrwt>
<pdfrwt beam="1">  1        1 0.32432577E+00 0.28901121E+04</pdfrwt>
<pdfrwt beam="2">  1       -1 0.15239166E+00 0.28901121E+04</pdfrwt>
<totfact> 0.72247400E-01</totfact>
</mgrwt>
</event>
<event>
 6    1  0.1780144E-005  0.1373641E+04  0.7818608E-02  0.8973123E-01
         -2   -1    0    0    0  501 -0.00000000000E+00  0.00000000000E+00  0.34455311029E+03  0.34455311029E+03  0.00000000000E+00 0.  1.
          2   -1    0    0  501    0  0.00000000000E+00 -0.00000000000E+00 -0.13690839416E+04  0.13690839416E+04  0.00000000000E+00 0. -1.
         23    2    1    2    0    0  0.74310310212E+02  0.68764160926E+02 -0.13581709401E+04  0.13649735261E+04  0.90960939239E+02 0.  0.
         13    1    3    3    0    0  0.51108995459E+02  0.75758632646E+02 -0.65051303551E+03  0.65690083666E+03  0.00000000000E+00 0.  1.
        -13    1    3    3    0    0  0.23201314753E+02 -0.69944717199E+01 -0.70765790459E+03  0.70807268947E+03  0.00000000000E+00 0. -1.
         22    1    1    2    0    0 -0.74310310212E+02 -0.68764160926E+02  0.33364010877E+03  0.34866352578E+03  0.00000000000E+00 0.  1.
<mgrwt>
<rscale>  0 0.13736406E+04</rscale>
<asrwt>0</asrwt>
<pdfrwt beam="1">  1        2 0.21062830E+00 0.13736406E+04</pdfrwt>
<pdfrwt beam="2">  1       -2 0.53008171E-01 0.13736406E+04</pdfrwt>
<totfact> 0.49326188E+01</totfact>
</mgrwt>
</event>
<event>
 6    1  0.1780144E-005  0.3969622E+04  0.7818608E-02  0.8010703E-01
         -1   -1    0    0    0  501 -0.00000000000E+00  0.00000000000E+00  0.21928655440E+04  0.21928655440E+04  0.00000000000E+00 0.  1.
          1   -1    0    0  501    0  0.00000000000E+00 -0.00000000000E+00 -0.17964960749E+04  0.17964960749E+04  0.00000000000E+00 0. -1.
         23    2    1    2    0    0 -0.58550921266E+03 -0.14725375256E+04  0.13975707619E+04  0.21149038757E+04  0.91796332795E+02 0.  0.
         11    1    3    3    0    0 -0.16858312427E+03 -0.43507776803E+03  0.35695466350E+03  0.58747728962E+03  0.00000000000E+00 0. -1.
        -11    1    3    3    0    0 -0.41692608839E+03 -0.10374597576E+04  0.10406160984E+04  0.15274265861E+04  0.00000000000E+00 0.  1.
         22    1    1    2    0    0  0.58550921266E+03  0.14725375256E+04 -0.10012012928E+04  0.18744577432E+04  0.00000000000E+00 0.  1.
<mgrwt>
<rscale>  0 0.39696218E+04</rscale>
<asrwt>0</asrwt>
<pdfrwt beam="1">  1        1 0.27638401E+00 0.39696218E+04</pdfrwt>
<pdfrwt beam="2">  1       -1 0.33736393E+00 0.39696218E+04</pdfrwt>
<totfact> 0.60510710E-02</totfact>
</mgrwt>
</event>
<event>
 6    1  0.1780144E-005  0.2589683E+04  0.7818608E-02  0.8371714E-01
         -2   -1    0    0    0  501 -0.00000000000E+00  0.00000000000E+00  0.15196317778E+04  0.15196317778E+04  0.00000000000E+00 0.  1.
          2   -1    0    0  501    0  0.00000000000E+00 -0.00000000000E+00 -0.11033035224E+04  0.11033035224E+04  0.00000000000E+00 0. -1.
         23    2    1    2    0    0 -0.55832441767E+03  0.34626064649E+03 -0.91981691492E+03  0.11340073279E+04  0.91032258040E+02 0.  0.
         11    1    3    3    0    0 -0.37842533453E+03  0.18656953445E+03 -0.61210474325E+03  0.74342863929E+03  0.00000000000E+00 0.  1.
        -11    1    3    3    0    0 -0.17989908314E+03  0.15969111204E+03 -0.30771217167E+03  0.39057868858E+03  0.00000000000E+00 0. -1.
         22    1    1    2    0    0  0.55832441767E+03 -0.34626064649E+03  0.13361451704E+04  0.14889279724E+04  0.00000000000E+00 0.  1.
<mgrwt>
<rscale>  0 0.25896835E+04</rscale>
<asrwt>0</asrwt>
<pdfrwt beam="1">  1        2 0.16973900E+00 0.25896835E+04</pdfrwt>
<pdfrwt beam="2">  1       -2 0.23378950E+00 0.25896835E+04</pdfrwt>
<totfact> 0.15540948E+00</totfact>
</mgrwt>
</event>
<event>
 6    1  0.1780144E-005  0.1925051E+04  0.7818608E-02  0.8642487E-01
          1   -1    0    0  501    0  0.00000000000E+00  0.00000000000E+00  0.34595211540E+04  0.34595211540E+04  0.00000000000E+00 0. -1.
         -1   -1    0    0    0  501 -0.00000000000E+00 -0.00000000000E+00 -0.26779863387E+03  0.26779863387E+03  0.00000000000E+00 0.  1.
         23    2    1    2    0    0 -0.29696270625E+03 -0.63173284274E+03  0.32176535732E+03  0.77369026645E+03  0.88263524329E+02 0.  0.
         13    1    3    3    0    0 -0.12383568571E+03 -0.31745800945E+03  0.11536954925E+03  0.35975685917E+03  0.00000000000E+00 0.  1.
        -13    1    3    3    0    0 -0.17312702054E+03 -0.31427483329E+03  0.20639580807E+03  0.41393340728E+03  0.00000000000E+00 0. -1.
         22    1    1    2    0    0  0.29696270625E+03  0.63173284274E+03  0.28699571628E+04  0.29536295214E+04  0.00000000000E+00 0. -1.
<mgrwt>
<rscale>  0 0.19250507E+04</rscale>
<asrwt>0</asrwt>
<pdfrwt beam="1">  1        1 0.53223399E+00 0.19250507E+04</pdfrwt>
<pdfrwt beam="2">  1       -1 0.41199792E-01 0.19250507E+04</pdfrwt>
<totfact> 0.14553185E+00</totfact>
</mgrwt>
</event>
<event>
 6    1  0.1780144E-005  0.2828800E+04  0.7818608E-02  0.8294382E-01
         -2   -1    0    0    0  501 -0.00000000000E+00  0.00000000000E+00  0.24898802029E+04  0.24898802029E+04  0.00000000000E+00 0. -1.
          2   -1    0    0  501    0  0.00000000000E+00 -0.00000000000E+00 -0.80346339291E+03  0.80346339291E+03  0.00000000000E+00 0.  1.
         23    2    1    2    0    0  0.20430179007E+03 -0.91978357987E+03 -0.38214025892E+03  0.10203127112E+04  0.85239638026E+02 0.  0.
         11    1    3    3    0    0  0.15887616340E+03 -0.65074728798E+03 -0.23207843678E+03  0.70892458621E+03  0.00000000000E+00 0.  1.
        -11    1    3    3    0    0  0.45425626664E+02 -0.26903629188E+03 -0.15006182214E+03  0.31138812497E+03  0.00000000000E+00 0. -1.
         22    1    1    2    0    0 -0.20430179007E+03  0.91978357987E+03  0.20685570689E+04  0.22730308847E+04  0.00000000000E+00 0. -1.
<mgrwt>
<rscale>  0 0.28288002E+04</rscale>
<asrwt>0</asrwt>
<pdfrwt beam="1">  1        2 0.12360975E+00 0.28288002E+04</pdfrwt>
<pdfrwt beam="2">  1       -2 0.38305849E+00 0.28288002E+04</pdfrwt>
<totfact> 0.28434920E-01</totfact>
</mgrwt>
</event>
<event>
 6    1  0.1780144E-005  0.9361603E+03  0.7818608E-02  0.9381475E-01
          1   -1    0    0  501    0  0.00000000000E+00  0.00000000000E+00  0.10784145358E+04  0.10784145358E+04  0.00000000000E+00 0. -1.
         -1   -1    0    0    0  501 -0.00000000000E+00 -0.00000000000E+00 -0.20316772548E+03  0.20316772548E+03  0.00000000000E+00 0.  1.
         23    2    1    2    0    0  0.19565820548E+03  0.40403359824E+03  0.28306395907E+03  0.53847674308E+03  0.91141187331E+02 0.  0.
         11    1    3    3    0    0  0.97734487353E+02  0.23329879118E+03  0.10789795841E+03  0.27499513707E+03  0.00000000000E+00 0. -1.
        -11    1    3    3    0    0  0.97923718125E+02  0.17073480707E+03  0.17516600066E+03  0.26348160601E+03  0.00000000000E+00 0.  1.
         22    1    1    2    0    0 -0.19565820548E+03 -0.40403359824E+03  0.59218285126E+03  0.74310551822E+03  0.00000000000E+00 0. -1.
<mgrwt>
<rscale>  0 0.93616030E+03</rscale>
<asrwt>0</asrwt>
<pdfrwt beam="1">  1        1 0.16590993E+00 0.93616030E+03</pdfrwt>
<pdfrwt beam="2">  1       -1 0.31256574E-01 0.93616030E+03</pdfrwt>
<totfact> 0.12554138E+02</totfact>
</mgrwt>
</event>
<event>
 6    1  0.1780144E-005  0.3904960E+04  0.7818608E-02  0.8023998E-01
         -1   -1    0    0    0  501 -0.00000000000E+00  0.00000000000E+00  0.17024681136E+04  0.17024681136E+04  0.00000000000E+00 0.  1.
          1   -1    0    0  501    0  0.00000000000E+00 -0.00000000000E+00 -0.22392069478E+04  0.22392069478E+04  0.00000000000E+00 0. -1.
         23    2    1    2    0    0 -0.64697136633E+03  0.10854897610E+04 -0.17695637446E+04  0.21762523840E+04  0.88648871337E+02 0.  0.
         11    1    3    3    0    0 -0.38656526215E+02  0.96993293937E+02 -0.17898076569E+03  0.20721037758E+03  0.00000000000E+00 0. -1.
        -11    1    3    3    0    0 -0.60831484011E+03  0.98849646703E+03 -0.15905829789E+04  0.19690420064E+04  0.00000000000E+00 0.  1.
         22    1    1    2    0    0  0.64697136633E+03 -0.10854897610E+04  0.12328249104E+04  0.17654226774E+04  0.00000000000E+00 0.  1.
<mgrwt>
<rscale>  0 0.39049601E+04</rscale>
<asrwt>0</asrwt>
<pdfrwt beam="1">  1        1 0.34449337E+00 0.39049601E+04</pdfrwt>
<pdfrwt beam="2">  1       -1 0.26191817E+00 0.39049601E+04</pdfrwt>
<totfact> 0.94201378E-02</totfact>
</mgrwt>
</event>
<event>
 6    1  0.1780144E-005  0.1741780E+04  0.7818608E-02  0.8737888E-01
          2   -1    0    0  501    0  0.00000000000E+00  0.00000000000E+00  0.12579124730E+04  0.12579124730E+04  0.00000000000E+00 0.  1.
         -2   -1    0    0    0  501 -0.00000000000E+00 -0.00000000000E+00 -0.60294304648E+03  0.60294304648E+03  0.00000000000E+00 0. -1.
         23    2    1    2    0    0 -0.68193376972E+03 -0.53524385160E+03  0.27381981333E+03  0.91386308307E+03  0.92998911141E+02 0.  0.
         11    1    3    3    0    0 -0.35872745939E+02 -0.55654298533E+01  0.14693633988E+02  0.39162875155E+02  0.00000000000E+00 0. -1.
        -11    1    3    3    0    0 -0.64606102378E+03 -0.52967842174E+03  0.25912617934E+03  0.87470020792E+03  0.00000000000E+00 0.  1.
         22    1    1    2    0    0  0.68193376972E+03  0.53524385160E+03  0.38114961317E+03  0.94699243639E+03  0.00000000000E+00 0.  1.
<mgrwt>
<rscale>  0 0.17417802E+04</rscale>
<asrwt>0</asrwt>
<pdfrwt beam="1">  1        2 0.19352500E+00 0.17417802E+04</pdfrwt>
<pdfrwt beam="2">  1       -2 0.92760469E-01 0.17417802E+04</pdfrwt>
<totfact> 0.16355348E+01</totfact>
</mgrwt>
</event>
<event>
 6    1  0.1780144E-005  0.3989754E+04  0.7818608E-02  0.8006617E-01
         -2   -1    0    0    0  501 -0.00000000000E+00  0.00000000000E+00  0.16658686697E+04  0.16658686697E+04  0.00000000000E+00 0.  1.
          2   -1    0    0  501    0  0.00000000000E+00 -0.00000000000E+00 -0.23888645583E+04  0.23888645583E+04  0.00000000000E+00 0. -1.
         23    2    1    2    0    0 -0.66105097942E+03  0.39519726676E+03 -0.22306542195E+04  0.23617468372E+04  0.94130755664E+02 0.  0.
         11    1    3    3    0    0 -0.50684603683E+03  0.31049913311E+03 -0.18315479488E+04  0.19255831599E+04  0.00000000000E+00 0.  1.
        -11    1    3    3    0    0 -0.15420494259E+03  0.84698133651E+02 -0.39910627066E+03  0.43616367736E+03  0.00000000000E+00 0. -1.
         22    1    1    2    0    0  0.66105097942E+03 -0.39519726676E+03  0.15076583308E+04  0.16929863908E+04  0.00000000000E+00 0.  1.
<mgrwt>
<rscale>  0 0.39897542E+04</rscale>
<asrwt>0</asrwt>
<pdfrwt beam="1">  1        2 0.36751762E+00 0.39897542E+04</pdfrwt>
<pdfrwt beam="2">  1       -2 0.25628749E+00 0.39897542E+04</pdfrwt>
<totfact> 0.18727876E-01</totfact>
</mgrwt>
</event>
<event>
 6    1  0.1780144E-005  0.1008771E+04  0.7818608E-02  0.9298977E-01
          2   -1    0    0  501    0  0.00000000000E+00  0.00000000000E+00  0.82266961003E+03  0.82266961003E+03  0.00000000000E+00 0. -1.
         -2   -1    0    0    0  501 -0.00000000000E+00 -0.00000000000E+00 -0.30924301712E+03  0.30924301712E+03  0.00000000000E+00 0.  1.
         23    2    1    2    0    0 -0.13053443477E+03 -0.47440167486E+03  0.15507534921E+03  0.52321582115E+03  0.87236711318E+02 0.  0.
         13    1    3    3    0    0 -0.84731554043E+02 -0.36001706244E+03  0.15226253808E+03  0.39996950134E+03  0.00000000000E+00 0. -1.
        -13    1    3    3    0    0 -0.45802880730E+02 -0.11438461241E+03  0.28128111302E+01  0.12324631981E+03  0.00000000000E+00 0.  1.
         22    1    1    2    0    0  0.13053443477E+03  0.47440167486E+03  0.35835124371E+03  0.60869680600E+03  0.00000000000E+00 0. -1.
<mgrwt>
<rscale>  0 0.10087712E+04</rscale>
<asrwt>0</asrwt>
<pdfrwt beam="1">  1        2 0.12656455E+00 0.10087712E+04</pdfrwt>
<pdfrwt beam="2">  1       -2 0.47575849E-01 0.10087712E+04</pdfrwt>
<totfact> 0.13859914E+02</totfact>
</mgrwt>
</event>
<event>
 6    1  0.1780144E-005  0.4879061E+04  0.7818608E-02  0.7847439E-01
         -2   -1    0    0    0  501 -0.00000000000E+00  0.00000000000E+00  0.36108633554E+04  0.36108633554E+04  0.00000000000E+00 0.  1.
          2   -1    0    0  501    0  0.00000000000E+00 -0.00000000000E+00 -0.16481678393E+04  0.16481678393E+04  0.00000000000E+00 0. -1.
         23    2    1    2    0    0 -0.26457844477E+03  0.28237045744E+03  0.35769532615E+04  0.35990423703E+04  0.93683080617E+02 0.  0.
         13    1    3    3    0    0 -0.11027951281E+03  0.82919488351E+02  0.94214211829E+03  0.95219167375E+03  0.00000000000E+00 0.  1.
        -13    1    3    3    0    0 -0.15429893197E+03  0.19945096909E+03  0.26348111432E+04  0.26468506965E+04  0.00000000000E+00 0. -1.
         22    1    1    2    0    0  0.26457844477E+03 -0.28237045744E+03 -0.16142577454E+04  0.16599888244E+04  0.00000000000E+00 0. -1.
<mgrwt>
<rscale>  0 0.48790609E+04</rscale>
<asrwt>0</asrwt>
<pdfrwt beam="1">  1        2 0.25356428E+00 0.48790609E+04</pdfrwt>
<pdfrwt beam="2">  1       -2 0.55551744E+00 0.48790609E+04</pdfrwt>
<totfact> 0.62228959E-03</totfact>
</mgrwt>
</event>
<event>
 6    1  0.1780144E-005  0.4359663E+04  0.7818608E-02  0.7935677E-01
         -1   -1    0    0    0  501 -0.00000000000E+00  0.00000000000E+00  0.12978338073E+04  0.12978338073E+04  0.00000000000E+00 0.  1.
          1   -1    0    0  501    0  0.00000000000E+00 -0.00000000000E+00 -0.36612285470E+04  0.36612285470E+04  0.00000000000E+00 0. -1.
         23    2    1    2    0    0  0.15423417428E+04 -0.26878066783E+03 -0.29059761802E+04  0.33021206781E+04  0.90787187739E+02 0.  0.
         13    1    3    3    0    0  0.62192714865E+03 -0.70214724048E+02 -0.12105786780E+04  0.13628001399E+04  0.00000000000E+00 0.  1.
        -13    1    3    3    0    0  0.92041459418E+03 -0.19856594378E+03 -0.16953975022E+04  0.19393205382E+04  0.00000000000E+00 0. -1.
         22    1    1    2    0    0 -0.15423417428E+04  0.26878066783E+03  0.54258144048E+03  0.16569416763E+04  0.00000000000E+00 0.  1.
<mgrwt>
<rscale>  0 0.43596634E+04</rscale>
<asrwt>0</asrwt>
<pdfrwt beam="1">  1        1 0.56326594E+00 0.43596634E+04</pdfrwt>
<pdfrwt beam="2">  1       -1 0.19966674E+00 0.43596634E+04</pdfrwt>
<totfact> 0.21300963E-02</totfact>
</mgrwt>
</event>
<event>
 6    1  0.1780144E-005  0.3002692E+04  0.7818608E-02  0.8242963E-01
         -2   -1    0    0    0  501 -0.00000000000E+00  0.00000000000E+00  0.18319160632E+04  0.18319160632E+04  0.00000000000E+00 0.  1.
          2   -1    0    0  501    0  0.00000000000E+00 -0.00000000000E+00 -0.12304274659E+04  0.12304274659E+04  0.00000000000E+00 0. -1.
         23    2    1    2    0    0 -0.12210448196E+04  0.75026450763E+03 -0.15106941246E+03  0.14436431736E+04  0.86234345546E+02 0.  0.
         11    1    3    3    0    0 -0.32471973192E+03  0.21094568496E+03 -0.36750528647E+01  0.38723957999E+03  0.00000000000E+00 0. -1.
        -11    1    3    3    0    0 -0.89632508766E+03  0.53931882267E+03 -0.14739435959E+03  0.10564035936E+04  0.00000000000E+00 0.  1.
         22    1    1    2    0    0  0.12210448196E+04 -0.75026450763E+03  0.75255800975E+03  0.16187003555E+04  0.00000000000E+00 0.  1.
<mgrwt>
<rscale>  0 0.30026920E+04</rscale>
<asrwt>0</asrwt>
<pdfrwt beam="1">  1        2 0.18929653E+00 0.30026920E+04</pdfrwt>
<pdfrwt beam="2">  1       -2 0.28183324E+00 0.30026920E+04</pdfrwt>
<totfact> 0.63805694E-01</totfact>
</mgrwt>
</event>
<event>
 6    1  0.1780144E-005  0.2460808E+04  0.7818608E-02  0.8417082E-01
          2   -1    0    0  501    0  0.00000000000E+00  0.00000000000E+00  0.22781895435E+04  0.22781895435E+04  0.00000000000E+00 0. -1.
         -2   -1    0    0    0  501 -0.00000000000E+00 -0.00000000000E+00 -0.66451640544E+03  0.66451640544E+03  0.00000000000E+00 0.  1.
         23    2    1    2    0    0  0.86011163714E+03 -0.32674030694E+03 -0.16584547142E+03  0.93939924802E+03  0.91733147046E+02 0.  0.
         13    1    3    3    0    0  0.45921283884E+03 -0.16268209942E+03 -0.42586582498E+02  0.48903528895E+03  0.00000000000E+00 0.  1.
        -13    1    3    3    0    0  0.40089879830E+03 -0.16405820752E+03 -0.12325888892E+03  0.45036395907E+03  0.00000000000E+00 0. -1.
         22    1    1    2    0    0 -0.86011163714E+03  0.32674030694E+03  0.17795186095E+04  0.20033067010E+04  0.00000000000E+00 0. -1.
<mgrwt>
<rscale>  0 0.24608083E+04</rscale>
<asrwt>0</asrwt>
<pdfrwt beam="1">  1        2 0.35049069E+00 0.24608083E+04</pdfrwt>
<pdfrwt beam="2">  1       -2 0.10223329E+00 0.24608083E+04</pdfrwt>
<totfact> 0.32702421E+00</totfact>
</mgrwt>
</event>
<event>
 6    1  0.1780144E-005  0.2535661E+04  0.7818608E-02  0.8390390E-01
          1   -1    0    0  501    0  0.00000000000E+00  0.00000000000E+00  0.21364081030E+04  0.21364081030E+04  0.00000000000E+00 0. -1.
         -1   -1    0    0    0  501 -0.00000000000E+00 -0.00000000000E+00 -0.75238171558E+03  0.75238171558E+03  0.00000000000E+00 0.  1.
         23    2    1    2    0    0  0.48081872873E+02  0.62795087103E+03  0.19444177819E+04  0.20457757748E+04  0.88339386136E+02 0.  0.
         11    1    3    3    0    0  0.36955102258E+02  0.10414677840E+03  0.39548494365E+03  0.41063435278E+03  0.00000000000E+00 0.  1.
        -11    1    3    3    0    0  0.11126770614E+02  0.52380409263E+03  0.15489328383E+04  0.16351414220E+04  0.00000000000E+00 0. -1.
         22    1    1    2    0    0 -0.48081872873E+02 -0.62795087103E+03 -0.56039139452E+03  0.84301404376E+03  0.00000000000E+00 0.  1.
<mgrwt>
<rscale>  0 0.25356612E+04</rscale>
<asrwt>0</asrwt>
<pdfrwt beam="1">  1        1 0.32867817E+00 0.25356612E+04</pdfrwt>
<pdfrwt beam="2">  1       -1 0.11575103E+00 0.25356612E+04</pdfrwt>
<totfact> 0.14402842E+00</totfact>
</mgrwt>
</event>
<event>
 6    1  0.2266455E-005  0.1971180E+04  0.7818608E-02  0.8620215E-01
          2   -1    0    0  501    0  0.00000000000E+00  0.00000000000E+00  0.84605641257E+03  0.84605641257E+03  0.00000000000E+00 0. -1.
         -2   -1    0    0    0  501 -0.00000000000E+00 -0.00000000000E+00 -0.11481359053E+04  0.11481359053E+04  0.00000000000E+00 0.  1.
         23    2    1    2    0    0 -0.82930857782E+03  0.89663128394E+02  0.37572962844E+03  0.91938191665E+03  0.91094243180E+02 0.  0.
         13    1    3    3    0    0 -0.50306899187E+03  0.51742730243E+02  0.17863066841E+03  0.53634376701E+03  0.00000000000E+00 0.  1.
        -13    1    3    3    0    0 -0.32623958595E+03  0.37920398151E+02  0.19709896003E+03  0.38303814965E+03  0.00000000000E+00 0. -1.
         22    1    1    2    0    0  0.82930857782E+03 -0.89663128394E+02 -0.67780912121E+03  0.10748104012E+04  0.00000000000E+00 0. -1.
<mgrwt>
<rscale>  0 0.19711801E+04</rscale>
<asrwt>0</asrwt>
<pdfrwt beam="1">  1        2 0.13016253E+00 0.19711801E+04</pdfrwt>
<pdfrwt beam="2">  1       -2 0.17663629E+00 0.19711801E+04</pdfrwt>
<totfact> 0.56893652E+00</totfact>
</mgrwt>
</event>
<event>
 6    1  0.1780144E-005  0.1612759E+04  0.7818608E-02  0.8812748E-01
          2   -1    0    0  501    0  0.00000000000E+00  0.00000000000E+00  0.12558788886E+04  0.12558788886E+04  0.00000000000E+00 0. -1.
         -2   -1    0    0    0  501 -0.00000000000E+00 -0.00000000000E+00 -0.51776335044E+03  0.51776335044E+03  0.00000000000E+00 0.  1.
         23    2    1    2    0    0 -0.63840296315E+03 -0.37744812962E+02  0.90567439060E+03  0.11125378727E+04  0.92257260447E+02 0.  0.
         11    1    3    3    0    0 -0.26772893533E+03 -0.61363394992E+02  0.37882269857E+03  0.46792188025E+03  0.00000000000E+00 0.  1.
        -11    1    3    3    0    0 -0.37067402782E+03  0.23618582031E+02  0.52685169202E+03  0.64461599244E+03  0.00000000000E+00 0. -1.
         22    1    1    2    0    0  0.63840296315E+03  0.37744812962E+02 -0.16755885239E+03  0.66110436641E+03  0.00000000000E+00 0.  1.
<mgrwt>
<rscale>  0 0.16127592E+04</rscale>
<asrwt>0</asrwt>
<pdfrwt beam="1">  1        2 0.19321214E+00 0.16127592E+04</pdfrwt>
<pdfrwt beam="2">  1       -2 0.79655900E-01 0.16127592E+04</pdfrwt>
<totfact> 0.23465101E+01</totfact>
</mgrwt>
</event>
<event>
 6    1  0.1780144E-005  0.1281065E+04  0.7818608E-02  0.9044717E-01
         -2   -1    0    0    0  501 -0.00000000000E+00  0.00000000000E+00  0.21314967085E+03  0.21314967085E+03  0.00000000000E+00 0.  1.
          2   -1    0    0  501    0  0.00000000000E+00 -0.00000000000E+00 -0.19248536052E+04  0.19248536052E+04  0.00000000000E+00 0. -1.
         23    2    1    2    0    0  0.34370274407E+03 -0.44130297468E+03 -0.13697968650E+04  0.14824269374E+04  0.91467380472E+02 0.  0.
         11    1    3    3    0    0  0.20521408268E+03 -0.28700656524E+03 -0.74941234540E+03  0.82831422278E+03  0.00000000000E+00 0. -1.
        -11    1    3    3    0    0  0.13848866139E+03 -0.15429640944E+03 -0.62038451957E+03  0.65411271462E+03  0.00000000000E+00 0.  1.
         22    1    1    2    0    0 -0.34370274407E+03  0.44130297468E+03 -0.34190706941E+03  0.65557633869E+03  0.00000000000E+00 0.  1.
<mgrwt>
<rscale>  0 0.12810650E+04</rscale>
<asrwt>0</asrwt>
<pdfrwt beam="1">  1        2 0.29613132E+00 0.12810650E+04</pdfrwt>
<pdfrwt beam="2">  1       -2 0.32792257E-01 0.12810650E+04</pdfrwt>
<totfact> 0.62653592E+01</totfact>
</mgrwt>
</event>
<event>
 6    1  0.1780144E-005  0.2484020E+04  0.7818608E-02  0.8408701E-01
         -1   -1    0    0    0  501 -0.00000000000E+00  0.00000000000E+00  0.55299226092E+03  0.55299226092E+03  0.00000000000E+00 0.  1.
          1   -1    0    0  501    0  0.00000000000E+00 -0.00000000000E+00 -0.27895296747E+04  0.27895296747E+04  0.00000000000E+00 0. -1.
         23    2    1    2    0    0  0.11403082901E+04  0.21700638115E+03 -0.53036685718E+03  0.12789297438E+04  0.83531554215E+02 0.  0.
         11    1    3    3    0    0  0.54903174487E+02  0.29100337143E+02 -0.31858404334E+02  0.69829407253E+02  0.00000000000E+00 0. -1.
        -11    1    3    3    0    0  0.10854051156E+04  0.18790604400E+03 -0.49850845284E+03  0.12091003366E+04  0.00000000000E+00 0.  1.
         22    1    1    2    0    0 -0.11403082901E+04 -0.21700638115E+03 -0.17061705566E+04  0.20635921918E+04  0.00000000000E+00 0. -1.
<mgrwt>
<rscale>  0 0.24840196E+04</rscale>
<asrwt>0</asrwt>
<pdfrwt beam="1">  1        1 0.42915841E+00 0.24840196E+04</pdfrwt>
<pdfrwt beam="2">  1       -1 0.85075733E-01 0.24840196E+04</pdfrwt>
<totfact> 0.10304816E+00</totfact>
</mgrwt>
</event>
<event>
 6    1  0.1780144E-005  0.2194805E+04  0.7818608E-02  0.8520593E-01
          2   -1    0    0  501    0  0.00000000000E+00  0.00000000000E+00  0.10952725194E+04  0.10952725194E+04  0.00000000000E+00 0. -1.
         -2   -1    0    0    0  501 -0.00000000000E+00 -0.00000000000E+00 -0.10995369488E+04  0.10995369488E+04  0.00000000000E+00 0.  1.
         23    2    1    2    0    0  0.94246699699E+03 -0.31024703487E+03  0.46228936501E+03  0.10983744696E+04  0.90651835768E+02 0.  0.
         11    1    3    3    0    0  0.82714749219E+03 -0.25540245502E+03  0.37335732846E+03  0.94276141339E+03  0.00000000000E+00 0. -1.
        -11    1    3    3    0    0  0.11531950480E+03 -0.54844579846E+02  0.88932036555E+02  0.15561305618E+03  0.00000000000E+00 0.  1.
         22    1    1    2    0    0 -0.94246699699E+03  0.31024703487E+03 -0.46655379447E+03  0.10964349986E+04  0.00000000000E+00 0.  1.
<mgrwt>
<rscale>  0 0.21948053E+04</rscale>
<asrwt>0</asrwt>
<pdfrwt beam="1">  1        2 0.16850346E+00 0.21948053E+04</pdfrwt>
<pdfrwt beam="2">  1       -2 0.16915953E+00 0.21948053E+04</pdfrwt>
<totfact> 0.43338355E+00</totfact>
</mgrwt>
</event>
<event>
 6    1  0.1780144E-005  0.1349347E+04  0.7818608E-02  0.8991323E-01
          1   -1    0    0  501    0  0.00000000000E+00  0.00000000000E+00  0.15822292641E+04  0.15822292641E+04  0.00000000000E+00 0. -1.
         -1   -1    0    0    0  501 -0.00000000000E+00 -0.00000000000E+00 -0.28768535102E+03  0.28768535102E+03  0.00000000000E+00 0.  1.
         23    2    1    2    0    0 -0.11811880878E+03  0.64927192664E+03  0.47746276761E+03  0.81961575955E+03  0.91067069387E+02 0.  0.
         13    1    3    3    0    0 -0.17933705418E+01  0.29973270359E+02  0.17440932964E+01  0.30077482862E+02  0.00000000000E+00 0. -1.
        -13    1    3    3    0    0 -0.11632543824E+03  0.61929865628E+03  0.47571867431E+03  0.78953827668E+03  0.00000000000E+00 0.  1.
         22    1    1    2    0    0  0.11811880878E+03 -0.64927192664E+03  0.81708114544E+03  0.10502988555E+04  0.00000000000E+00 0. -1.
<mgrwt>
<rscale>  0 0.13493468E+04</rscale>
<asrwt>0</asrwt>
<pdfrwt beam="1">  1        1 0.24341988E+00 0.13493468E+04</pdfrwt>
<pdfrwt beam="2">  1       -1 0.44259286E-01 0.13493468E+04</pdfrwt>
<totfact> 0.28380050E+01</totfact>
</mgrwt>
</event>
<event>
 6    1  0.1780144E-005  0.6120544E+03  0.7818608E-02  0.9880708E-01
          1   -1    0    0  501    0  0.00000000000E+00  0.00000000000E+00  0.98013669841E+02  0.98013669841E+02  0.00000000000E+00 0.  1.
         -1   -1    0    0    0  501 -0.00000000000E+00 -0.00000000000E+00 -0.95550602473E+03  0.95550602473E+03  0.00000000000E+00 0. -1.
         23    2    1    2    0    0 -0.22147467886E+03  0.21778401391E+02 -0.78377562144E+03  0.81908529237E+03  0.84090185313E+02 0.  0.
         13    1    3    3    0    0 -0.36896012190E+02  0.98758515259E+00 -0.27495466476E+03  0.27742090533E+03  0.00000000000E+00 0. -1.
        -13    1    3    3    0    0 -0.18457866667E+03  0.20790816239E+02 -0.50882095668E+03  0.54166438704E+03  0.00000000000E+00 0.  1.
         22    1    1    2    0    0  0.22147467886E+03 -0.21778401391E+02 -0.73716733447E+02  0.23443440220E+03  0.00000000000E+00 0.  1.
<mgrwt>
<rscale>  0 0.61205442E+03</rscale>
<asrwt>0</asrwt>
<pdfrwt beam="1">  1        1 0.15079025E-01 0.61205442E+03</pdfrwt>
<pdfrwt beam="2">  1       -1 0.14700093E+00 0.61205442E+03</pdfrwt>
<totfact> 0.14430568E+02</totfact>
</mgrwt>
</event>
<event>
 6    1  0.1780144E-005  0.1041759E+04  0.7818608E-02  0.9263893E-01
          2   -1    0    0  501    0  0.00000000000E+00  0.00000000000E+00  0.86724570688E+03  0.86724570688E+03  0.00000000000E+00 0. -1.
         -2   -1    0    0    0  501 -0.00000000000E+00 -0.00000000000E+00 -0.31284753736E+03  0.31284753736E+03  0.00000000000E+00 0.  1.
         23    2    1    2    0    0  0.46403776987E+03 -0.15437503942E+03  0.89486086413E+02  0.50532961920E+03  0.90485135345E+02 0.  0.
         13    1    3    3    0    0  0.41367784366E+03 -0.13008177729E+03  0.49232542517E+02  0.43643380983E+03  0.00000000000E+00 0. -1.
        -13    1    3    3    0    0  0.50359926206E+02 -0.24293262136E+02  0.40253543896E+02  0.68895809371E+02  0.00000000000E+00 0.  1.
         22    1    1    2    0    0 -0.46403776987E+03  0.15437503942E+03  0.46491208311E+03  0.67476362505E+03  0.00000000000E+00 0.  1.
<mgrwt>
<rscale>  0 0.10417594E+04</rscale>
<asrwt>0</asrwt>
<pdfrwt beam="1">  1        2 0.13342242E+00 0.10417594E+04</pdfrwt>
<pdfrwt beam="2">  1       -2 0.48130391E-01 0.10417594E+04</pdfrwt>
<totfact> 0.12575507E+02</totfact>
</mgrwt>
</event>
<event>
 6    1  0.1780144E-005  0.4868945E+04  0.7818608E-02  0.7849048E-01
         -2   -1    0    0    0  501 -0.00000000000E+00  0.00000000000E+00  0.21038891830E+04  0.21038891830E+04  0.00000000000E+00 0.  1.
          2   -1    0    0  501    0  0.00000000000E+00 -0.00000000000E+00 -0.28170005337E+04  0.28170005337E+04  0.00000000000E+00 0. -1.
         23    2    1    2    0    0  0.10907701041E+04  0.17025263647E+03  0.18353629328E+04  0.21435732865E+04  0.87085930120E+02 0.  0.
         13    1    3    3    0    0  0.59588584468E+03  0.13018708377E+03  0.10560246051E+04  0.12195148967E+04  0.00000000000E+00 0.  1.
        -13    1    3    3    0    0  0.49488425945E+03  0.40065552703E+02  0.77933832772E+03  0.92405838983E+03  0.00000000000E+00 0. -1.
         22    1    1    2    0    0 -0.10907701041E+04 -0.17025263647E+03 -0.25484742835E+04  0.27773164303E+04  0.00000000000E+00 0. -1.
<mgrwt>
<rscale>  0 0.48689452E+04</rscale>
<asrwt>0</asrwt>
<pdfrwt beam="1">  1        2 0.43338470E+00 0.48689452E+04</pdfrwt>
<pdfrwt beam="2">  1       -2 0.32367526E+00 0.48689452E+04</pdfrwt>
<totfact> 0.37738237E-02</totfact>
</mgrwt>
</event>
<event>
 6    1  0.1780144E-005  0.1861796E+04  0.7818608E-02  0.8674110E-01
          1   -1    0    0  501    0  0.00000000000E+00  0.00000000000E+00  0.14925045508E+04  0.14925045508E+04  0.00000000000E+00 0. -1.
         -1   -1    0    0    0  501 -0.00000000000E+00 -0.00000000000E+00 -0.58061563796E+03  0.58061563796E+03  0.00000000000E+00 0.  1.
         23    2    1    2    0    0  0.29079523578E+03 -0.40454743242E+03 -0.41586686704E+03  0.65496790314E+03  0.88414980708E+02 0.  0.
         13    1    3    3    0    0  0.12840317825E+03 -0.14779637595E+03 -0.21492039926E+03  0.29072654324E+03  0.00000000000E+00 0.  1.
        -13    1    3    3    0    0  0.16239205752E+03 -0.25675105646E+03 -0.20094646778E+03  0.36424135989E+03  0.00000000000E+00 0. -1.
         22    1    1    2    0    0 -0.29079523578E+03  0.40454743242E+03  0.13277557799E+04  0.14181522856E+04  0.00000000000E+00 0. -1.
<mgrwt>
<rscale>  0 0.18617964E+04</rscale>
<asrwt>0</asrwt>
<pdfrwt beam="1">  1        1 0.22961608E+00 0.18617964E+04</pdfrwt>
<pdfrwt beam="2">  1       -1 0.89325483E-01 0.18617964E+04</pdfrwt>
<totfact> 0.76320246E+00</totfact>
</mgrwt>
</event>
<event>
 6    1  0.1780144E-005  0.8685326E+03  0.7818608E-02  0.9465795E-01
         -2   -1    0    0    0  501 -0.00000000000E+00  0.00000000000E+00  0.17466815333E+03  0.17466815333E+03  0.00000000000E+00 0.  1.
          2   -1    0    0  501    0  0.00000000000E+00 -0.00000000000E+00 -0.10796886100E+04  0.10796886100E+04  0.00000000000E+00 0. -1.
         23    2    1    2    0    0 -0.23444501982E+03  0.32869612816E+03 -0.66859255811E+03  0.78648523906E+03  0.92398108789E+02 0.  0.
         11    1    3    3    0    0 -0.20944700979E+03  0.23256078858E+03 -0.47396440488E+03  0.56797431930E+03  0.00000000000E+00 0. -1.
        -11    1    3    3    0    0 -0.24998010032E+02  0.96135339582E+02 -0.19462815323E+03  0.21851091976E+03  0.00000000000E+00 0.  1.
         22    1    1    2    0    0  0.23444501982E+03 -0.32869612816E+03 -0.23642789853E+03  0.46787152424E+03  0.00000000000E+00 0.  1.
<mgrwt>
<rscale>  0 0.86853259E+03</rscale>
<asrwt>0</asrwt>
<pdfrwt beam="1">  1        2 0.16610594E+00 0.86853259E+03</pdfrwt>
<pdfrwt beam="2">  1       -2 0.26872024E-01 0.86853259E+03</pdfrwt>
<totfact> 0.28258671E+02</totfact>
</mgrwt>
</event>
<event>
 6    1  0.1780144E-005  0.7516510E+03  0.7818608E-02  0.9632764E-01
          1   -1    0    0  501    0  0.00000000000E+00  0.00000000000E+00  0.13127932702E+03  0.13127932702E+03  0.00000000000E+00 0. -1.
         -1   -1    0    0    0  501 -0.00000000000E+00 -0.00000000000E+00 -0.10759104793E+04  0.10759104793E+04  0.00000000000E+00 0.  1.
         23    2    1    2    0    0 -0.28245496105E+03 -0.17939933011E+03 -0.22359573733E+03  0.41229547732E+03  0.89596775586E+02 0.  0.
         11    1    3    3    0    0 -0.15527921638E+03 -0.12465579432E+03 -0.17637982633E+03  0.26600854353E+03  0.00000000000E+00 0.  1.
        -11    1    3    3    0    0 -0.12717574468E+03 -0.54743535789E+02 -0.47215911008E+02  0.14628693379E+03  0.00000000000E+00 0. -1.
         22    1    1    2    0    0  0.28245496105E+03  0.17939933011E+03 -0.72103541497E+03  0.79489432902E+03  0.00000000000E+00 0.  1.
<mgrwt>
<rscale>  0 0.75165099E+03</rscale>
<asrwt>0</asrwt>
<pdfrwt beam="1">  1        1 0.20196820E-01 0.75165099E+03</pdfrwt>
<pdfrwt beam="2">  1       -1 0.16552469E+00 0.75165099E+03</pdfrwt>
<totfact> 0.70039443E+01</totfact>
</mgrwt>
</event>
<event>
 6    1  0.1780144E-005  0.3368438E+04  0.7818608E-02  0.8145696E-01
          2   -1    0    0  501    0  0.00000000000E+00  0.00000000000E+00  0.17383921168E+04  0.17383921168E+04  0.00000000000E+00 0. -1.
         -2   -1    0    0    0  501 -0.00000000000E+00 -0.00000000000E+00 -0.16317345024E+04  0.16317345024E+04  0.00000000000E+00 0.  1.
         23    2    1    2    0    0 -0.13540056828E+04  0.70312958121E+03  0.76418050178E+03  0.17087841064E+04  0.90822277052E+02 0.  0.
         13    1    3    3    0    0 -0.18545954744E+03  0.71486171462E+02  0.76265072121E+02  0.21288935547E+03  0.00000000000E+00 0. -1.
        -13    1    3    3    0    0 -0.11685461354E+04  0.63164340975E+03  0.68791542966E+03  0.14958947510E+04  0.00000000000E+00 0.  1.
         22    1    1    2    0    0  0.13540056828E+04 -0.70312958121E+03 -0.65752288737E+03  0.16613425127E+04  0.00000000000E+00 0.  1.
<mgrwt>
<rscale>  0 0.33684384E+04</rscale>
<asrwt>0</asrwt>
<pdfrwt beam="1">  1        2 0.26744494E+00 0.33684384E+04</pdfrwt>
<pdfrwt beam="2">  1       -2 0.25103608E+00 0.33684384E+04</pdfrwt>
<totfact> 0.49107284E-01</totfact>
</mgrwt>
</event>
<event>
 6    1  0.1780144E-005  0.4018225E+04  0.7818608E-02  0.8000880E-01
          2   -1    0    0  501    0  0.00000000000E+00  0.00000000000E+00  0.18740622402E+04  0.18740622402E+04  0.00000000000E+00 0.  1.
         -2   -1    0    0    0  501 -0.00000000000E+00 -0.00000000000E+00 -0.21538946928E+04  0.21538946928E+04  0.00000000000E+00 0. -1.
         23    2    1    2    0    0  0.77531998244E+01  0.19000156283E+04 -0.79134938186E+03  0.20602757929E+04  0.91558718294E+02 0.  0.
         13    1    3    3    0    0 -0.16296705669E+02  0.11002050129E+04 -0.41457262764E+03  0.11758346468E+04  0.00000000000E+00 0.  1.
        -13    1    3    3    0    0  0.24049905493E+02  0.79981061544E+03 -0.37677675422E+03  0.88444114617E+03  0.00000000000E+00 0. -1.
         22    1    1    2    0    0 -0.77531998244E+01 -0.19000156283E+04  0.51151692923E+03  0.19676811400E+04  0.00000000000E+00 0.  1.
<mgrwt>
<rscale>  0 0.40182248E+04</rscale>
<asrwt>0</asrwt>
<pdfrwt beam="1">  1        2 0.28831727E+00 0.40182248E+04</pdfrwt>
<pdfrwt beam="2">  1       -2 0.33136841E+00 0.40182248E+04</pdfrwt>
<totfact> 0.12584731E-01</totfact>
</mgrwt>
</event>
<event>
 6    1  0.1780144E-005  0.1867222E+04  0.7818608E-02  0.8671347E-01
          2   -1    0    0  501    0  0.00000000000E+00  0.00000000000E+00  0.13334183753E+04  0.13334183753E+04  0.00000000000E+00 0. -1.
         -2   -1    0    0    0  501 -0.00000000000E+00 -0.00000000000E+00 -0.65368011723E+03  0.65368011723E+03  0.00000000000E+00 0.  1.
         23    2    1    2    0    0  0.89217901734E+03 -0.25663772695E+03  0.42802653654E+03  0.10252226624E+04  0.77643219905E+02 0.  0.
         11    1    3    3    0    0  0.41314631849E+03 -0.81011622014E+02  0.17912240791E+03  0.45753426145E+03  0.00000000000E+00 0. -1.
        -11    1    3    3    0    0  0.47903269884E+03 -0.17562610493E+03  0.24890412863E+03  0.56768840092E+03  0.00000000000E+00 0.  1.
         22    1    1    2    0    0 -0.89217901734E+03  0.25663772695E+03  0.25171172152E+03  0.96187583015E+03  0.00000000000E+00 0.  1.
<mgrwt>
<rscale>  0 0.18672216E+04</rscale>
<asrwt>0</asrwt>
<pdfrwt beam="1">  1        2 0.20514129E+00 0.18672216E+04</pdfrwt>
<pdfrwt beam="2">  1       -2 0.10056617E+00 0.18672216E+04</pdfrwt>
<totfact> 0.12099309E+01</totfact>
</mgrwt>
</event>
<event>
 6    1  0.1780144E-005  0.1917716E+04  0.7818608E-02  0.8646088E-01
          2   -1    0    0  501    0  0.00000000000E+00  0.00000000000E+00  0.16375440943E+04  0.16375440943E+04  0.00000000000E+00 0. -1.
         -2   -1    0    0    0  501 -0.00000000000E+00 -0.00000000000E+00 -0.56145563062E+03  0.56145563062E+03  0.00000000000E+00 0.  1.
         23    2    1    2    0    0  0.55834337101E+03 -0.12971122530E+03  0.14175871644E+04  0.15317713648E+04  0.90541832976E+02 0.  0.
         11    1    3    3    0    0  0.35945683960E+03 -0.64124816758E+02  0.10008297318E+04  0.10653550412E+04  0.00000000000E+00 0. -1.
        -11    1    3    3    0    0  0.19888653141E+03 -0.65586408541E+02  0.41675743258E+03  0.46641632366E+03  0.00000000000E+00 0.  1.
         22    1    1    2    0    0 -0.55834337101E+03  0.12971122530E+03 -0.34149870072E+03  0.66722836009E+03  0.00000000000E+00 0.  1.
<mgrwt>
<rscale>  0 0.19177157E+04</rscale>
<asrwt>0</asrwt>
<pdfrwt beam="1">  1        2 0.25192986E+00 0.19177157E+04</pdfrwt>
<pdfrwt beam="2">  1       -2 0.86377790E-01 0.19177157E+04</pdfrwt>
<totfact> 0.11541887E+01</totfact>
</mgrwt>
</event>
<event>
 6    1  0.1780144E-005  0.2564230E+04  0.7818608E-02  0.8380454E-01
         -2   -1    0    0    0  501 -0.00000000000E+00  0.00000000000E+00  0.70788401244E+03  0.70788401244E+03  0.00000000000E+00 0.  1.
          2   -1    0    0  501    0  0.00000000000E+00 -0.00000000000E+00 -0.23221593176E+04  0.23221593176E+04  0.00000000000E+00 0. -1.
         23    2    1    2    0    0  0.15135641527E+03  0.10582633185E+04 -0.16408678922E+04  0.19606803508E+04  0.94815518604E+02 0.  0.
         13    1    3    3    0    0  0.44517518709E+02  0.32178316936E+03 -0.58079663842E+03  0.66547047475E+03  0.00000000000E+00 0.  1.
        -13    1    3    3    0    0  0.10683889656E+03  0.73648014918E+03 -0.10600712538E+04  0.12952098760E+04  0.00000000000E+00 0. -1.
         22    1    1    2    0    0 -0.15135641527E+03 -0.10582633185E+04  0.26592586986E+02  0.10693629793E+04  0.00000000000E+00 0.  1.
<mgrwt>
<rscale>  0 0.25642305E+04</rscale>
<asrwt>0</asrwt>
<pdfrwt beam="1">  1        2 0.35725528E+00 0.25642305E+04</pdfrwt>
<pdfrwt beam="2">  1       -2 0.10890523E+00 0.25642305E+04</pdfrwt>
<totfact> 0.26295636E+00</totfact>
</mgrwt>
</event>
<event>
 6    1  0.1780144E-005  0.1612632E+04  0.7818608E-02  0.8812825E-01
         -1   -1    0    0    0  501 -0.00000000000E+00  0.00000000000E+00  0.32187211830E+03  0.32187211830E+03  0.00000000000E+00 0. -1.
          1   -1    0    0  501    0  0.00000000000E+00 -0.00000000000E+00 -0.20198881614E+04  0.20198881614E+04  0.00000000000E+00 0.  1.
         23    2    1    2    0    0  0.67429085721E+03 -0.27408495069E+01 -0.21650488947E+03  0.71401614418E+03  0.90934122384E+02 0.  0.
         11    1    3    3    0    0  0.57823880761E+03 -0.27739680949E+02 -0.20486475701E+03  0.61408401476E+03  0.00000000000E+00 0. -1.
        -11    1    3    3    0    0  0.96052049605E+02  0.24998831442E+02 -0.11640132459E+02  0.99932129420E+02  0.00000000000E+00 0.  1.
         22    1    1    2    0    0 -0.67429085721E+03  0.27408495069E+01 -0.14815111536E+04  0.16277441355E+04  0.00000000000E+00 0.  1.
<mgrwt>
<rscale>  0 0.16126322E+04</rscale>
<asrwt>0</asrwt>
<pdfrwt beam="1">  1        1 0.31075202E+00 0.16126322E+04</pdfrwt>
<pdfrwt beam="2">  1       -1 0.49518788E-01 0.16126322E+04</pdfrwt>
<totfact> 0.11326152E+01</totfact>
</mgrwt>
</event>
<event>
 6    1  0.1780144E-005  0.2132571E+04  0.7818608E-02  0.8547030E-01
         -1   -1    0    0    0  501 -0.00000000000E+00  0.00000000000E+00  0.14564629890E+04  0.14564629890E+04  0.00000000000E+00 0.  1.
          1   -1    0    0  501    0  0.00000000000E+00 -0.00000000000E+00 -0.78063405208E+03  0.78063405208E+03  0.00000000000E+00 0. -1.
         23    2    1    2    0    0 -0.44298023992E+02  0.97074993103E+03 -0.11708441902E+03  0.98289237932E+03  0.89726944714E+02 0.  0.
         13    1    3    3    0    0  0.11438845550E+02  0.66494531120E+03 -0.77985227152E+02  0.66960048516E+03  0.00000000000E+00 0.  1.
        -13    1    3    3    0    0 -0.55736869542E+02  0.30580461983E+03 -0.39099191868E+02  0.31329189415E+03  0.00000000000E+00 0. -1.
         22    1    1    2    0    0  0.44298023992E+02 -0.97074993103E+03  0.79291335593E+03  0.12542046617E+04  0.00000000000E+00 0.  1.
<mgrwt>
<rscale>  0 0.21325708E+04</rscale>
<asrwt>0</asrwt>
<pdfrwt beam="1">  1        1 0.12009755E+00 0.21325708E+04</pdfrwt>
<pdfrwt beam="2">  1       -1 0.22407123E+00 0.21325708E+04</pdfrwt>
<totfact> 0.21794074E+00</totfact>
</mgrwt>
</event>
<event>
 6    1  0.1780144E-005  0.2792381E+04  0.7818608E-02  0.8305638E-01
         -2   -1    0    0    0  501 -0.00000000000E+00  0.00000000000E+00  0.72005219358E+03  0.72005219358E+03  0.00000000000E+00 0.  1.
          2   -1    0    0  501    0  0.00000000000E+00 -0.00000000000E+00 -0.27072308530E+04  0.27072308530E+04  0.00000000000E+00 0. -1.
         23    2    1    2    0    0  0.15971996523E+03 -0.68495783139E+03  0.48337905651E+03  0.85856096629E+03  0.93775916310E+02 0.  0.
         11    1    3    3    0    0  0.11545728787E+03 -0.34792632579E+03  0.21100715517E+03  0.42297415173E+03  0.00000000000E+00 0.  1.
        -11    1    3    3    0    0  0.44262677363E+02 -0.33703150561E+03  0.27237190134E+03  0.43558681456E+03  0.00000000000E+00 0. -1.
         22    1    1    2    0    0 -0.15971996523E+03  0.68495783139E+03 -0.24705577160E+04  0.25687220803E+04  0.00000000000E+00 0. -1.
<mgrwt>
<rscale>  0 0.27923807E+04</rscale>
<asrwt>0</asrwt>
<pdfrwt beam="1">  1        2 0.41649705E+00 0.27923807E+04</pdfrwt>
<pdfrwt beam="2">  1       -2 0.11077726E+00 0.27923807E+04</pdfrwt>
<totfact> 0.14781388E+00</totfact>
</mgrwt>
</event>
<event>
 6    1  0.1780144E-005  0.3051414E+04  0.7818608E-02  0.8229200E-01
          2   -1    0    0  501    0  0.00000000000E+00  0.00000000000E+00  0.90294578588E+03  0.90294578588E+03  0.00000000000E+00 0. -1.
         -2   -1    0    0    0  501 -0.00000000000E+00 -0.00000000000E+00 -0.25779866602E+04  0.25779866602E+04  0.00000000000E+00 0.  1.
         23    2    1    2    0    0  0.46084084495E+03  0.90147228284E+03 -0.21382337175E+04  0.23675707928E+04  0.91222075104E+02 0.  0.
         13    1    3    3    0    0  0.26455818427E+03  0.60703427673E+03 -0.14283322173E+04  0.15743616386E+04  0.00000000000E+00 0. -1.
        -13    1    3    3    0    0  0.19628266068E+03  0.29443800611E+03 -0.70990150019E+03  0.79320915419E+03  0.00000000000E+00 0.  1.
         22    1    1    2    0    0 -0.46084084495E+03 -0.90147228284E+03  0.46319284318E+03  0.11133616533E+04  0.00000000000E+00 0. -1.
<mgrwt>
<rscale>  0 0.30514142E+04</rscale>
<asrwt>0</asrwt>
<pdfrwt beam="1">  1        2 0.13891474E+00 0.30514142E+04</pdfrwt>
<pdfrwt beam="2">  1       -2 0.39661333E+00 0.30514142E+04</pdfrwt>
<totfact> 0.19418045E-01</totfact>
</mgrwt>
</event>
<event>
 6    1  0.1780144E-005  0.1114582E+04  0.7818608E-02  0.9191095E-01
         -1   -1    0    0    0  501 -0.00000000000E+00  0.00000000000E+00  0.78883652844E+03  0.78883652844E+03  0.00000000000E+00 0.  1.
          1   -1    0    0  501    0  0.00000000000E+00 -0.00000000000E+00 -0.39371064916E+03  0.39371064916E+03  0.00000000000E+00 0. -1.
         23    2    1    2    0    0  0.31658178840E+03 -0.10955163900E+03  0.66624420600E+03  0.75158228641E+03  0.93642943476E+02 0.  0.
         11    1    3    3    0    0  0.25212555135E+03 -0.12275586146E+03  0.56626824352E+03  0.63189874093E+03  0.00000000000E+00 0. -1.
        -11    1    3    3    0    0  0.64456237055E+02  0.13204222459E+02  0.99975962477E+02  0.11968354548E+03  0.00000000000E+00 0.  1.
         22    1    1    2    0    0 -0.31658178840E+03  0.10955163900E+03 -0.27111832672E+03  0.43096489119E+03  0.00000000000E+00 0. -1.
<mgrwt>
<rscale>  0 0.11145821E+04</rscale>
<asrwt>0</asrwt>
<pdfrwt beam="1">  1        1 0.60570869E-01 0.11145821E+04</pdfrwt>
<pdfrwt beam="2">  1       -1 0.12135947E+00 0.11145821E+04</pdfrwt>
<totfact> 0.36748089E+01</totfact>
</mgrwt>
</event>
<event>
 6    1  0.1780144E-005  0.4900422E+03  0.7818608E-02  0.1016411E+00
         -2   -1    0    0    0  501 -0.00000000000E+00  0.00000000000E+00  0.28185086163E+03  0.28185086163E+03  0.00000000000E+00 0.  1.
          2   -1    0    0  501    0  0.00000000000E+00 -0.00000000000E+00 -0.21300389237E+03  0.21300389237E+03  0.00000000000E+00 0. -1.
         23    2    1    2    0    0 -0.22906355899E+03 -0.28396629040E+02 -0.10341027713E+02  0.25083176029E+03  0.97637864161E+02 0.  0.
         11    1    3    3    0    0 -0.15454420805E+03 -0.57118275949E+02 -0.32533244778E+02  0.16794291204E+03  0.00000000000E+00 0. -1.
        -11    1    3    3    0    0 -0.74519350940E+02  0.28721646909E+02  0.22192217065E+02  0.82888848248E+02  0.00000000000E+00 0.  1.
         22    1    1    2    0    0  0.22906355899E+03  0.28396629040E+02  0.79187996976E+02  0.24402299372E+03  0.00000000000E+00 0.  1.
<mgrwt>
<rscale>  0 0.49004216E+03</rscale>
<asrwt>0</asrwt>
<pdfrwt beam="1">  1        2 0.32769829E-01 0.49004216E+03</pdfrwt>
<pdfrwt beam="2">  1       -2 0.43361671E-01 0.49004216E+03</pdfrwt>
<totfact> 0.81531813E+02</totfact>
</mgrwt>
</event>
<event>
 6    1  0.1780144E-005  0.4460491E+04  0.7818608E-02  0.7917590E-01
         -2   -1    0    0    0  501 -0.00000000000E+00  0.00000000000E+00  0.17289330796E+04  0.17289330796E+04  0.00000000000E+00 0.  1.
          2   -1    0    0  501    0  0.00000000000E+00 -0.00000000000E+00 -0.28769154779E+04  0.28769154779E+04  0.00000000000E+00 0. -1.
         23    2    1    2    0    0  0.72534281716E+03  0.44950705298E+03 -0.27008634329E+04  0.28339517488E+04  0.91871859369E+02 0.  0.
         11    1    3    3    0    0  0.48241734312E+03  0.34575803351E+03 -0.18200337794E+04  0.19143662316E+04  0.00000000000E+00 0. -1.
        -11    1    3    3    0    0  0.24292547405E+03  0.10374901947E+03 -0.88082965353E+03  0.91958551724E+03  0.00000000000E+00 0.  1.
         22    1    1    2    0    0 -0.72534281716E+03 -0.44950705298E+03  0.15528810346E+04  0.17718968087E+04  0.00000000000E+00 0.  1.
<mgrwt>
<rscale>  0 0.44604907E+04</rscale>
<asrwt>0</asrwt>
<pdfrwt beam="1">  1        2 0.44260238E+00 0.44604907E+04</pdfrwt>
<pdfrwt beam="2">  1       -2 0.26598970E+00 0.44604907E+04</pdfrwt>
<totfact> 0.80887896E-02</totfact>
</mgrwt>
</event>
<event>
 6    1  0.1780144E-005  0.3851597E+04  0.7818608E-02  0.8035172E-01
          2   -1    0    0  501    0  0.00000000000E+00  0.00000000000E+00  0.16637192688E+04  0.16637192688E+04  0.00000000000E+00 0. -1.
         -2   -1    0    0    0  501 -0.00000000000E+00 -0.00000000000E+00 -0.22291618904E+04  0.22291618904E+04  0.00000000000E+00 0.  1.
         23    2    1    2    0    0  0.18590018019E+03 -0.16236323578E+04  0.74479449522E+03  0.17982541728E+04  0.90875297680E+02 0.  0.
         13    1    3    3    0    0  0.15292886539E+03 -0.13451671410E+04  0.65391345775E+03  0.15034841819E+04  0.00000000000E+00 0. -1.
        -13    1    3    3    0    0  0.32971314805E+02 -0.27846521677E+03  0.90881037469E+02  0.29476999088E+03  0.00000000000E+00 0.  1.
         22    1    1    2    0    0 -0.18590018019E+03  0.16236323578E+04 -0.13102371168E+04  0.20946269864E+04  0.00000000000E+00 0.  1.
<mgrwt>
<rscale>  0 0.38515969E+04</rscale>
<asrwt>0</asrwt>
<pdfrwt beam="1">  1        2 0.25595681E+00 0.38515969E+04</pdfrwt>
<pdfrwt beam="2">  1       -2 0.34294798E+00 0.38515969E+04</pdfrwt>
<totfact> 0.14131739E-01</totfact>
</mgrwt>
</event>
<event>
 6    1  0.1780144E-005  0.2087839E+04  0.7818608E-02  0.8566619E-01
         -1   -1    0    0    0  501 -0.00000000000E+00  0.00000000000E+00  0.97188470567E+03  0.97188470567E+03  0.00000000000E+00 0.  1.
          1   -1    0    0  501    0  0.00000000000E+00 -0.00000000000E+00 -0.11212934216E+04  0.11212934216E+04  0.00000000000E+00 0. -1.
         23    2    1    2    0    0 -0.45225988363E+02  0.36209814632E+03  0.90364348556E+03  0.97869196914E+03  0.90033126554E+02 0.  0.
         13    1    3    3    0    0 -0.63198361680E+01  0.76646532636E+02  0.30187681250E+03  0.31151924695E+03  0.00000000000E+00 0. -1.
        -13    1    3    3    0    0 -0.38906152195E+02  0.28545161368E+03  0.60176667306E+03  0.66717272219E+03  0.00000000000E+00 0.  1.
         22    1    1    2    0    0  0.45225988363E+02 -0.36209814632E+03 -0.10530522015E+04  0.11144861581E+04  0.00000000000E+00 0. -1.
<mgrwt>
<rscale>  0 0.20878390E+04</rscale>
<asrwt>0</asrwt>
<pdfrwt beam="1">  1        1 0.17250668E+00 0.20878390E+04</pdfrwt>
<pdfrwt beam="2">  1       -1 0.14952072E+00 0.20878390E+04</pdfrwt>
<totfact> 0.39596322E+00</totfact>
</mgrwt>
</event>
<event>
 6    1  0.1780144E-005  0.4334141E+04  0.7818608E-02  0.7940335E-01
          2   -1    0    0  501    0  0.00000000000E+00  0.00000000000E+00  0.24015752943E+04  0.24015752943E+04  0.00000000000E+00 0. -1.
         -2   -1    0    0    0  501 -0.00000000000E+00 -0.00000000000E+00 -0.19554638522E+04  0.19554638522E+04  0.00000000000E+00 0.  1.
         23    2    1    2    0    0  0.17063020273E+04 -0.44245700843E+03  0.14886499382E+04  0.23090837445E+04  0.92489394892E+02 0.  0.
         13    1    3    3    0    0  0.80608076067E+03 -0.16292285500E+03  0.67829747368E+03  0.10660194708E+04  0.00000000000E+00 0. -1.
        -13    1    3    3    0    0  0.90022126660E+03 -0.27953415343E+03  0.81035246450E+03  0.12430642737E+04  0.00000000000E+00 0.  1.
         22    1    1    2    0    0 -0.17063020273E+04  0.44245700843E+03 -0.10425384961E+04  0.20479554020E+04  0.00000000000E+00 0.  1.
<mgrwt>
<rscale>  0 0.43341406E+04</rscale>
<asrwt>0</asrwt>
<pdfrwt beam="1">  1        2 0.36947312E+00 0.43341406E+04</pdfrwt>
<pdfrwt beam="2">  1       -2 0.30084059E+00 0.43341406E+04</pdfrwt>
<totfact> 0.95690706E-02</totfact>
</mgrwt>
</event>
<event>
 6    1  0.1780144E-005  0.2992297E+04  0.7818608E-02  0.8245934E-01
          1   -1    0    0  501    0  0.00000000000E+00  0.00000000000E+00  0.12917419586E+04  0.12917419586E+04  0.00000000000E+00 0. -1.
         -1   -1    0    0    0  501 -0.00000000000E+00 -0.00000000000E+00 -0.17329009274E+04  0.17329009274E+04  0.00000000000E+00 0.  1.
         23    2    1    2    0    0  0.58990666056E+03 -0.30127741861E+03  0.11336773044E+04  0.13161736182E+04  0.91273280036E+02 0.  0.
         11    1    3    3    0    0  0.16042360350E+03 -0.10787700233E+03  0.26510879071E+03  0.32810951084E+03  0.00000000000E+00 0. -1.
        -11    1    3    3    0    0  0.42948305706E+03 -0.19340041628E+03  0.86856851373E+03  0.98806410741E+03  0.00000000000E+00 0.  1.
         22    1    1    2    0    0 -0.58990666056E+03  0.30127741861E+03 -0.15748362733E+04  0.17084692677E+04  0.00000000000E+00 0.  1.
<mgrwt>
<rscale>  0 0.29922973E+04</rscale>
<asrwt>0</asrwt>
<pdfrwt beam="1">  1        1 0.19872953E+00 0.29922973E+04</pdfrwt>
<pdfrwt beam="2">  1       -1 0.26660014E+00 0.29922973E+04</pdfrwt>
<totfact> 0.42449462E-01</totfact>
</mgrwt>
</event>
<event>
 6    1  0.1780144E-005  0.7083057E+03  0.7818608E-02  0.9703133E-01
          1   -1    0    0  501    0  0.00000000000E+00  0.00000000000E+00  0.88053346657E+03  0.88053346657E+03  0.00000000000E+00 0. -1.
         -1   -1    0    0    0  501 -0.00000000000E+00 -0.00000000000E+00 -0.14244118680E+03  0.14244118680E+03  0.00000000000E+00 0.  1.
         23    2    1    2    0    0 -0.18874532379E+03 -0.49594844100E+02 -0.42413678168E+02  0.21844125059E+03  0.88505446442E+02 0.  0.
         13    1    3    3    0    0 -0.67049063196E+02  0.32392493416E+01 -0.52743350367E+02  0.85369377529E+02  0.00000000000E+00 0.  1.
        -13    1    3    3    0    0 -0.12169626060E+03 -0.52834093442E+02  0.10329672199E+02  0.13307187307E+03  0.00000000000E+00 0. -1.
         22    1    1    2    0    0  0.18874532379E+03  0.49594844100E+02  0.78050595793E+03  0.80453340278E+03  0.00000000000E+00 0. -1.
<mgrwt>
<rscale>  0 0.70830567E+03</rscale>
<asrwt>0</asrwt>
<pdfrwt beam="1">  1        1 0.13546668E+00 0.70830567E+03</pdfrwt>
<pdfrwt beam="2">  1       -1 0.21914029E-01 0.70830567E+03</pdfrwt>
<totfact> 0.33487268E+02</totfact>
</mgrwt>
</event>
<event>
 6    1  0.1780144E-005  0.2030329E+04  0.7818608E-02  0.8592571E-01
          1   -1    0    0  501    0  0.00000000000E+00  0.00000000000E+00  0.10566238962E+04  0.10566238962E+04  0.00000000000E+00 0. -1.
         -1   -1    0    0    0  501 -0.00000000000E+00 -0.00000000000E+00 -0.97533209537E+03  0.97533209537E+03  0.00000000000E+00 0.  1.
         23    2    1    2    0    0  0.68890084181E+03 -0.64289737871E+03 -0.33181007815E+03  0.10030951789E+04  0.90557167484E+02 0.  0.
         13    1    3    3    0    0  0.49428175062E+03 -0.48935604952E+03 -0.20786473044E+03  0.72594182849E+03  0.00000000000E+00 0. -1.
        -13    1    3    3    0    0  0.19461909119E+03 -0.15354132919E+03 -0.12394534770E+03  0.27715335041E+03  0.00000000000E+00 0.  1.
         22    1    1    2    0    0 -0.68890084181E+03  0.64289737871E+03  0.41310187893E+03  0.10288608126E+04  0.00000000000E+00 0. -1.
<mgrwt>
<rscale>  0 0.20303292E+04</rscale>
<asrwt>0</asrwt>
<pdfrwt beam="1">  1        1 0.16255752E+00 0.20303292E+04</pdfrwt>
<pdfrwt beam="2">  1       -1 0.15005109E+00 0.20303292E+04</pdfrwt>
<totfact> 0.44118623E+00</totfact>
</mgrwt>
</event>
<event>
 6    1  0.1780144E-005  0.1863627E+04  0.7818608E-02  0.8673177E-01
         -2   -1    0    0    0  501 -0.00000000000E+00  0.00000000000E+00  0.56221060706E+03  0.56221060706E+03  0.00000000000E+00 0.  1.
          2   -1    0    0  501    0  0.00000000000E+00 -0.00000000000E+00 -0.15443966595E+04  0.15443966595E+04  0.00000000000E+00 0. -1.
         23    2    1    2    0    0  0.56930117168E+03  0.10593058507E+03 -0.13142885440E+04  0.14390616293E+04  0.90658055733E+02 0.  0.
         11    1    3    3    0    0  0.51821500460E+02  0.34089166219E+02 -0.10896380463E+03  0.12538201578E+03  0.00000000000E+00 0. -1.
        -11    1    3    3    0    0  0.51747967122E+03  0.71841418855E+02 -0.12053247394E+04  0.13136796135E+04  0.00000000000E+00 0.  1.
         22    1    1    2    0    0 -0.56930117168E+03 -0.10593058507E+03  0.33210249157E+03  0.66754563726E+03  0.00000000000E+00 0.  1.
<mgrwt>
<rscale>  0 0.18636268E+04</rscale>
<asrwt>0</asrwt>
<pdfrwt beam="1">  1        2 0.23759948E+00 0.18636268E+04</pdfrwt>
<pdfrwt beam="2">  1       -2 0.86493941E-01 0.18636268E+04</pdfrwt>
<totfact> 0.13032637E+01</totfact>
</mgrwt>
</event>
<event>
 6    1  0.1780144E-005  0.1548533E+04  0.7818608E-02  0.8852806E-01
          1   -1    0    0  501    0  0.00000000000E+00  0.00000000000E+00  0.48611485849E+03  0.48611485849E+03  0.00000000000E+00 0. -1.
         -1   -1    0    0    0  501 -0.00000000000E+00 -0.00000000000E+00 -0.12332235811E+04  0.12332235811E+04  0.00000000000E+00 0.  1.
         23    2    1    2    0    0  0.21739169688E+03  0.67673084416E+03 -0.70739445518E+03  0.10074388621E+04  0.96448744954E+02 0.  0.
         13    1    3    3    0    0  0.90938296763E+02  0.42770706236E+03 -0.40910582047E+03  0.59880771317E+03  0.00000000000E+00 0.  1.
        -13    1    3    3    0    0  0.12645340012E+03  0.24902378180E+03 -0.29828863472E+03  0.40863114897E+03  0.00000000000E+00 0. -1.
         22    1    1    2    0    0 -0.21739169688E+03 -0.67673084416E+03 -0.39714267409E+02  0.71189957743E+03  0.00000000000E+00 0. -1.
<mgrwt>
<rscale>  0 0.15485326E+04</rscale>
<asrwt>0</asrwt>
<pdfrwt beam="1">  1        1 0.74786902E-01 0.15485326E+04</pdfrwt>
<pdfrwt beam="2">  1       -1 0.18972670E+00 0.15485326E+04</pdfrwt>
<totfact> 0.78787171E+00</totfact>
</mgrwt>
</event>
<event>
 6    1  0.1780144E-005  0.3511752E+04  0.7818608E-02  0.8111010E-01
          2   -1    0    0  501    0  0.00000000000E+00  0.00000000000E+00  0.30560002325E+04  0.30560002325E+04  0.00000000000E+00 0. -1.
         -2   -1    0    0    0  501 -0.00000000000E+00 -0.00000000000E+00 -0.10088679285E+04  0.10088679285E+04  0.00000000000E+00 0.  1.
         23    2    1    2    0    0 -0.46489424566E+03  0.13247163704E+04  0.22426760191E+04  0.26473924235E+04  0.89948851033E+02 0.  0.
         11    1    3    3    0    0 -0.20796900211E+03  0.46226490591E+03  0.81018419250E+03  0.95568738344E+03  0.00000000000E+00 0.  1.
        -11    1    3    3    0    0 -0.25692524354E+03  0.86245146453E+03  0.14324918266E+04  0.16917050401E+04  0.00000000000E+00 0. -1.
         22    1    1    2    0    0  0.46489424566E+03 -0.13247163704E+04 -0.19554371510E+03  0.14174757375E+04  0.00000000000E+00 0.  1.
<mgrwt>
<rscale>  0 0.35117521E+04</rscale>
<asrwt>0</asrwt>
<pdfrwt beam="1">  1        2 0.47015388E+00 0.35117521E+04</pdfrwt>
<pdfrwt beam="2">  1       -2 0.15521045E+00 0.35117521E+04</pdfrwt>
<totfact> 0.36013916E-01</totfact>
</mgrwt>
</event>
<event>
 6    1  0.1780144E-005  0.3086143E+04  0.7818608E-02  0.8219551E-01
         -2   -1    0    0    0  501 -0.00000000000E+00  0.00000000000E+00  0.10855538496E+04  0.10855538496E+04  0.00000000000E+00 0. -1.
          2   -1    0    0  501    0  0.00000000000E+00 -0.00000000000E+00 -0.21934139376E+04  0.21934139376E+04  0.00000000000E+00 0.  1.
         23    2    1    2    0    0  0.10465280235E+03  0.10119906242E+04 -0.17852478691E+04  0.20567029065E+04  0.88541849152E+02 0.  0.
         13    1    3    3    0    0  0.24859186969E+00  0.37893965418E+03 -0.62664967280E+03  0.73231491568E+03  0.00000000000E+00 0. -1.
        -13    1    3    3    0    0  0.10440421048E+03  0.63305097004E+03 -0.11585981963E+04  0.13243879908E+04  0.00000000000E+00 0.  1.
         22    1    1    2    0    0 -0.10465280235E+03 -0.10119906242E+04  0.67738778108E+03  0.12222648807E+04  0.00000000000E+00 0. -1.
<mgrwt>
<rscale>  0 0.30861425E+04</rscale>
<asrwt>0</asrwt>
<pdfrwt beam="1">  1        2 0.33744829E+00 0.30861425E+04</pdfrwt>
<pdfrwt beam="2">  1       -2 0.16700829E+00 0.30861425E+04</pdfrwt>
<totfact> 0.99119094E-01</totfact>
</mgrwt>
</event>
<event>
 6    1  0.1780144E-005  0.3110978E+04  0.7818608E-02  0.8212732E-01
          2   -1    0    0  501    0  0.00000000000E+00  0.00000000000E+00  0.28396294421E+04  0.28396294421E+04  0.00000000000E+00 0. -1.
         -2   -1    0    0    0  501 -0.00000000000E+00 -0.00000000000E+00 -0.85206379616E+03  0.85206379616E+03  0.00000000000E+00 0.  1.
         23    2    1    2    0    0 -0.52107120595E+03  0.12909275495E+03 -0.73625405465E+03  0.91547748614E+03  0.88593755984E+02 0.  0.
         11    1    3    3    0    0 -0.12038167581E+03  0.68936719241E+02 -0.17756356254E+03  0.22532828910E+03  0.00000000000E+00 0. -1.
        -11    1    3    3    0    0 -0.40068953014E+03  0.60156035705E+02 -0.55869049211E+03  0.69014919704E+03  0.00000000000E+00 0.  1.
         22    1    1    2    0    0  0.52107120595E+03 -0.12909275495E+03  0.27238197006E+04  0.27762157522E+04  0.00000000000E+00 0. -1.
<mgrwt>
<rscale>  0 0.31109776E+04</rscale>
<asrwt>0</asrwt>
<pdfrwt beam="1">  1        2 0.43686607E+00 0.31109776E+04</pdfrwt>
<pdfrwt beam="2">  1       -2 0.13108674E+00 0.31109776E+04</pdfrwt>
<totfact> 0.78869175E-01</totfact>
</mgrwt>
</event>
<event>
 6    1  0.1780144E-005  0.8922363E+03  0.7818608E-02  0.9435339E-01
         -2   -1    0    0    0  501 -0.00000000000E+00  0.00000000000E+00  0.12319385437E+03  0.12319385437E+03  0.00000000000E+00 0.  1.
          2   -1    0    0  501    0  0.00000000000E+00 -0.00000000000E+00 -0.16155141686E+04  0.16155141686E+04  0.00000000000E+00 0. -1.
         23    2    1    2    0    0  0.36010599384E+03  0.12639580972E+03 -0.32173662596E+03  0.50748164299E+03  0.91492808273E+02 0.  0.
         13    1    3    3    0    0  0.18005359771E+03  0.89993359165E+02 -0.11871747478E+03  0.23369198010E+03  0.00000000000E+00 0. -1.
        -13    1    3    3    0    0  0.18005239613E+03  0.36402450553E+02 -0.20301915118E+03  0.27378966289E+03  0.00000000000E+00 0.  1.
         22    1    1    2    0    0 -0.36010599384E+03 -0.12639580972E+03 -0.11705836883E+04  0.12312263800E+04  0.00000000000E+00 0. -1.
<mgrwt>
<rscale>  0 0.89223633E+03</rscale>
<asrwt>0</asrwt>
<pdfrwt beam="1">  1        2 0.24854063E+00 0.89223633E+03</pdfrwt>
<pdfrwt beam="2">  1       -2 0.18952901E-01 0.89223633E+03</pdfrwt>
<totfact> 0.25782120E+02</totfact>
</mgrwt>
</event>
<event>
 6    1  0.1780144E-005  0.3558121E+04  0.7818608E-02  0.8100152E-01
          2   -1    0    0  501    0  0.00000000000E+00  0.00000000000E+00  0.29480800542E+04  0.29480800542E+04  0.00000000000E+00 0. -1.
         -2   -1    0    0    0  501 -0.00000000000E+00 -0.00000000000E+00 -0.10735994452E+04  0.10735994452E+04  0.00000000000E+00 0.  1.
         23    2    1    2    0    0  0.10729011288E+04  0.97032289034E+03 -0.23039667937E+03  0.14676333481E+04  0.90673430312E+02 0.  0.
         13    1    3    3    0    0  0.92376729565E+03  0.86519551713E+03 -0.22191945190E+03  0.12849737517E+04  0.00000000000E+00 0. -1.
        -13    1    3    3    0    0  0.14913383314E+03  0.10512737321E+03 -0.84772274712E+01  0.18265959643E+03  0.00000000000E+00 0.  1.
         22    1    1    2    0    0 -0.10729011288E+04 -0.97032289034E+03  0.21048772883E+04  0.25540461512E+04  0.00000000000E+00 0. -1.
<mgrwt>
<rscale>  0 0.35581215E+04</rscale>
<asrwt>0</asrwt>
<pdfrwt beam="1">  1        2 0.45355077E+00 0.35581215E+04</pdfrwt>
<pdfrwt beam="2">  1       -2 0.16516915E+00 0.35581215E+04</pdfrwt>
<totfact> 0.35399608E-01</totfact>
</mgrwt>
</event>
<event>
 6    1  0.1780144E-005  0.1144772E+04  0.7818608E-02  0.9162620E-01
          2   -1    0    0  501    0  0.00000000000E+00  0.00000000000E+00  0.21692414426E+04  0.21692414426E+04  0.00000000000E+00 0. -1.
         -2   -1    0    0    0  501 -0.00000000000E+00 -0.00000000000E+00 -0.15103249957E+03  0.15103249957E+03  0.00000000000E+00 0.  1.
         23    2    1    2    0    0 -0.29886272520E+03  0.24815858494E+03  0.18573808412E+04  0.18998369194E+04  0.92817666429E+02 0.  0.
         11    1    3    3    0    0 -0.29383668916E+03  0.21373965335E+03  0.16474240726E+04  0.16870182910E+04  0.00000000000E+00 0. -1.
        -11    1    3    3    0    0 -0.50260360387E+01  0.34418931592E+02  0.20995676864E+03  0.21281862838E+03  0.00000000000E+00 0.  1.
         22    1    1    2    0    0  0.29886272520E+03 -0.24815858494E+03  0.16082810184E+03  0.42043702279E+03  0.00000000000E+00 0.  1.
<mgrwt>
<rscale>  0 0.11447724E+04</rscale>
<asrwt>0</asrwt>
<pdfrwt beam="1">  1        2 0.33372943E+00 0.11447724E+04</pdfrwt>
<pdfrwt beam="2">  1       -2 0.23235771E-01 0.11447724E+04</pdfrwt>
<totfact> 0.87413724E+01</totfact>
</mgrwt>
</event>
<event>
 6    1  0.1780144E-005  0.1600387E+04  0.7818608E-02  0.8820310E-01
          1   -1    0    0  501    0  0.00000000000E+00  0.00000000000E+00  0.31384824474E+04  0.31384824474E+04  0.00000000000E+00 0. -1.
         -1   -1    0    0    0  501 -0.00000000000E+00 -0.00000000000E+00 -0.20401884055E+03  0.20401884055E+03  0.00000000000E+00 0.  1.
         23    2    1    2    0    0  0.27413466316E+02 -0.79661148818E+03  0.15332657225E+04  0.17304538717E+04  0.90694348856E+02 0.  0.
         11    1    3    3    0    0  0.44429881540E+02 -0.33773911063E+03  0.58769361526E+03  0.67928308284E+03  0.00000000000E+00 0. -1.
        -11    1    3    3    0    0 -0.17016415224E+02 -0.45887237755E+03  0.94557210729E+03  0.10511707889E+04  0.00000000000E+00 0.  1.
         22    1    1    2    0    0 -0.27413466316E+02  0.79661148818E+03  0.14011978843E+04  0.16120474162E+04  0.00000000000E+00 0.  1.
<mgrwt>
<rscale>  0 0.16003869E+04</rscale>
<asrwt>0</asrwt>
<pdfrwt beam="1">  1        1 0.48284342E+00 0.16003869E+04</pdfrwt>
<pdfrwt beam="2">  1       -1 0.31387516E-01 0.16003869E+04</pdfrwt>
<totfact> 0.42981698E+00</totfact>
</mgrwt>
</event>
<event>
 6    1  0.1780144E-005  0.4315558E+04  0.7818608E-02  0.7943747E-01
         -2   -1    0    0    0  501 -0.00000000000E+00  0.00000000000E+00  0.14565434115E+04  0.14565434115E+04  0.00000000000E+00 0.  1.
          2   -1    0    0  501    0  0.00000000000E+00 -0.00000000000E+00 -0.31966165297E+04  0.31966165297E+04  0.00000000000E+00 0. -1.
         23    2    1    2    0    0 -0.50114705279E+03  0.44262889980E+03 -0.30814598733E+04  0.31543647122E+04  0.86908431949E+02 0.  0.
         11    1    3    3    0    0 -0.41280568253E+03  0.39220043888E+03 -0.27137145349E+04  0.27728101797E+04  0.00000000000E+00 0.  1.
        -11    1    3    3    0    0 -0.88341370260E+02  0.50428460919E+02 -0.36774533842E+03  0.38155453254E+03  0.00000000000E+00 0. -1.
         22    1    1    2    0    0  0.50114705279E+03 -0.44262889980E+03  0.13413867552E+04  0.14987952290E+04  0.00000000000E+00 0.  1.
<mgrwt>
<rscale>  0 0.43155582E+04</rscale>
<asrwt>0</asrwt>
<pdfrwt beam="1">  1        2 0.49178716E+00 0.43155582E+04</pdfrwt>
<pdfrwt beam="2">  1       -2 0.22408360E+00 0.43155582E+04</pdfrwt>
<totfact> 0.93263648E-02</totfact>
</mgrwt>
</event>
<event>
 6    1  0.1780144E-005  0.3875449E+04  0.7818608E-02  0.8030155E-01
         -2   -1    0    0    0  501 -0.00000000000E+00  0.00000000000E+00  0.21475608105E+04  0.21475608105E+04  0.00000000000E+00 0.  1.
          2   -1    0    0  501    0  0.00000000000E+00 -0.00000000000E+00 -0.17483908224E+04  0.17483908224E+04  0.00000000000E+00 0. -1.
         23    2    1    2    0    0 -0.12726202035E+04 -0.13047872282E+04 -0.45844717698E+03  0.18816182208E+04  0.91002314728E+02 0.  0.
         13    1    3    3    0    0 -0.67901615960E+03 -0.64298486593E+03 -0.20794046967E+03  0.95798315316E+03  0.00000000000E+00 0. -1.
        -13    1    3    3    0    0 -0.59360404388E+03 -0.66180236231E+03 -0.25050670731E+03  0.92363506759E+03  0.00000000000E+00 0.  1.
         22    1    1    2    0    0  0.12726202035E+04  0.13047872282E+04  0.85761716510E+03  0.20143334121E+04  0.00000000000E+00 0.  1.
<mgrwt>
<rscale>  0 0.38754487E+04</rscale>
<asrwt>0</asrwt>
<pdfrwt beam="1">  1        2 0.26898320E+00 0.38754487E+04</pdfrwt>
<pdfrwt beam="2">  1       -2 0.33039397E+00 0.38754487E+04</pdfrwt>
<totfact> 0.15159350E-01</totfact>
</mgrwt>
</event>
<event>
 6    1  0.1780144E-005  0.1662658E+04  0.7818608E-02  0.8782953E-01
          4   -1    0    0  501    0  0.00000000000E+00  0.00000000000E+00  0.77989668389E+03  0.77989668389E+03  0.00000000000E+00 0. -1.
         -4   -1    0    0    0  501 -0.00000000000E+00 -0.00000000000E+00 -0.88615337895E+03  0.88615337895E+03  0.00000000000E+00 0.  1.
         23    2    1    2    0    0 -0.45947232767E+02 -0.31724826316E+03  0.71283471923E+03  0.78646586923E+03  0.87393465636E+02 0.  0.
         11    1    3    3    0    0  0.83885037382E+00 -0.24763403537E+03  0.50876045784E+03  0.56582729043E+03  0.00000000000E+00 0.  1.
        -11    1    3    3    0    0 -0.46786083141E+02 -0.69614227799E+02  0.20407426140E+03  0.22063857879E+03  0.00000000000E+00 0. -1.
         22    1    1    2    0    0  0.45947232767E+02  0.31724826316E+03 -0.81909141429E+03  0.87958419361E+03  0.00000000000E+00 0.  1.
<mgrwt>
<rscale>  0 0.16626582E+04</rscale>
<asrwt>0</asrwt>
<pdfrwt beam="1">  1        4 0.11998411E+00 0.16626582E+04</pdfrwt>
<pdfrwt beam="2">  1       -4 0.13633129E+00 0.16626582E+04</pdfrwt>
<totfact> 0.38722677E-01</totfact>
</mgrwt>
</event>
<event>
 6    1  0.1780144E-005  0.4163920E+04  0.7818608E-02  0.7972271E-01
          3   -1    0    0  501    0  0.00000000000E+00  0.00000000000E+00  0.17120532114E+04  0.17120532114E+04  0.00000000000E+00 0. -1.
         -3   -1    0    0    0  501 -0.00000000000E+00 -0.00000000000E+00 -0.25317892383E+04  0.25317892383E+04  0.00000000000E+00 0.  1.
         23    2    1    2    0    0  0.20703802741E+04 -0.17129905674E+03 -0.28573467722E+03  0.20988540377E+04  0.87898348801E+02 0.  0.
         11    1    3    3    0    0  0.12581487338E+04 -0.61497247825E+02 -0.17968152694E+03  0.12724015086E+04  0.00000000000E+00 0.  1.
        -11    1    3    3    0    0  0.81223154026E+03 -0.10980180891E+03 -0.10605315028E+03  0.82645252914E+03  0.00000000000E+00 0. -1.
         22    1    1    2    0    0 -0.20703802741E+04  0.17129905674E+03 -0.53400134973E+03  0.21449884120E+04  0.00000000000E+00 0. -1.
<mgrwt>
<rscale>  0 0.41639202E+04</rscale>
<asrwt>0</asrwt>
<pdfrwt beam="1">  1        3 0.26339280E+00 0.41639202E+04</pdfrwt>
<pdfrwt beam="2">  1       -3 0.38950604E+00 0.41639202E+04</pdfrwt>
<totfact> 0.14986115E-03</totfact>
</mgrwt>
</event>
<event>
 6    1  0.1780144E-005  0.2795053E+04  0.7818608E-02  0.8304806E-01
          2   -1    0    0  501    0  0.00000000000E+00  0.00000000000E+00  0.17209248934E+04  0.17209248934E+04  0.00000000000E+00 0.  1.
         -2   -1    0    0    0  501 -0.00000000000E+00 -0.00000000000E+00 -0.11349016377E+04  0.11349016377E+04  0.00000000000E+00 0. -1.
         23    2    1    2    0    0  0.10069563585E+04 -0.14197234986E+03 -0.68394909243E+03  0.12288824568E+04  0.90821118326E+02 0.  0.
         13    1    3    3    0    0  0.53135066169E+03 -0.30039288383E+02 -0.36758568018E+03  0.64680376993E+03  0.00000000000E+00 0.  1.
        -13    1    3    3    0    0  0.47560569680E+03 -0.11193306147E+03 -0.31636341225E+03  0.58207868685E+03  0.00000000000E+00 0. -1.
         22    1    1    2    0    0 -0.10069563585E+04  0.14197234986E+03  0.12699723481E+04  0.16269440743E+04  0.00000000000E+00 0.  1.
<mgrwt>
<rscale>  0 0.27950531E+04</rscale>
<asrwt>0</asrwt>
<pdfrwt beam="1">  1        2 0.26475768E+00 0.27950531E+04</pdfrwt>
<pdfrwt beam="2">  1       -2 0.17460025E+00 0.27950531E+04</pdfrwt>
<totfact> 0.16438144E+00</totfact>
</mgrwt>
</event>
<event>
 6    1  0.1780144E-005  0.7483881E+03  0.7818608E-02  0.9637882E-01
         -2   -1    0    0    0  501 -0.00000000000E+00  0.00000000000E+00  0.73646717828E+03  0.73646717828E+03  0.00000000000E+00 0.  1.
          2   -1    0    0  501    0  0.00000000000E+00 -0.00000000000E+00 -0.19012551785E+03  0.19012551785E+03  0.00000000000E+00 0. -1.
         23    2    1    2    0    0 -0.79172066533E+02 -0.21730107414E+03 -0.78203813957E+02  0.26060093753E+03  0.91153931259E+02 0.  0.
         13    1    3    3    0    0 -0.56082213387E+02 -0.37852128818E+02 -0.20991606679E+02  0.70842401607E+02  0.00000000000E+00 0. -1.
        -13    1    3    3    0    0 -0.23089853146E+02 -0.17944894532E+03 -0.57212207279E+02  0.18975853592E+03  0.00000000000E+00 0.  1.
         22    1    1    2    0    0  0.79172066533E+02  0.21730107414E+03  0.62454547439E+03  0.66599175860E+03  0.00000000000E+00 0.  1.
<mgrwt>
<rscale>  0 0.74838814E+03</rscale>
<asrwt>0</asrwt>
<pdfrwt beam="1">  1        2 0.29250080E-01 0.74838814E+03</pdfrwt>
<pdfrwt beam="2">  1       -2 0.11330264E+00 0.74838814E+03</pdfrwt>
<totfact> 0.11301206E+02</totfact>
</mgrwt>
</event>
<event>
 6    1  0.1780144E-005  0.2503856E+04  0.7818608E-02  0.8401613E-01
         -2   -1    0    0    0  501 -0.00000000000E+00  0.00000000000E+00  0.56976547389E+03  0.56976547389E+03  0.00000000000E+00 0.  1.
          2   -1    0    0  501    0  0.00000000000E+00 -0.00000000000E+00 -0.27508226816E+04  0.27508226816E+04  0.00000000000E+00 0. -1.
         23    2    1    2    0    0  0.11072578088E+04  0.56027322920E+03 -0.12941353596E+04  0.17952828381E+04  0.91258937252E+02 0.  0.
         13    1    3    3    0    0  0.34799023460E+03  0.16616865710E+03 -0.46298106295E+03  0.60254517725E+03  0.00000000000E+00 0.  1.
        -13    1    3    3    0    0  0.75926757417E+03  0.39410457210E+03 -0.83115429661E+03  0.11927376609E+04  0.00000000000E+00 0. -1.
         22    1    1    2    0    0 -0.11072578088E+04 -0.56027322920E+03 -0.88692184817E+03  0.15253053174E+04  0.00000000000E+00 0. -1.
<mgrwt>
<rscale>  0 0.25038561E+04</rscale>
<asrwt>0</asrwt>
<pdfrwt beam="1">  1        2 0.42320349E+00 0.25038561E+04</pdfrwt>
<pdfrwt beam="2">  1       -2 0.87656227E-01 0.25038561E+04</pdfrwt>
<totfact> 0.24788124E+00</totfact>
</mgrwt>
</event>
<event>
 6    1  0.1780144E-005  0.1506090E+04  0.7818608E-02  0.8880414E-01
          1   -1    0    0  501    0  0.00000000000E+00  0.00000000000E+00  0.10578976953E+04  0.10578976953E+04  0.00000000000E+00 0. -1.
         -1   -1    0    0    0  501 -0.00000000000E+00 -0.00000000000E+00 -0.53604088707E+03  0.53604088707E+03  0.00000000000E+00 0.  1.
         23    2    1    2    0    0 -0.16081455479E+02 -0.56500179727E+03  0.78394812215E+03  0.97089965829E+03  0.92659830176E+02 0.  0.
         13    1    3    3    0    0  0.11891664128E+02 -0.25695021893E+03  0.42782619115E+03  0.49919943562E+03  0.00000000000E+00 0.  1.
        -13    1    3    3    0    0 -0.27973119607E+02 -0.30805157834E+03  0.35612193099E+03  0.47170022268E+03  0.00000000000E+00 0. -1.
         22    1    1    2    0    0  0.16081455479E+02  0.56500179727E+03 -0.26209131388E+03  0.62303892410E+03  0.00000000000E+00 0.  1.
<mgrwt>
<rscale>  0 0.15060895E+04</rscale>
<asrwt>0</asrwt>
<pdfrwt beam="1">  1        1 0.16275349E+00 0.15060895E+04</pdfrwt>
<pdfrwt beam="2">  1       -1 0.82467829E-01 0.15060895E+04</pdfrwt>
<totfact> 0.19290381E+01</totfact>
</mgrwt>
</event>
<event>
 6    1  0.1780144E-005  0.3245018E+03  0.7818608E-02  0.1073596E+00
          1   -1    0    0  501    0  0.00000000000E+00  0.00000000000E+00  0.38180507418E+03  0.38180507418E+03  0.00000000000E+00 0. -1.
         -1   -1    0    0    0  501 -0.00000000000E+00 -0.00000000000E+00 -0.68949740547E+02  0.68949740547E+02  0.00000000000E+00 0.  1.
         23    2    1    2    0    0  0.13147677764E+03  0.57695774627E+01  0.65133033994E+02  0.17024497743E+03  0.86148761697E+02 0.  0.
         11    1    3    3    0    0  0.91954672043E+02  0.41797681435E+02  0.57488077003E+02  0.11622214454E+03  0.00000000000E+00 0. -1.
        -11    1    3    3    0    0  0.39522105592E+02 -0.36028103972E+02  0.76449569907E+01  0.54022832891E+02  0.00000000000E+00 0.  1.
         22    1    1    2    0    0 -0.13147677764E+03 -0.57695774627E+01  0.24772229964E+03  0.28050983729E+03  0.00000000000E+00 0. -1.
<mgrwt>
<rscale>  0 0.32450184E+03</rscale>
<asrwt>0</asrwt>
<pdfrwt beam="1">  1        1 0.58739241E-01 0.32450184E+03</pdfrwt>
<pdfrwt beam="2">  1       -1 0.10607653E-01 0.32450184E+03</pdfrwt>
<totfact> 0.35807369E+03</totfact>
</mgrwt>
</event>
<event>
 6    1  0.1780144E-005  0.1682904E+04  0.7818608E-02  0.8771175E-01
         -2   -1    0    0    0  501 -0.00000000000E+00  0.00000000000E+00  0.50191032971E+03  0.50191032971E+03  0.00000000000E+00 0.  1.
          2   -1    0    0  501    0  0.00000000000E+00 -0.00000000000E+00 -0.14106932601E+04  0.14106932601E+04  0.00000000000E+00 0. -1.
         23    2    1    2    0    0  0.36898564314E+03 -0.39434846305E+03 -0.11853678547E+04  0.13058414160E+04  0.91998575371E+02 0.  0.
         13    1    3    3    0    0  0.55730552542E+02 -0.79396525530E+02 -0.29988064741E+03  0.31517948132E+03  0.00000000000E+00 0. -1.
        -13    1    3    3    0    0  0.31325509060E+03 -0.31495193752E+03 -0.88548720724E+03  0.99066193472E+03  0.00000000000E+00 0.  1.
         22    1    1    2    0    0 -0.36898564314E+03  0.39434846305E+03  0.27658492428E+03  0.60676217374E+03  0.00000000000E+00 0.  1.
<mgrwt>
<rscale>  0 0.16829041E+04</rscale>
<asrwt>0</asrwt>
<pdfrwt beam="1">  1        2 0.21702973E+00 0.16829041E+04</pdfrwt>
<pdfrwt beam="2">  1       -2 0.77216974E-01 0.16829041E+04</pdfrwt>
<totfact> 0.20345267E+01</totfact>
</mgrwt>
</event>
<event>
 6    1  0.1780144E-005  0.1517851E+04  0.7818608E-02  0.8872668E-01
         -1   -1    0    0    0  501 -0.00000000000E+00  0.00000000000E+00  0.79410631825E+03  0.79410631825E+03  0.00000000000E+00 0.  1.
          1   -1    0    0  501    0  0.00000000000E+00 -0.00000000000E+00 -0.72530321209E+03  0.72530321209E+03  0.00000000000E+00 0. -1.
         23    2    1    2    0    0  0.38741262682E+03  0.48366433075E+02  0.68391307694E+03  0.79085745160E+03  0.72736212974E+02 0.  0.
         13    1    3    3    0    0  0.89692237805E+01  0.28922621197E+01  0.52306793181E+02  0.53148967707E+02  0.00000000000E+00 0. -1.
        -13    1    3    3    0    0  0.37844340304E+03  0.45474170956E+02  0.63160628376E+03  0.73770848390E+03  0.00000000000E+00 0.  1.
         22    1    1    2    0    0 -0.38741262682E+03 -0.48366433075E+02 -0.61510997078E+03  0.72855207873E+03  0.00000000000E+00 0. -1.
<mgrwt>
<rscale>  0 0.15178509E+04</rscale>
<asrwt>0</asrwt>
<pdfrwt beam="1">  1        1 0.11158511E+00 0.15178509E+04</pdfrwt>
<pdfrwt beam="2">  1       -1 0.12217020E+00 0.15178509E+04</pdfrwt>
<totfact> 0.14766891E+01</totfact>
</mgrwt>
</event>
<event>
 6    1  0.1780144E-005  0.1911833E+04  0.7818608E-02  0.8648989E-01
         -1   -1    0    0    0  501 -0.00000000000E+00  0.00000000000E+00  0.89734084378E+03  0.89734084378E+03  0.00000000000E+00 0.  1.
          1   -1    0    0  501    0  0.00000000000E+00 -0.00000000000E+00 -0.10183156501E+04  0.10183156501E+04  0.00000000000E+00 0. -1.
         23    2    1    2    0    0  0.22927265881E+03  0.22006461409E+03 -0.96073821369E+03  0.10177717758E+04  0.10884431964E+03 0.  0.
         11    1    3    3    0    0  0.17884549074E+03  0.20307093878E+03 -0.67681141359E+03  0.72890136871E+03  0.00000000000E+00 0. -1.
        -11    1    3    3    0    0  0.50427168071E+02  0.16993675312E+02 -0.28392680010E+03  0.28887040710E+03  0.00000000000E+00 0.  1.
         22    1    1    2    0    0 -0.22927265881E+03 -0.22006461409E+03  0.83976340741E+03  0.89788471803E+03  0.00000000000E+00 0.  1.
<mgrwt>
<rscale>  0 0.19118329E+04</rscale>
<asrwt>0</asrwt>
<pdfrwt beam="1">  1        1 0.15666395E+00 0.19118329E+04</pdfrwt>
<pdfrwt beam="2">  1       -1 0.13805244E+00 0.19118329E+04</pdfrwt>
<totfact> 0.59505896E+00</totfact>
</mgrwt>
</event>
<event>
 6    1  0.1780144E-005  0.3697698E+04  0.7818608E-02  0.8068472E-01
         -2   -1    0    0    0  501 -0.00000000000E+00  0.00000000000E+00  0.13888040392E+04  0.13888040392E+04  0.00000000000E+00 0.  1.
          2   -1    0    0  501    0  0.00000000000E+00 -0.00000000000E+00 -0.24612856680E+04  0.24612856680E+04  0.00000000000E+00 0. -1.
         23    2    1    2    0    0 -0.25218638779E+03  0.16126373553E+04 -0.14382498254E+04  0.21773722810E+04  0.90500143299E+02 0.  0.
         11    1    3    3    0    0 -0.11255252999E+03  0.81501665490E+03 -0.66784699713E+03  0.10596885539E+04  0.00000000000E+00 0.  1.
        -11    1    3    3    0    0 -0.13963385779E+03  0.79762070044E+03 -0.77040282827E+03  0.11176837271E+04  0.00000000000E+00 0. -1.
         22    1    1    2    0    0  0.25218638779E+03 -0.16126373553E+04  0.36576819668E+03  0.16727174262E+04  0.00000000000E+00 0.  1.
<mgrwt>
<rscale>  0 0.36976985E+04</rscale>
<asrwt>0</asrwt>
<pdfrwt beam="1">  1        2 0.37865933E+00 0.36976985E+04</pdfrwt>
<pdfrwt beam="2">  1       -2 0.21366216E+00 0.36976985E+04</pdfrwt>
<totfact> 0.32145476E-01</totfact>
</mgrwt>
</event>
<event>
 6    1  0.1780144E-005  0.3293456E+04  0.7818608E-02  0.8164562E-01
         -2   -1    0    0    0  501 -0.00000000000E+00  0.00000000000E+00  0.88556423193E+03  0.88556423193E+03  0.00000000000E+00 0.  1.
          2   -1    0    0  501    0  0.00000000000E+00 -0.00000000000E+00 -0.30621309252E+04  0.30621309252E+04  0.00000000000E+00 0. -1.
         23    2    1    2    0    0  0.58237164720E+03  0.32414442036E+03 -0.28921980023E+04  0.29697613602E+04  0.10221013234E+03 0.  0.
         13    1    3    3    0    0  0.16128543947E+03  0.55093551682E+02 -0.88797254319E+03  0.90418113776E+03  0.00000000000E+00 0. -1.
        -13    1    3    3    0    0  0.42108620773E+03  0.26905086868E+03 -0.20042254591E+04  0.20655802224E+04  0.00000000000E+00 0.  1.
         22    1    1    2    0    0 -0.58237164720E+03 -0.32414442036E+03  0.71563130904E+03  0.97793379694E+03  0.00000000000E+00 0.  1.
<mgrwt>
<rscale>  0 0.32934563E+04</rscale>
<asrwt>0</asrwt>
<pdfrwt beam="1">  1        2 0.47109707E+00 0.32934563E+04</pdfrwt>
<pdfrwt beam="2">  1       -2 0.13624065E+00 0.32934563E+04</pdfrwt>
<totfact> 0.51190697E-01</totfact>
</mgrwt>
</event>
<event>
 6    1  0.1780144E-005  0.3006036E+04  0.7818608E-02  0.8242009E-01
          1   -1    0    0  501    0  0.00000000000E+00  0.00000000000E+00  0.16942126056E+04  0.16942126056E+04  0.00000000000E+00 0. -1.
         -1   -1    0    0    0  501 -0.00000000000E+00 -0.00000000000E+00 -0.13333997498E+04  0.13333997498E+04  0.00000000000E+00 0.  1.
         23    2    1    2    0    0 -0.48004447887E+03  0.30421883812E+03 -0.12192823283E+04  0.13484183244E+04  0.92686451587E+02 0.  0.
         11    1    3    3    0    0 -0.24916101115E+03  0.20702865665E+03 -0.64096228660E+03  0.71817457975E+03  0.00000000000E+00 0. -1.
        -11    1    3    3    0    0 -0.23088346772E+03  0.97190181467E+02 -0.57832004166E+03  0.63024374461E+03  0.00000000000E+00 0.  1.
         22    1    1    2    0    0  0.48004447887E+03 -0.30421883812E+03  0.15800951840E+04  0.16791940310E+04  0.00000000000E+00 0. -1.
<mgrwt>
<rscale>  0 0.30060357E+04</rscale>
<asrwt>0</asrwt>
<pdfrwt beam="1">  1        1 0.26064809E+00 0.30060357E+04</pdfrwt>
<pdfrwt beam="2">  1       -1 0.20513842E+00 0.30060357E+04</pdfrwt>
<totfact> 0.56767496E-01</totfact>
</mgrwt>
</event>
<event>
 6    1  0.1780144E-005  0.2720379E+04  0.7818608E-02  0.8328423E-01
          2   -1    0    0  501    0  0.00000000000E+00  0.00000000000E+00  0.12799024704E+04  0.12799024704E+04  0.00000000000E+00 0. -1.
         -2   -1    0    0    0  501 -0.00000000000E+00 -0.00000000000E+00 -0.14455133058E+04  0.14455133058E+04  0.00000000000E+00 0.  1.
         23    2    1    2    0    0  0.13449494759E+04 -0.13011191328E+03 -0.22510925702E+03  0.13728780633E+04  0.91114195161E+02 0.  0.
         13    1    3    3    0    0  0.11763081175E+03 -0.36896745435E+02 -0.14411341012E+02  0.12412116840E+03  0.00000000000E+00 0.  1.
        -13    1    3    3    0    0  0.12273186641E+04 -0.93215167844E+02 -0.21069791601E+03  0.12487568949E+04  0.00000000000E+00 0. -1.
         22    1    1    2    0    0 -0.13449494759E+04  0.13011191328E+03  0.59498421642E+02  0.13525377129E+04  0.00000000000E+00 0. -1.
<mgrwt>
<rscale>  0 0.27203794E+04</rscale>
<asrwt>0</asrwt>
<pdfrwt beam="1">  1        2 0.19690807E+00 0.27203794E+04</pdfrwt>
<pdfrwt beam="2">  1       -2 0.22238666E+00 0.27203794E+04</pdfrwt>
<totfact> 0.14200707E+00</totfact>
</mgrwt>
</event>
<event>
 6    1  0.1780144E-005  0.3351209E+04  0.7818608E-02  0.8149986E-01
          2   -1    0    0  501    0  0.00000000000E+00  0.00000000000E+00  0.21367971792E+04  0.21367971792E+04  0.00000000000E+00 0. -1.
         -2   -1    0    0    0  501 -0.00000000000E+00 -0.00000000000E+00 -0.13139527525E+04  0.13139527525E+04  0.00000000000E+00 0.  1.
         23    2    1    2    0    0 -0.98237352383E+03 -0.13019971956E+04  0.22683682493E+02  0.16340188964E+04  0.96170508141E+02 0.  0.
         11    1    3    3    0    0 -0.46344912215E+03 -0.56708758652E+03 -0.28311895609E+02  0.73292222169E+03  0.00000000000E+00 0. -1.
        -11    1    3    3    0    0 -0.51892440168E+03 -0.73490960912E+03  0.50995578101E+02  0.90109667474E+03  0.00000000000E+00 0.  1.
         22    1    1    2    0    0  0.98237352383E+03  0.13019971956E+04  0.80016074423E+03  0.18167310352E+04  0.00000000000E+00 0. -1.
<mgrwt>
<rscale>  0 0.33512091E+04</rscale>
<asrwt>0</asrwt>
<pdfrwt beam="1">  1        2 0.32873803E+00 0.33512091E+04</pdfrwt>
<pdfrwt beam="2">  1       -2 0.20214658E+00 0.33512091E+04</pdfrwt>
<totfact> 0.60013842E-01</totfact>
</mgrwt>
</event>
<event>
 6    1  0.1780144E-005  0.3304751E+04  0.7818608E-02  0.8161688E-01
          2   -1    0    0  501    0  0.00000000000E+00  0.00000000000E+00  0.29988024874E+04  0.29988024874E+04  0.00000000000E+00 0. -1.
         -2   -1    0    0    0  501 -0.00000000000E+00 -0.00000000000E+00 -0.91047818691E+03  0.91047818691E+03  0.00000000000E+00 0.  1.
         23    2    1    2    0    0 -0.81008234048E+03  0.14381788460E+04  0.99765622945E+03  0.19308599323E+04  0.91161035650E+02 0.  0.
         13    1    3    3    0    0 -0.64977603863E+02  0.10192023076E+03  0.47497042959E+02  0.12986836232E+03  0.00000000000E+00 0.  1.
        -13    1    3    3    0    0 -0.74510473662E+03  0.13362586152E+04  0.95015918649E+03  0.18009915699E+04  0.00000000000E+00 0. -1.
         22    1    1    2    0    0  0.81008234048E+03 -0.14381788460E+04  0.10906680710E+04  0.19784207420E+04  0.00000000000E+00 0. -1.
<mgrwt>
<rscale>  0 0.33047507E+04</rscale>
<asrwt>0</asrwt>
<pdfrwt beam="1">  1        2 0.46135422E+00 0.33047507E+04</pdfrwt>
<pdfrwt beam="2">  1       -2 0.14007357E+00 0.33047507E+04</pdfrwt>
<totfact> 0.52190942E-01</totfact>
</mgrwt>
</event>
<event>
 6    1  0.1780144E-005  0.1173179E+04  0.7818608E-02  0.9136663E-01
          1   -1    0    0  501    0  0.00000000000E+00  0.00000000000E+00  0.23888103353E+03  0.23888103353E+03  0.00000000000E+00 0. -1.
         -1   -1    0    0    0  501 -0.00000000000E+00 -0.00000000000E+00 -0.14404114846E+04  0.14404114846E+04  0.00000000000E+00 0.  1.
         23    2    1    2    0    0 -0.51920168746E+03  0.20013722142E+03 -0.35538896901E+03  0.66658293126E+03  0.91685251233E+02 0.  0.
         11    1    3    3    0    0 -0.28225814245E+03  0.11579115787E+03 -0.24774370014E+03  0.39300660577E+03  0.00000000000E+00 0. -1.
        -11    1    3    3    0    0 -0.23694354501E+03  0.84346063545E+02 -0.10764526888E+03  0.27357632549E+03  0.00000000000E+00 0.  1.
         22    1    1    2    0    0  0.51920168746E+03 -0.20013722142E+03 -0.84614148207E+03  0.10127095869E+04  0.00000000000E+00 0.  1.
<mgrwt>
<rscale>  0 0.11731786E+04</rscale>
<asrwt>0</asrwt>
<pdfrwt beam="1">  1        1 0.36750927E-01 0.11731786E+04</pdfrwt>
<pdfrwt beam="2">  1       -1 0.22160177E+00 0.11731786E+04</pdfrwt>
<totfact> 0.12577824E+01</totfact>
</mgrwt>
</event>
<event>
 6    1  0.1780144E-005  0.1926360E+04  0.7818608E-02  0.8641845E-01
          1   -1    0    0  501    0  0.00000000000E+00  0.00000000000E+00  0.13406585220E+04  0.13406585220E+04  0.00000000000E+00 0. -1.
         -1   -1    0    0    0  501 -0.00000000000E+00 -0.00000000000E+00 -0.69198510704E+03  0.69198510704E+03  0.00000000000E+00 0.  1.
         23    2    1    2    0    0 -0.11450444252E+03 -0.40362858826E+03 -0.58690646550E+03  0.72777392459E+03  0.95751665522E+02 0.  0.
         11    1    3    3    0    0 -0.11734694093E+03 -0.25675332686E+03 -0.41068418820E+03  0.49835135982E+03  0.00000000000E+00 0. -1.
        -11    1    3    3    0    0  0.28424984048E+01 -0.14687526140E+03 -0.17622227730E+03  0.22942256477E+03  0.00000000000E+00 0.  1.
         22    1    1    2    0    0  0.11450444252E+03  0.40362858826E+03  0.12355798805E+04  0.13048697045E+04  0.00000000000E+00 0. -1.
<mgrwt>
<rscale>  0 0.19263600E+04</rscale>
<asrwt>0</asrwt>
<pdfrwt beam="1">  1        1 0.20625516E+00 0.19263600E+04</pdfrwt>
<pdfrwt beam="2">  1       -1 0.10645925E+00 0.19263600E+04</pdfrwt>
<totfact> 0.65116434E+00</totfact>
</mgrwt>
</event>
<event>
 6    1  0.1780144E-005  0.3331112E+04  0.7818608E-02  0.8155024E-01
         -1   -1    0    0    0  501 -0.00000000000E+00  0.00000000000E+00  0.97216780100E+03  0.97216780100E+03  0.00000000000E+00 0.  1.
          1   -1    0    0  501    0  0.00000000000E+00 -0.00000000000E+00 -0.28534960071E+04  0.28534960071E+04  0.00000000000E+00 0. -1.
         23    2    1    2    0    0 -0.15541592477E+04 -0.59346931897E+03 -0.99516517424E+03  0.19407495610E+04  0.92403110520E+02 0.  0.
         13    1    3    3    0    0 -0.49061097765E+03 -0.15061707524E+03 -0.33643512843E+03  0.61365562850E+03  0.00000000000E+00 0. -1.
        -13    1    3    3    0    0 -0.10635482700E+04 -0.44285224373E+03 -0.65873004580E+03  0.13270939325E+04  0.00000000000E+00 0.  1.
         22    1    1    2    0    0  0.15541592477E+04  0.59346931897E+03 -0.88616303181E+03  0.18849142470E+04  0.00000000000E+00 0.  1.
<mgrwt>
<rscale>  0 0.33311121E+04</rscale>
<asrwt>0</asrwt>
<pdfrwt beam="1">  1        1 0.43899938E+00 0.33311121E+04</pdfrwt>
<pdfrwt beam="2">  1       -1 0.14956428E+00 0.33311121E+04</pdfrwt>
<totfact> 0.22189313E-01</totfact>
</mgrwt>
</event>
<event>
 6    1  0.1780144E-005  0.3949958E+04  0.7818608E-02  0.8014718E-01
         -2   -1    0    0    0  501 -0.00000000000E+00  0.00000000000E+00  0.11343715418E+04  0.11343715418E+04  0.00000000000E+00 0. -1.
          2   -1    0    0  501    0  0.00000000000E+00 -0.00000000000E+00 -0.34385044298E+04  0.34385044298E+04  0.00000000000E+00 0.  1.
         23    2    1    2    0    0  0.13952102370E+04 -0.35770028842E+03 -0.27155403188E+04  0.30749383306E+04  0.80780022620E+02 0.  0.
         13    1    3    3    0    0  0.43921317632E+03 -0.10929772526E+03 -0.93454541329E+03  0.10383782242E+04  0.00000000000E+00 0.  1.
        -13    1    3    3    0    0  0.95599706072E+03 -0.24840256315E+03 -0.17809949056E+04  0.20365601064E+04  0.00000000000E+00 0. -1.
         22    1    1    2    0    0 -0.13952102370E+04  0.35770028842E+03  0.41140743088E+03  0.14979376409E+04  0.00000000000E+00 0. -1.
<mgrwt>
<rscale>  0 0.39499578E+04</rscale>
<asrwt>0</asrwt>
<pdfrwt beam="1">  1        2 0.52900067E+00 0.39499578E+04</pdfrwt>
<pdfrwt beam="2">  1       -2 0.17451870E+00 0.39499578E+04</pdfrwt>
<totfact> 0.14047123E-01</totfact>
</mgrwt>
</event>
<event>
 6    1  0.1780144E-005  0.8839795E+03  0.7818608E-02  0.9445832E-01
         -2   -1    0    0    0  501 -0.00000000000E+00  0.00000000000E+00  0.74037030608E+02  0.74037030608E+02  0.00000000000E+00 0.  1.
          2   -1    0    0  501    0  0.00000000000E+00 -0.00000000000E+00 -0.26386109824E+04  0.26386109824E+04  0.00000000000E+00 0. -1.
         23    2    1    2    0    0  0.19704878464E+03 -0.98014962052E+02 -0.24557739983E+04  0.24671432550E+04  0.86802959849E+02 0.  0.
         13    1    3    3    0    0  0.10218144896E+03 -0.30075282505E+02 -0.15866477262E+04  0.15902190347E+04  0.00000000000E+00 0. -1.
        -13    1    3    3    0    0  0.94867335679E+02 -0.67939679547E+02 -0.86912627204E+03  0.87692422032E+03  0.00000000000E+00 0.  1.
         22    1    1    2    0    0 -0.19704878464E+03  0.98014962052E+02 -0.10879995352E+03  0.24550475800E+03  0.00000000000E+00 0.  1.
<mgrwt>
<rscale>  0 0.88397946E+03</rscale>
<asrwt>0</asrwt>
<pdfrwt beam="1">  1        2 0.40594023E+00 0.88397946E+03</pdfrwt>
<pdfrwt beam="2">  1       -2 0.11390310E-01 0.88397946E+03</pdfrwt>
<totfact> 0.16472835E+02</totfact>
</mgrwt>
</event>
<event>
 6    1  0.1780144E-005  0.3894460E+04  0.7818608E-02  0.8026182E-01
         -1   -1    0    0    0  501 -0.00000000000E+00  0.00000000000E+00  0.22707934585E+04  0.22707934585E+04  0.00000000000E+00 0.  1.
          1   -1    0    0  501    0  0.00000000000E+00 -0.00000000000E+00 -0.16697708157E+04  0.16697708157E+04  0.00000000000E+00 0. -1.
         23    2    1    2    0    0 -0.20510429305E+03  0.95723747900E+03 -0.14012587857E+04  0.17117748538E+04  0.90970342687E+02 0.  0.
         13    1    3    3    0    0 -0.11234088617E+03  0.31885332810E+03 -0.48803090371E+03  0.59368517122E+03  0.00000000000E+00 0.  1.
        -13    1    3    3    0    0 -0.92763406882E+02  0.63838415090E+03 -0.91322788197E+03  0.11180896825E+04  0.00000000000E+00 0. -1.
         22    1    1    2    0    0  0.20510429305E+03 -0.95723747900E+03  0.20022814284E+04  0.22287894205E+04  0.00000000000E+00 0.  1.
<mgrwt>
<rscale>  0 0.38944600E+04</rscale>
<asrwt>0</asrwt>
<pdfrwt beam="1">  1        1 0.25688782E+00 0.38944600E+04</pdfrwt>
<pdfrwt beam="2">  1       -1 0.34935284E+00 0.38944600E+04</pdfrwt>
<totfact> 0.61892109E-02</totfact>
</mgrwt>
</event>
<event>
 6    1  0.1780144E-005  0.4987904E+04  0.7818608E-02  0.7830376E-01
         -1   -1    0    0    0  501 -0.00000000000E+00  0.00000000000E+00  0.19814304349E+04  0.19814304349E+04  0.00000000000E+00 0.  1.
          1   -1    0    0  501    0  0.00000000000E+00 -0.00000000000E+00 -0.31390436841E+04  0.31390436841E+04  0.00000000000E+00 0. -1.
         23    2    1    2    0    0 -0.56904638398E+03 -0.21680376814E+04 -0.16995474231E+04  0.28144182168E+04  0.91034502305E+02 0.  0.
         13    1    3    3    0    0 -0.24274629921E+03 -0.76962846388E+03 -0.63522165824E+03  0.10270152352E+04  0.00000000000E+00 0.  1.
        -13    1    3    3    0    0 -0.32630008476E+03 -0.13984092175E+04 -0.10643257649E+04  0.17874029817E+04  0.00000000000E+00 0. -1.
         22    1    1    2    0    0  0.56904638398E+03  0.21680376814E+04  0.54193417390E+03  0.23060559022E+04  0.00000000000E+00 0.  1.
<mgrwt>
<rscale>  0 0.49879040E+04</rscale>
<asrwt>0</asrwt>
<pdfrwt beam="1">  1        1 0.48292980E+00 0.49879040E+04</pdfrwt>
<pdfrwt beam="2">  1       -1 0.30483545E+00 0.49879040E+04</pdfrwt>
<totfact> 0.10478136E-02</totfact>
</mgrwt>
</event>
<event>
 6    1  0.1780144E-005  0.5331516E+04  0.7818608E-02  0.7779308E-01
         -2   -1    0    0    0  501 -0.00000000000E+00  0.00000000000E+00  0.16701991345E+04  0.16701991345E+04  0.00000000000E+00 0.  1.
          2   -1    0    0  501    0  0.00000000000E+00 -0.00000000000E+00 -0.42547421500E+04  0.42547421500E+04  0.00000000000E+00 0. -1.
         23    2    1    2    0    0 -0.21599372771E+04  0.11641995384E+04 -0.13701178003E+03  0.24592380723E+04  0.91597282333E+02 0.  0.
         13    1    3    3    0    0 -0.13041095429E+04  0.72644821081E+03 -0.12301064780E+03  0.14978519027E+04  0.00000000000E+00 0. -1.
        -13    1    3    3    0    0 -0.85582773413E+03  0.43775132759E+03 -0.14001132227E+02  0.96138616955E+03  0.00000000000E+00 0.  1.
         22    1    1    2    0    0  0.21599372771E+04 -0.11641995384E+04 -0.24475312355E+04  0.34657032121E+04  0.00000000000E+00 0.  1.
<mgrwt>
<rscale>  0 0.53315164E+04</rscale>
<asrwt>0</asrwt>
<pdfrwt beam="1">  1        2 0.65457571E+00 0.53315164E+04</pdfrwt>
<pdfrwt beam="2">  1       -2 0.25695371E+00 0.53315164E+04</pdfrwt>
<totfact> 0.85361659E-03</totfact>
</mgrwt>
</event>
<event>
 6    1  0.1780144E-005  0.1609575E+04  0.7818608E-02  0.8814687E-01
         -2   -1    0    0    0  501 -0.00000000000E+00  0.00000000000E+00  0.35766665489E+03  0.35766665489E+03  0.00000000000E+00 0.  1.
          2   -1    0    0  501    0  0.00000000000E+00 -0.00000000000E+00 -0.18108561567E+04  0.18108561567E+04  0.00000000000E+00 0. -1.
         23    2    1    2    0    0  0.31532499268E+03  0.73745137985E+03 -0.75204441956E+03  0.11032205939E+04  0.90887189077E+02 0.  0.
         13    1    3    3    0    0  0.29852950623E+03  0.64504535603E+03 -0.69034012786E+03  0.99084452341E+03  0.00000000000E+00 0.  1.
        -13    1    3    3    0    0  0.16795486450E+02  0.92406023824E+02 -0.61704291699E+02  0.11237607049E+03  0.00000000000E+00 0. -1.
         22    1    1    2    0    0 -0.31532499268E+03 -0.73745137985E+03 -0.70114508224E+03  0.10653022177E+04  0.00000000000E+00 0. -1.
<mgrwt>
<rscale>  0 0.16095749E+04</rscale>
<asrwt>0</asrwt>
<pdfrwt beam="1">  1        2 0.27859325E+00 0.16095749E+04</pdfrwt>
<pdfrwt beam="2">  1       -2 0.55025640E-01 0.16095749E+04</pdfrwt>
<totfact> 0.25325963E+01</totfact>
</mgrwt>
</event>
<event>
 6    1  0.2404951E-005  0.2204205E+04  0.7818608E-02  0.8516680E-01
         -1   -1    0    0    0  501 -0.00000000000E+00  0.00000000000E+00  0.12052051729E+04  0.12052051729E+04  0.00000000000E+00 0.  1.
          1   -1    0    0  501    0  0.00000000000E+00 -0.00000000000E+00 -0.10078199316E+04  0.10078199316E+04  0.00000000000E+00 0. -1.
         23    2    1    2    0    0  0.28085354662E+03  0.63952102684E+03  0.95229232413E+03  0.11845550942E+04  0.91892557865E+02 0.  0.
         11    1    3    3    0    0  0.17369512343E+03  0.42520858448E+03  0.69406523187E+03  0.83228533708E+03  0.00000000000E+00 0.  1.
        -11    1    3    3    0    0  0.10715842320E+03  0.21431244236E+03  0.25822709225E+03  0.35226975713E+03  0.00000000000E+00 0. -1.
         22    1    1    2    0    0 -0.28085354662E+03 -0.63952102684E+03 -0.75490708284E+03  0.10284700103E+04  0.00000000000E+00 0. -1.
<mgrwt>
<rscale>  0 0.22042049E+04</rscale>
<asrwt>0</asrwt>
<pdfrwt beam="1">  1        1 0.15504922E+00 0.22042049E+04</pdfrwt>
<pdfrwt beam="2">  1       -1 0.18541618E+00 0.22042049E+04</pdfrwt>
<totfact> 0.25885939E+00</totfact>
</mgrwt>
</event>
<event>
 6    1  0.1780144E-005  0.1017673E+04  0.7818608E-02  0.9289370E-01
          2   -1    0    0  501    0  0.00000000000E+00  0.00000000000E+00  0.10752610318E+04  0.10752610318E+04  0.00000000000E+00 0. -1.
         -2   -1    0    0    0  501 -0.00000000000E+00 -0.00000000000E+00 -0.24079252337E+03  0.24079252337E+03  0.00000000000E+00 0.  1.
         23    2    1    2    0    0 -0.23933578248E+03 -0.18471882363E+03  0.94327408580E+03  0.99474169067E+03  0.91336573391E+02 0.  0.
         13    1    3    3    0    0 -0.34084494385E+02 -0.73233384945E+00  0.18048698527E+03  0.18367863491E+03  0.00000000000E+00 0.  1.
        -13    1    3    3    0    0 -0.20525128809E+03 -0.18398648978E+03  0.76278710052E+03  0.81106305575E+03  0.00000000000E+00 0. -1.
         22    1    1    2    0    0  0.23933578248E+03  0.18471882363E+03 -0.10880557740E+03  0.32131186447E+03  0.00000000000E+00 0.  1.
<mgrwt>
<rscale>  0 0.10176735E+04</rscale>
<asrwt>0</asrwt>
<pdfrwt beam="1">  1        2 0.16542477E+00 0.10176735E+04</pdfrwt>
<pdfrwt beam="2">  1       -2 0.37045004E-01 0.10176735E+04</pdfrwt>
<totfact> 0.15444057E+02</totfact>
</mgrwt>
</event>
<event>
 6    1  0.1780144E-005  0.1218747E+04  0.7818608E-02  0.9096603E-01
          2   -1    0    0  501    0  0.00000000000E+00  0.00000000000E+00  0.78046411403E+03  0.78046411403E+03  0.00000000000E+00 0. -1.
         -2   -1    0    0    0  501 -0.00000000000E+00 -0.00000000000E+00 -0.47578912959E+03  0.47578912959E+03  0.00000000000E+00 0.  1.
         23    2    1    2    0    0 -0.27651096972E+03 -0.38444956504E+03  0.54277230349E+03  0.72620596481E+03  0.92268875843E+02 0.  0.
         11    1    3    3    0    0 -0.17228119139E+02 -0.60116157294E+02  0.10940585646E+03  0.12601746658E+03  0.00000000000E+00 0.  1.
        -11    1    3    3    0    0 -0.25928285059E+03 -0.32433340774E+03  0.43336644703E+03  0.60018849822E+03  0.00000000000E+00 0. -1.
         22    1    1    2    0    0  0.27651096972E+03  0.38444956504E+03 -0.23809731905E+03  0.53004727881E+03  0.00000000000E+00 0.  1.
<mgrwt>
<rscale>  0 0.12187475E+04</rscale>
<asrwt>0</asrwt>
<pdfrwt beam="1">  1        2 0.12007140E+00 0.12187475E+04</pdfrwt>
<pdfrwt beam="2">  1       -2 0.73198327E-01 0.12187475E+04</pdfrwt>
<totfact> 0.59141125E+01</totfact>
</mgrwt>
</event>
<event>
 6    1  0.1780144E-005  0.2229513E+04  0.7818608E-02  0.8506244E-01
         -2   -1    0    0    0  501 -0.00000000000E+00  0.00000000000E+00  0.37474867674E+03  0.37474867674E+03  0.00000000000E+00 0. -1.
          2   -1    0    0  501    0  0.00000000000E+00 -0.00000000000E+00 -0.33160411536E+04  0.33160411536E+04  0.00000000000E+00 0.  1.
         23    2    1    2    0    0 -0.14965699155E+03 -0.98742429573E+03 -0.22861911471E+04  0.24964022437E+04  0.89164153748E+02 0.  0.
         11    1    3    3    0    0 -0.37448862544E+02 -0.48474283656E+03 -0.10435398415E+04  0.11512399557E+04  0.00000000000E+00 0.  1.
        -11    1    3    3    0    0 -0.11220812900E+03 -0.50268145916E+03 -0.12426513056E+04  0.13451622879E+04  0.00000000000E+00 0. -1.
         22    1    1    2    0    0  0.14965699155E+03  0.98742429573E+03 -0.65510132980E+03  0.11943875867E+04  0.00000000000E+00 0. -1.
<mgrwt>
<rscale>  0 0.22295130E+04</rscale>
<asrwt>0</asrwt>
<pdfrwt beam="1">  1        2 0.51016019E+00 0.22295130E+04</pdfrwt>
<pdfrwt beam="2">  1       -2 0.57653641E-01 0.22295130E+04</pdfrwt>
<totfact> 0.27979279E+00</totfact>
</mgrwt>
</event>
<event>
 6    1  0.1780144E-005  0.5402108E+04  0.7818608E-02  0.7769305E-01
         -2   -1    0    0    0  501 -0.00000000000E+00  0.00000000000E+00  0.26068589540E+04  0.26068589540E+04  0.00000000000E+00 0.  1.
          2   -1    0    0  501    0  0.00000000000E+00 -0.00000000000E+00 -0.27986522316E+04  0.27986522316E+04  0.00000000000E+00 0. -1.
         23    2    1    2    0    0 -0.17866693112E+04 -0.18977332119E+04 -0.80238039507E+03  0.27284988212E+04  0.85515775772E+02 0.  0.
         11    1    3    3    0    0 -0.12105892474E+04 -0.13244783189E+04 -0.58298284678E+03  0.18867003320E+04  0.00000000000E+00 0. -1.
        -11    1    3    3    0    0 -0.57608006380E+03 -0.57325489304E+03 -0.21939754829E+03  0.84179848924E+03  0.00000000000E+00 0.  1.
         22    1    1    2    0    0  0.17866693112E+04  0.18977332119E+04  0.61058711744E+03  0.26770123644E+04  0.00000000000E+00 0.  1.
<mgrwt>
<rscale>  0 0.54021076E+04</rscale>
<asrwt>0</asrwt>
<pdfrwt beam="1">  1        2 0.43056188E+00 0.54021076E+04</pdfrwt>
<pdfrwt beam="2">  1       -2 0.40105523E+00 0.54021076E+04</pdfrwt>
<totfact> 0.11946087E-02</totfact>
</mgrwt>
</event>
<event>
 6    1  0.1780144E-005  0.4494300E+04  0.7818608E-02  0.7911635E-01
          2   -1    0    0  501    0  0.00000000000E+00  0.00000000000E+00  0.27315202359E+04  0.27315202359E+04  0.00000000000E+00 0. -1.
         -2   -1    0    0    0  501 -0.00000000000E+00 -0.00000000000E+00 -0.18486716266E+04  0.18486716266E+04  0.00000000000E+00 0.  1.
         23    2    1    2    0    0  0.20584518185E+04 -0.38343650911E+03  0.12702903461E+04  0.24507885317E+04  0.92083756542E+02 0.  0.
         11    1    3    3    0    0  0.73470756856E+03 -0.94042631870E+02  0.46405590287E+03  0.87406356113E+03  0.00000000000E+00 0. -1.
        -11    1    3    3    0    0  0.13237442499E+04 -0.28939387724E+03  0.80623444320E+03  0.15767249706E+04  0.00000000000E+00 0.  1.
         22    1    1    2    0    0 -0.20584518185E+04  0.38343650911E+03 -0.38744173681E+03  0.21294033308E+04  0.00000000000E+00 0.  1.
<mgrwt>
<rscale>  0 0.44943004E+04</rscale>
<asrwt>0</asrwt>
<pdfrwt beam="1">  1        2 0.42023388E+00 0.44943004E+04</pdfrwt>
<pdfrwt beam="2">  1       -2 0.28441102E+00 0.44943004E+04</pdfrwt>
<totfact> 0.76286937E-02</totfact>
</mgrwt>
</event>
<event>
 6    1  0.1780144E-005  0.1206086E+04  0.7818608E-02  0.9107546E-01
          4   -1    0    0  501    0  0.00000000000E+00  0.00000000000E+00  0.17691653274E+04  0.17691653274E+04  0.00000000000E+00 0. -1.
         -4   -1    0    0    0  501 -0.00000000000E+00 -0.00000000000E+00 -0.20555513907E+03  0.20555513907E+03  0.00000000000E+00 0.  1.
         23    2    1    2    0    0  0.37677139130E+03 -0.21749800189E+03  0.11082199199E+03  0.45819298384E+03  0.91636425128E+02 0.  0.
         13    1    3    3    0    0  0.24768729006E+03 -0.18560144466E+03  0.97778492138E+02  0.32458823676E+03  0.00000000000E+00 0.  1.
        -13    1    3    3    0    0  0.12908410124E+03 -0.31896557224E+02  0.13043499850E+02  0.13360474708E+03  0.00000000000E+00 0. -1.
         22    1    1    2    0    0 -0.37677139130E+03  0.21749800189E+03  0.14527881963E+04  0.15165274826E+04  0.00000000000E+00 0. -1.
<mgrwt>
<rscale>  0 0.12060863E+04</rscale>
<asrwt>0</asrwt>
<pdfrwt beam="1">  1        4 0.27217927E+00 0.12060863E+04</pdfrwt>
<pdfrwt beam="2">  1       -4 0.31623869E-01 0.12060863E+04</pdfrwt>
<totfact> 0.88735655E-01</totfact>
</mgrwt>
</event>
<event>
 6    1  0.1780144E-005  0.1308098E+04  0.7818608E-02  0.9023168E-01
          2   -1    0    0  501    0  0.00000000000E+00  0.00000000000E+00  0.31138045856E+04  0.31138045856E+04  0.00000000000E+00 0. -1.
         -2   -1    0    0    0  501 -0.00000000000E+00 -0.00000000000E+00 -0.13738180226E+03  0.13738180226E+03  0.00000000000E+00 0.  1.
         23    2    1    2    0    0  0.64814921008E+03  0.28597963796E+02  0.13579817169E+04  0.15075503227E+04  0.87626423308E+02 0.  0.
         13    1    3    3    0    0  0.25749927518E+03 -0.12782383595E+02  0.62141526945E+03  0.67277500188E+03  0.00000000000E+00 0. -1.
        -13    1    3    3    0    0  0.39064993490E+03  0.41380347391E+02  0.73656644743E+03  0.83477532083E+03  0.00000000000E+00 0.  1.
         22    1    1    2    0    0 -0.64814921008E+03 -0.28597963796E+02  0.16184410665E+04  0.17436360652E+04  0.00000000000E+00 0. -1.
<mgrwt>
<rscale>  0 0.13080980E+04</rscale>
<asrwt>0</asrwt>
<pdfrwt beam="1">  1        2 0.47904680E+00 0.13080980E+04</pdfrwt>
<pdfrwt beam="2">  1       -2 0.21135664E-01 0.13080980E+04</pdfrwt>
<totfact> 0.28375986E+01</totfact>
</mgrwt>
</event>
<event>
 6    1  0.1780144E-005  0.1939310E+04  0.7818608E-02  0.8635533E-01
          1   -1    0    0  501    0  0.00000000000E+00  0.00000000000E+00  0.12373357593E+04  0.12373357593E+04  0.00000000000E+00 0. -1.
         -1   -1    0    0    0  501 -0.00000000000E+00 -0.00000000000E+00 -0.75988323171E+03  0.75988323171E+03  0.00000000000E+00 0.  1.
         23    2    1    2    0    0 -0.10603053790E+03 -0.48084706095E+03 -0.61838071843E+03  0.79584191696E+03  0.92267398742E+02 0.  0.
         11    1    3    3    0    0 -0.11578157202E+03 -0.43631631142E+03 -0.52838257948E+03  0.69495715432E+03  0.00000000000E+00 0.  1.
        -11    1    3    3    0    0  0.97510341163E+01 -0.44530749529E+02 -0.89998138948E+02  0.10088476265E+03  0.00000000000E+00 0. -1.
         22    1    1    2    0    0  0.10603053790E+03  0.48084706095E+03  0.10958332460E+04  0.12013770741E+04  0.00000000000E+00 0. -1.
<mgrwt>
<rscale>  0 0.19393099E+04</rscale>
<asrwt>0</asrwt>
<pdfrwt beam="1">  1        1 0.19035935E+00 0.19393099E+04</pdfrwt>
<pdfrwt beam="2">  1       -1 0.11690511E+00 0.19393099E+04</pdfrwt>
<totfact> 0.61752285E+00</totfact>
</mgrwt>
</event>
<event>
 6    1  0.1780144E-005  0.1528714E+04  0.7818608E-02  0.8865580E-01
          1   -1    0    0  501    0  0.00000000000E+00  0.00000000000E+00  0.17840035123E+04  0.17840035123E+04  0.00000000000E+00 0. -1.
         -1   -1    0    0    0  501 -0.00000000000E+00 -0.00000000000E+00 -0.32748905440E+03  0.32748905440E+03  0.00000000000E+00 0.  1.
         23    2    1    2    0    0 -0.27570906228E+03 -0.59091778193E+03  0.18798133752E+03  0.68517717747E+03  0.94506450845E+02 0.  0.
         11    1    3    3    0    0 -0.20272903090E+03 -0.45842337759E+03  0.18370493454E+03  0.53385256023E+03  0.00000000000E+00 0. -1.
        -11    1    3    3    0    0 -0.72980031373E+02 -0.13249440434E+03  0.42764029797E+01  0.15132461724E+03  0.00000000000E+00 0.  1.
         22    1    1    2    0    0  0.27570906228E+03  0.59091778193E+03  0.12685331204E+04  0.14263153892E+04  0.00000000000E+00 0. -1.
<mgrwt>
<rscale>  0 0.15287140E+04</rscale>
<asrwt>0</asrwt>
<pdfrwt beam="1">  1        1 0.27446207E+00 0.15287140E+04</pdfrwt>
<pdfrwt beam="2">  1       -1 0.50382932E-01 0.15287140E+04</pdfrwt>
<totfact> 0.15950799E+01</totfact>
</mgrwt>
</event>
<event>
 6    1  0.1780144E-005  0.1462641E+04  0.7818608E-02  0.8909683E-01
         -1   -1    0    0    0  501 -0.00000000000E+00  0.00000000000E+00  0.62936315121E+03  0.62936315121E+03  0.00000000000E+00 0.  1.
          1   -1    0    0  501    0  0.00000000000E+00 -0.00000000000E+00 -0.84979554327E+03  0.84979554327E+03  0.00000000000E+00 0. -1.
         23    2    1    2    0    0 -0.23744570386E+03  0.36436886467E+02 -0.80616668649E+03  0.84607673086E+03  0.90735875567E+02 0.  0.
         11    1    3    3    0    0 -0.14032349039E+03 -0.17778791207E+02 -0.37484712862E+03  0.40064590002E+03  0.00000000000E+00 0. -1.
        -11    1    3    3    0    0 -0.97122213471E+02  0.54215677674E+02 -0.43131955787E+03  0.44543083084E+03  0.00000000000E+00 0.  1.
         22    1    1    2    0    0  0.23744570386E+03 -0.36436886467E+02  0.58573429444E+03  0.63308196362E+03  0.00000000000E+00 0.  1.
<mgrwt>
<rscale>  0 0.14626414E+04</rscale>
<asrwt>0</asrwt>
<pdfrwt beam="1">  1        1 0.13073778E+00 0.14626414E+04</pdfrwt>
<pdfrwt beam="2">  1       -1 0.96825100E-01 0.14626414E+04</pdfrwt>
<totfact> 0.19947712E+01</totfact>
</mgrwt>
</event>
<event>
 6    1  0.1780144E-005  0.2497373E+04  0.7818608E-02  0.8403922E-01
         -2   -1    0    0    0  501 -0.00000000000E+00  0.00000000000E+00  0.89870043395E+03  0.89870043395E+03  0.00000000000E+00 0.  1.
          2   -1    0    0  501    0  0.00000000000E+00 -0.00000000000E+00 -0.17349695388E+04  0.17349695388E+04  0.00000000000E+00 0. -1.
         23    2    1    2    0    0  0.24956600185E+03  0.89048832890E+03  0.46382944555E+03  0.10382048700E+04  0.86480890492E+02 0.  0.
         11    1    3    3    0    0  0.16818461600E+03  0.44058546051E+03  0.23102251522E+03  0.52514094833E+03  0.00000000000E+00 0.  1.
        -11    1    3    3    0    0  0.81381385845E+02  0.44990286839E+03  0.23280693032E+03  0.51306392170E+03  0.00000000000E+00 0. -1.
         22    1    1    2    0    0 -0.24956600185E+03 -0.89048832890E+03 -0.13000985504E+04  0.15954651027E+04  0.00000000000E+00 0. -1.
<mgrwt>
<rscale>  0 0.24973729E+04</rscale>
<asrwt>0</asrwt>
<pdfrwt beam="1">  1        2 0.26691839E+00 0.24973729E+04</pdfrwt>
<pdfrwt beam="2">  1       -2 0.13826161E+00 0.24973729E+04</pdfrwt>
<totfact> 0.31039602E+00</totfact>
</mgrwt>
</event>
<event>
 6    1  0.1780144E-005  0.2665528E+04  0.7818608E-02  0.8346277E-01
          1   -1    0    0  501    0  0.00000000000E+00  0.00000000000E+00  0.14482232479E+04  0.14482232479E+04  0.00000000000E+00 0. -1.
         -1   -1    0    0    0  501 -0.00000000000E+00 -0.00000000000E+00 -0.12265092799E+04  0.12265092799E+04  0.00000000000E+00 0.  1.
         23    2    1    2    0    0  0.66529410524E+03 -0.43160698346E+03 -0.96189535361E+03  0.12500108495E+04  0.91562098352E+02 0.  0.
         13    1    3    3    0    0  0.12790949053E+03 -0.45662384941E+02 -0.14257288112E+03  0.19690839900E+03  0.00000000000E+00 0. -1.
        -13    1    3    3    0    0  0.53738461471E+03 -0.38594459852E+03 -0.81932247249E+03  0.10531024505E+04  0.00000000000E+00 0.  1.
         22    1    1    2    0    0 -0.66529410524E+03  0.43160698346E+03  0.11836093216E+04  0.14247216784E+04  0.00000000000E+00 0. -1.
<mgrwt>
<rscale>  0 0.26655275E+04</rscale>
<asrwt>0</asrwt>
<pdfrwt beam="1">  1        1 0.22280358E+00 0.26655275E+04</pdfrwt>
<pdfrwt beam="2">  1       -1 0.18869373E+00 0.26655275E+04</pdfrwt>
<totfact> 0.11234673E+00</totfact>
</mgrwt>
</event>
<event>
 6    1  0.1780144E-005  0.1607279E+04  0.7818608E-02  0.8816088E-01
          1   -1    0    0  501    0  0.00000000000E+00  0.00000000000E+00  0.11057505518E+04  0.11057505518E+04  0.00000000000E+00 0. -1.
         -1   -1    0    0    0  501 -0.00000000000E+00 -0.00000000000E+00 -0.58407089681E+03  0.58407089681E+03  0.00000000000E+00 0.  1.
         23    2    1    2    0    0  0.23377398934E+02  0.12970720617E+03  0.10924020060E+04  0.11040787884E+04  0.90980031229E+02 0.  0.
         13    1    3    3    0    0  0.14126931429E+02  0.81476528336E+02  0.94707704907E+03  0.95068024685E+03  0.00000000000E+00 0.  1.
        -13    1    3    3    0    0  0.92504675047E+01  0.48230677836E+02  0.14532495694E+03  0.15339854153E+03  0.00000000000E+00 0. -1.
         22    1    1    2    0    0 -0.23377398934E+02 -0.12970720617E+03 -0.57072235100E+03  0.58574266026E+03  0.00000000000E+00 0.  1.
<mgrwt>
<rscale>  0 0.16072793E+04</rscale>
<asrwt>0</asrwt>
<pdfrwt beam="1">  1        1 0.17011547E+00 0.16072793E+04</pdfrwt>
<pdfrwt beam="2">  1       -1 0.89857061E-01 0.16072793E+04</pdfrwt>
<totfact> 0.14594433E+01</totfact>
</mgrwt>
</event>
<event>
 6    1  0.1780144E-005  0.1811552E+04  0.7818608E-02  0.8700180E-01
         -2   -1    0    0    0  501 -0.00000000000E+00  0.00000000000E+00  0.12100315074E+04  0.12100315074E+04  0.00000000000E+00 0. -1.
          2   -1    0    0  501    0  0.00000000000E+00 -0.00000000000E+00 -0.67802400271E+03  0.67802400271E+03  0.00000000000E+00 0.  1.
         23    2    1    2    0    0 -0.30617151001E+03 -0.72762009053E+03  0.72481793531E+03  0.10754376099E+04  0.89627137155E+02 0.  0.
         13    1    3    3    0    0 -0.25558328064E+03 -0.67359524690E+03  0.65517541090E+03  0.97381116704E+03  0.00000000000E+00 0.  1.
        -13    1    3    3    0    0 -0.50588229365E+02 -0.54024843628E+02  0.69642524405E+02  0.10162644284E+03  0.00000000000E+00 0. -1.
         22    1    1    2    0    0  0.30617151001E+03  0.72762009053E+03 -0.19281043058E+03  0.81261790026E+03  0.00000000000E+00 0.  1.
<mgrwt>
<rscale>  0 0.18115523E+04</rscale>
<asrwt>0</asrwt>
<pdfrwt beam="1">  1        2 0.10431139E+00 0.18115523E+04</pdfrwt>
<pdfrwt beam="2">  1       -2 0.18615869E+00 0.18115523E+04</pdfrwt>
<totfact> 0.66149218E+00</totfact>
</mgrwt>
</event>
<event>
 6    1  0.1780144E-005  0.2264345E+04  0.7818608E-02  0.8492113E-01
         -1   -1    0    0    0  501 -0.00000000000E+00  0.00000000000E+00  0.13084779324E+04  0.13084779324E+04  0.00000000000E+00 0.  1.
          1   -1    0    0  501    0  0.00000000000E+00 -0.00000000000E+00 -0.97962279979E+03  0.97962279979E+03  0.00000000000E+00 0. -1.
         23    2    1    2    0    0 -0.29938982718E+03  0.10383993574E+04 -0.16870695944E+03  0.10983631437E+04  0.10016018833E+03 0.  0.
         11    1    3    3    0    0 -0.94479886191E+02  0.50819659980E+03 -0.79011894019E+02  0.52290832116E+03  0.00000000000E+00 0.  1.
        -11    1    3    3    0    0 -0.20490994099E+03  0.53020275756E+03 -0.89695065419E+02  0.57545482255E+03  0.00000000000E+00 0. -1.
         22    1    1    2    0    0  0.29938982718E+03 -0.10383993574E+04  0.49756209204E+03  0.11897375885E+04  0.00000000000E+00 0. -1.
<mgrwt>
<rscale>  0 0.22643452E+04</rscale>
<asrwt>0</asrwt>
<pdfrwt beam="1">  1        1 0.15071120E+00 0.22643452E+04</pdfrwt>
<pdfrwt beam="2">  1       -1 0.20130430E+00 0.22643452E+04</pdfrwt>
<totfact> 0.20983452E+00</totfact>
</mgrwt>
</event>
<event>
 6    1  0.1780144E-005  0.1116393E+04  0.7818608E-02  0.9189360E-01
         -2   -1    0    0    0  501 -0.00000000000E+00  0.00000000000E+00  0.25803837647E+03  0.25803837647E+03  0.00000000000E+00 0.  1.
          2   -1    0    0  501    0  0.00000000000E+00 -0.00000000000E+00 -0.12075077549E+04  0.12075077549E+04  0.00000000000E+00 0. -1.
         23    2    1    2    0    0 -0.45269557077E+03  0.12701760906E+03 -0.86365680788E+03  0.98760204458E+03  0.91585827761E+02 0.  0.
         11    1    3    3    0    0 -0.21580424330E+02  0.25081486606E+02 -0.92735406034E+02  0.98461419942E+02  0.00000000000E+00 0. -1.
        -11    1    3    3    0    0 -0.43111514644E+03  0.10193612246E+03 -0.77092140185E+03  0.88914062464E+03  0.00000000000E+00 0.  1.
         22    1    1    2    0    0  0.45269557077E+03 -0.12701760906E+03 -0.85812570503E+02  0.47794408675E+03  0.00000000000E+00 0. -1.
<mgrwt>
<rscale>  0 0.11163930E+04</rscale>
<asrwt>0</asrwt>
<pdfrwt beam="1">  1        2 0.18577042E+00 0.11163930E+04</pdfrwt>
<pdfrwt beam="2">  1       -2 0.39698212E-01 0.11163930E+04</pdfrwt>
<totfact> 0.11152751E+02</totfact>
</mgrwt>
</event>
<event>
 6    1  0.1780144E-005  0.2469653E+04  0.7818608E-02  0.8413877E-01
         -2   -1    0    0    0  501 -0.00000000000E+00  0.00000000000E+00  0.70480902093E+03  0.70480902093E+03  0.00000000000E+00 0. -1.
          2   -1    0    0  501    0  0.00000000000E+00 -0.00000000000E+00 -0.21634175136E+04  0.21634175136E+04  0.00000000000E+00 0.  1.
         23    2    1    2    0    0  0.39013894509E+03 -0.37192612543E+03 -0.20173888804E+04  0.20918419899E+04  0.12412726036E+03 0.  0.
         13    1    3    3    0    0  0.15871355295E+03 -0.16936344539E+03 -0.11016589914E+04  0.11258447947E+04  0.00000000000E+00 0.  1.
        -13    1    3    3    0    0  0.23142539214E+03 -0.20256268004E+03 -0.91572988904E+03  0.96599719521E+03  0.00000000000E+00 0. -1.
         22    1    1    2    0    0 -0.39013894509E+03  0.37192612543E+03  0.55878038778E+03  0.77638454456E+03  0.00000000000E+00 0. -1.
<mgrwt>
<rscale>  0 0.24696528E+04</rscale>
<asrwt>0</asrwt>
<pdfrwt beam="1">  1        2 0.33283346E+00 0.24696528E+04</pdfrwt>
<pdfrwt beam="2">  1       -2 0.10843216E+00 0.24696528E+04</pdfrwt>
<totfact> 0.32926896E+00</totfact>
</mgrwt>
</event>
<event>
 6    1  0.1780144E-005  0.2703677E+04  0.7818608E-02  0.8333813E-01
         -1   -1    0    0    0  501 -0.00000000000E+00  0.00000000000E+00  0.10204653708E+04  0.10204653708E+04  0.00000000000E+00 0.  1.
          1   -1    0    0  501    0  0.00000000000E+00 -0.00000000000E+00 -0.17908173348E+04  0.17908173348E+04  0.00000000000E+00 0. -1.
         23    2    1    2    0    0 -0.25332226439E+03  0.65162566874E+03 -0.15868488382E+04  0.17363616260E+04  0.89856994120E+02 0.  0.
         11    1    3    3    0    0 -0.73160655330E+02  0.30394036688E+03 -0.74229627341E+03  0.80544148492E+03  0.00000000000E+00 0.  1.
        -11    1    3    3    0    0 -0.18016160906E+03  0.34768530186E+03 -0.84455256476E+03  0.93092014112E+03  0.00000000000E+00 0. -1.
         22    1    1    2    0    0  0.25332226439E+03 -0.65162566874E+03  0.81649687411E+03  0.10749210795E+04  0.00000000000E+00 0.  1.
<mgrwt>
<rscale>  0 0.27036768E+04</rscale>
<asrwt>0</asrwt>
<pdfrwt beam="1">  1        1 0.27551036E+00 0.27036768E+04</pdfrwt>
<pdfrwt beam="2">  1       -1 0.15699467E+00 0.27036768E+04</pdfrwt>
<totfact> 0.11113732E+00</totfact>
</mgrwt>
</event>
<event>
 6    1  0.1780144E-005  0.2801831E+04  0.7818608E-02  0.8302700E-01
         -3   -1    0    0    0  501 -0.00000000000E+00  0.00000000000E+00  0.16601703186E+04  0.16601703186E+04  0.00000000000E+00 0.  1.
          3   -1    0    0  501    0  0.00000000000E+00 -0.00000000000E+00 -0.11821462283E+04  0.11821462283E+04  0.00000000000E+00 0. -1.
         23    2    1    2    0    0 -0.75131456447E+03  0.63674019452E+02  0.14352407533E+04  0.16237962577E+04  0.90941250765E+02 0.  0.
         11    1    3    3    0    0 -0.44078069595E+03  0.35284799467E+02  0.93558826243E+03  0.10348227074E+04  0.00000000000E+00 0. -1.
        -11    1    3    3    0    0 -0.31053386853E+03  0.28389219985E+02  0.49965249084E+03  0.58897355027E+03  0.00000000000E+00 0.  1.
         22    1    1    2    0    0  0.75131456447E+03 -0.63674019452E+02 -0.95721666291E+03  0.12185202892E+04  0.00000000000E+00 0. -1.
<mgrwt>
<rscale>  0 0.28018309E+04</rscale>
<asrwt>0</asrwt>
<pdfrwt beam="1">  1        3 0.18186865E+00 0.28018309E+04</pdfrwt>
<pdfrwt beam="2">  1       -3 0.25541082E+00 0.28018309E+04</pdfrwt>
<totfact> 0.29672195E-02</totfact>
</mgrwt>
</event>
<event>
 6    1  0.1780144E-005  0.1566365E+04  0.7818608E-02  0.8841482E-01
          2   -1    0    0  501    0  0.00000000000E+00  0.00000000000E+00  0.18411509997E+04  0.18411509997E+04  0.00000000000E+00 0. -1.
         -2   -1    0    0    0  501 -0.00000000000E+00 -0.00000000000E+00 -0.33314734462E+03  0.33314734462E+03  0.00000000000E+00 0.  1.
         23    2    1    2    0    0  0.72258582895E+02 -0.20287339536E+03  0.17979223009E+04  0.18131449994E+04  0.92689112372E+02 0.  0.
         11    1    3    3    0    0  0.54189803078E+02 -0.38328387856E+02  0.64368797228E+03  0.64710107845E+03  0.00000000000E+00 0. -1.
        -11    1    3    3    0    0  0.18068779816E+02 -0.16454500751E+03  0.11542343286E+04  0.11660439210E+04  0.00000000000E+00 0.  1.
         22    1    1    2    0    0 -0.72258582895E+02  0.20287339536E+03 -0.28991864581E+03  0.36115334490E+03  0.00000000000E+00 0.  1.
<mgrwt>
<rscale>  0 0.15663647E+04</rscale>
<asrwt>0</asrwt>
<pdfrwt beam="1">  1        2 0.28325399E+00 0.15663647E+04</pdfrwt>
<pdfrwt beam="2">  1       -2 0.51253439E-01 0.15663647E+04</pdfrwt>
<totfact> 0.28311204E+01</totfact>
</mgrwt>
</event>
<event>
 6    1  0.1780144E-005  0.4732237E+04  0.7818608E-02  0.7871194E-01
          1   -1    0    0  501    0  0.00000000000E+00  0.00000000000E+00  0.21381147256E+04  0.21381147256E+04  0.00000000000E+00 0. -1.
         -1   -1    0    0    0  501 -0.00000000000E+00 -0.00000000000E+00 -0.26184360897E+04  0.26184360897E+04  0.00000000000E+00 0.  1.
         23    2    1    2    0    0  0.17867592118E+04 -0.14938851852E+04 -0.65485755031E+03  0.24210285380E+04  0.91320002117E+02 0.  0.
         13    1    3    3    0    0  0.14449907107E+04 -0.12495609542E+04 -0.52128524099E+03  0.19801866161E+04  0.00000000000E+00 0.  1.
        -13    1    3    3    0    0  0.34176850110E+03 -0.24432423106E+03 -0.13357230932E+03  0.44084192183E+03  0.00000000000E+00 0. -1.
         22    1    1    2    0    0 -0.17867592118E+04  0.14938851852E+04  0.17453618629E+03  0.23355222773E+04  0.00000000000E+00 0.  1.
<mgrwt>
<rscale>  0 0.47322370E+04</rscale>
<asrwt>0</asrwt>
<pdfrwt beam="1">  1        1 0.32894073E+00 0.47322370E+04</pdfrwt>
<pdfrwt beam="2">  1       -1 0.40283632E+00 0.47322370E+04</pdfrwt>
<totfact> 0.12113307E-02</totfact>
</mgrwt>
</event>
<event>
 6    1  0.1780144E-005  0.5391594E+04  0.7818608E-02  0.7770784E-01
         -2   -1    0    0    0  501 -0.00000000000E+00  0.00000000000E+00  0.26723904976E+04  0.26723904976E+04  0.00000000000E+00 0.  1.
          2   -1    0    0  501    0  0.00000000000E+00 -0.00000000000E+00 -0.27194086879E+04  0.27194086879E+04  0.00000000000E+00 0. -1.
         23    2    1    2    0    0 -0.13746711567E+04 -0.57554986501E+03 -0.22690940846E+04  0.27162432217E+04  0.90613676306E+02 0.  0.
         13    1    3    3    0    0 -0.10102282776E+04 -0.37966176365E+03 -0.16275880708E+04  0.19528817568E+04  0.00000000000E+00 0. -1.
        -13    1    3    3    0    0 -0.36444287905E+03 -0.19588810137E+03 -0.64150601374E+03  0.76336146485E+03  0.00000000000E+00 0.  1.
         22    1    1    2    0    0  0.13746711567E+04  0.57554986501E+03  0.22220758943E+04  0.26755559639E+04  0.00000000000E+00 0.  1.
<mgrwt>
<rscale>  0 0.53915942E+04</rscale>
<asrwt>0</asrwt>
<pdfrwt beam="1">  1        2 0.41837057E+00 0.53915942E+04</pdfrwt>
<pdfrwt beam="2">  1       -2 0.41113700E+00 0.53915942E+04</pdfrwt>
<totfact> 0.11462591E-02</totfact>
</mgrwt>
</event>
<event>
 6    1  0.1780144E-005  0.2433433E+04  0.7818608E-02  0.8427092E-01
          1   -1    0    0  501    0  0.00000000000E+00  0.00000000000E+00  0.15956656558E+04  0.15956656558E+04  0.00000000000E+00 0. -1.
         -1   -1    0    0    0  501 -0.00000000000E+00 -0.00000000000E+00 -0.92776269883E+03  0.92776269883E+03  0.00000000000E+00 0.  1.
         23    2    1    2    0    0  0.66031208694E+03 -0.98105811793E+03  0.44962028575E+02  0.11868122979E+04  0.89525211237E+02 0.  0.
         13    1    3    3    0    0  0.15664337175E+03 -0.18020969894E+03 -0.11621792159E+02  0.23905595068E+03  0.00000000000E+00 0. -1.
        -13    1    3    3    0    0  0.50366871519E+03 -0.80084841899E+03  0.56583820734E+02  0.94775634719E+03  0.00000000000E+00 0.  1.
         22    1    1    2    0    0 -0.66031208694E+03  0.98105811793E+03  0.62294092839E+03  0.13366160568E+04  0.00000000000E+00 0.  1.
<mgrwt>
<rscale>  0 0.24334330E+04</rscale>
<asrwt>0</asrwt>
<pdfrwt beam="1">  1        1 0.24548702E+00 0.24334330E+04</pdfrwt>
<pdfrwt beam="2">  1       -1 0.14273272E+00 0.24334330E+04</pdfrwt>
<totfact> 0.20000196E+00</totfact>
</mgrwt>
</event>
<event>
 6    1  0.1780144E-005  0.1257124E+04  0.7818608E-02  0.9064275E-01
         -1   -1    0    0    0  501 -0.00000000000E+00  0.00000000000E+00  0.16730497162E+04  0.16730497162E+04  0.00000000000E+00 0.  1.
          1   -1    0    0  501    0  0.00000000000E+00 -0.00000000000E+00 -0.23614968734E+03  0.23614968734E+03  0.00000000000E+00 0. -1.
         23    2    1    2    0    0 -0.24363279889E+03  0.34037239995E+03  0.14275924017E+04  0.14905146256E+04  0.91670455861E+02 0.  0.
         13    1    3    3    0    0 -0.68276028133E+02  0.64460211397E+02  0.21468304222E+03  0.23431931950E+03  0.00000000000E+00 0.  1.
        -13    1    3    3    0    0 -0.17535677075E+03  0.27591218856E+03  0.12129093595E+04  0.12561953061E+04  0.00000000000E+00 0. -1.
         22    1    1    2    0    0  0.24363279889E+03 -0.34037239995E+03  0.93076271683E+01  0.41868477793E+03  0.00000000000E+00 0.  1.
<mgrwt>
<rscale>  0 0.12571240E+04</rscale>
<asrwt>0</asrwt>
<pdfrwt beam="1">  1        1 0.36330722E-01 0.12571240E+04</pdfrwt>
<pdfrwt beam="2">  1       -1 0.25739226E+00 0.12571240E+04</pdfrwt>
<totfact> 0.73834717E+00</totfact>
</mgrwt>
</event>
<event>
 6    1  0.1780144E-005  0.2757277E+04  0.7818608E-02  0.8316656E-01
          2   -1    0    0  501    0  0.00000000000E+00  0.00000000000E+00  0.18378345937E+04  0.18378345937E+04  0.00000000000E+00 0. -1.
         -2   -1    0    0    0  501 -0.00000000000E+00 -0.00000000000E+00 -0.10341761651E+04  0.10341761651E+04  0.00000000000E+00 0.  1.
         23    2    1    2    0    0 -0.26257824023E+03 -0.63113774367E+03  0.16475755586E+04  0.17859728652E+04  0.88947570443E+02 0.  0.
         13    1    3    3    0    0 -0.17829027257E+02 -0.89300087271E+02  0.16199280130E+03  0.18583338632E+03  0.00000000000E+00 0.  1.
        -13    1    3    3    0    0 -0.24474921298E+03 -0.54183765640E+03  0.14855827573E+04  0.16001394789E+04  0.00000000000E+00 0. -1.
         22    1    1    2    0    0  0.26257824023E+03  0.63113774367E+03 -0.84391713002E+03  0.10860378935E+04  0.00000000000E+00 0.  1.
<mgrwt>
<rscale>  0 0.27572774E+04</rscale>
<asrwt>0</asrwt>
<pdfrwt beam="1">  1        2 0.28274378E+00 0.27572774E+04</pdfrwt>
<pdfrwt beam="2">  1       -2 0.15910403E+00 0.27572774E+04</pdfrwt>
<totfact> 0.18364330E+00</totfact>
</mgrwt>
</event>
<event>
 6    1  0.1780144E-005  0.2097650E+04  0.7818608E-02  0.8562279E-01
         -2   -1    0    0    0  501 -0.00000000000E+00  0.00000000000E+00  0.68883005518E+03  0.68883005518E+03  0.00000000000E+00 0.  1.
          2   -1    0    0  501    0  0.00000000000E+00 -0.00000000000E+00 -0.15969593091E+04  0.15969593091E+04  0.00000000000E+00 0. -1.
         23    2    1    2    0    0 -0.33141061500E+03 -0.71617971096E+03 -0.12040344142E+04  0.14429926877E+04  0.98907290349E+02 0.  0.
         11    1    3    3    0    0 -0.16734226918E+03 -0.27460859694E+03 -0.43121203707E+03  0.53791926669E+03  0.00000000000E+00 0.  1.
        -11    1    3    3    0    0 -0.16406834582E+03 -0.44157111402E+03 -0.77282237713E+03  0.90507342101E+03  0.00000000000E+00 0. -1.
         22    1    1    2    0    0  0.33141061500E+03  0.71617971096E+03  0.29590516030E+03  0.84279667656E+03  0.00000000000E+00 0.  1.
<mgrwt>
<rscale>  0 0.20976497E+04</rscale>
<asrwt>0</asrwt>
<pdfrwt beam="1">  1        2 0.24568605E+00 0.20976497E+04</pdfrwt>
<pdfrwt beam="2">  1       -2 0.10597385E+00 0.20976497E+04</pdfrwt>
<totfact> 0.74198020E+00</totfact>
</mgrwt>
</event>
<event>
 6    1  0.1780144E-005  0.2148040E+04  0.7818608E-02  0.8540372E-01
         -2   -1    0    0    0  501 -0.00000000000E+00  0.00000000000E+00  0.66604858262E+03  0.66604858262E+03  0.00000000000E+00 0.  1.
          2   -1    0    0  501    0  0.00000000000E+00 -0.00000000000E+00 -0.17318846166E+04  0.17318846166E+04  0.00000000000E+00 0. -1.
         23    2    1    2    0    0  0.90346482171E+03 -0.57732736428E+03 -0.53879723898E+03  0.12032259292E+04  0.88851574978E+02 0.  0.
         13    1    3    3    0    0  0.72316814959E+03 -0.45707980655E+03 -0.38912112463E+03  0.93984539780E+03  0.00000000000E+00 0.  1.
        -13    1    3    3    0    0  0.18029667212E+03 -0.12024755773E+03 -0.14967611435E+03  0.26338053141E+03  0.00000000000E+00 0. -1.
         22    1    1    2    0    0 -0.90346482171E+03  0.57732736428E+03 -0.52703879501E+03  0.11947072700E+04  0.00000000000E+00 0.  1.
<mgrwt>
<rscale>  0 0.21480403E+04</rscale>
<asrwt>0</asrwt>
<pdfrwt beam="1">  1        2 0.26644379E+00 0.21480403E+04</pdfrwt>
<pdfrwt beam="2">  1       -2 0.10246901E+00 0.21480403E+04</pdfrwt>
<totfact> 0.67353374E+00</totfact>
</mgrwt>
</event>
<event>
 6    1  0.1780144E-005  0.3911262E+04  0.7818608E-02  0.8022691E-01
         -2   -1    0    0    0  501 -0.00000000000E+00  0.00000000000E+00  0.18815755675E+04  0.18815755675E+04  0.00000000000E+00 0.  1.
          2   -1    0    0  501    0  0.00000000000E+00 -0.00000000000E+00 -0.20326012037E+04  0.20326012037E+04  0.00000000000E+00 0. -1.
         23    2    1    2    0    0  0.25498803040E+03  0.15603688021E+04 -0.12256064602E+04  0.20025037758E+04  0.90224623434E+02 0.  0.
         11    1    3    3    0    0  0.17282307702E+03  0.78428201087E+03 -0.63371235741E+03  0.10230139004E+04  0.00000000000E+00 0.  1.
        -11    1    3    3    0    0  0.82164953378E+02  0.77608679125E+03 -0.59189410278E+03  0.97948987541E+03  0.00000000000E+00 0. -1.
         22    1    1    2    0    0 -0.25498803040E+03 -0.15603688021E+04  0.10745808240E+04  0.19116729955E+04  0.00000000000E+00 0.  1.
<mgrwt>
<rscale>  0 0.39112621E+04</rscale>
<asrwt>0</asrwt>
<pdfrwt beam="1">  1        2 0.31270788E+00 0.39112621E+04</pdfrwt>
<pdfrwt beam="2">  1       -2 0.28947317E+00 0.39112621E+04</pdfrwt>
<totfact> 0.18767900E-01</totfact>
</mgrwt>
</event>
<event>
 6    1  0.1780144E-005  0.9501732E+03  0.7818608E-02  0.9364948E-01
          2   -1    0    0  501    0  0.00000000000E+00  0.00000000000E+00  0.16076208594E+04  0.16076208594E+04  0.00000000000E+00 0. -1.
         -2   -1    0    0    0  501 -0.00000000000E+00 -0.00000000000E+00 -0.14039831561E+03  0.14039831561E+03  0.00000000000E+00 0.  1.
         23    2    1    2    0    0  0.16826191282E+03 -0.15349718519E+03  0.14982983629E+04  0.15181514658E+04  0.89512187519E+02 0.  0.
         11    1    3    3    0    0  0.63520923539E+02 -0.18723180115E+02  0.26757413764E+03  0.27564720992E+03  0.00000000000E+00 0.  1.
        -11    1    3    3    0    0  0.10474098928E+03 -0.13477400508E+03  0.12307242253E+04  0.12425042559E+04  0.00000000000E+00 0. -1.
         22    1    1    2    0    0 -0.16826191282E+03  0.15349718519E+03 -0.31075819166E+02  0.22986770914E+03  0.00000000000E+00 0.  1.
<mgrwt>
<rscale>  0 0.95017316E+03</rscale>
<asrwt>0</asrwt>
<pdfrwt beam="1">  1        2 0.24732627E+00 0.95017316E+03</pdfrwt>
<pdfrwt beam="2">  1       -2 0.21599742E-01 0.95017316E+03</pdfrwt>
<totfact> 0.20619803E+02</totfact>
</mgrwt>
</event>
<event>
 6    1  0.1780144E-005  0.1817009E+04  0.7818608E-02  0.8697306E-01
         -2   -1    0    0    0  501 -0.00000000000E+00  0.00000000000E+00  0.63324384327E+03  0.63324384327E+03  0.00000000000E+00 0.  1.
          2   -1    0    0  501    0  0.00000000000E+00 -0.00000000000E+00 -0.13034167101E+04  0.13034167101E+04  0.00000000000E+00 0. -1.
         23    2    1    2    0    0  0.42540799087E+03  0.19913564902E+03 -0.11618967568E+04  0.12566463260E+04  0.92352313569E+02 0.  0.
         11    1    3    3    0    0  0.40771079085E+03  0.20826381974E+03 -0.10951977693E+04  0.11870383572E+04  0.00000000000E+00 0. -1.
        -11    1    3    3    0    0  0.17697200022E+02 -0.91281707175E+01 -0.66698987478E+02  0.69607968796E+02  0.00000000000E+00 0.  1.
         22    1    1    2    0    0 -0.42540799087E+03 -0.19913564902E+03  0.49172388999E+03  0.68001422734E+03  0.00000000000E+00 0.  1.
<mgrwt>
<rscale>  0 0.18170092E+04</rscale>
<asrwt>0</asrwt>
<pdfrwt beam="1">  1        2 0.20052565E+00 0.18170092E+04</pdfrwt>
<pdfrwt beam="2">  1       -2 0.97422130E-01 0.18170092E+04</pdfrwt>
<totfact> 0.13632045E+01</totfact>
</mgrwt>
</event>
<event>
 6    1  0.1780144E-005  0.1828367E+04  0.7818608E-02  0.8691358E-01
          1   -1    0    0  501    0  0.00000000000E+00  0.00000000000E+00  0.59793956451E+03  0.59793956451E+03  0.00000000000E+00 0. -1.
         -1   -1    0    0    0  501 -0.00000000000E+00 -0.00000000000E+00 -0.13976856371E+04  0.13976856371E+04  0.00000000000E+00 0.  1.
         23    2    1    2    0    0 -0.28900344771E+03 -0.82774017379E+03 -0.67459610637E+03  0.11099958761E+04  0.91291566812E+02 0.  0.
         13    1    3    3    0    0 -0.20377605832E+03 -0.44739440883E+03 -0.36845312368E+03  0.61436482920E+03  0.00000000000E+00 0.  1.
        -13    1    3    3    0    0 -0.85227389382E+02 -0.38034576496E+03 -0.30614298269E+03  0.49563104692E+03  0.00000000000E+00 0. -1.
         22    1    1    2    0    0  0.28900344771E+03  0.82774017379E+03 -0.12514996621E+03  0.88562932548E+03  0.00000000000E+00 0. -1.
<mgrwt>
<rscale>  0 0.18283671E+04</rscale>
<asrwt>0</asrwt>
<pdfrwt beam="1">  1        1 0.91990704E-01 0.18283671E+04</pdfrwt>
<pdfrwt beam="2">  1       -1 0.21502856E+00 0.18283671E+04</pdfrwt>
<totfact> 0.38504225E+00</totfact>
</mgrwt>
</event>
<event>
 6    1  0.1780144E-005  0.7145937E+03  0.7818608E-02  0.9692595E-01
         -2   -1    0    0    0  501 -0.00000000000E+00  0.00000000000E+00  0.56934242973E+02  0.56934242973E+02  0.00000000000E+00 0.  1.
          2   -1    0    0  501    0  0.00000000000E+00 -0.00000000000E+00 -0.22422540083E+04  0.22422540083E+04  0.00000000000E+00 0. -1.
         23    2    1    2    0    0 -0.30063492019E+03  0.72955734393E+02 -0.16490657799E+04  0.16800984102E+04  0.87228591306E+02 0.  0.
         13    1    3    3    0    0 -0.59365550225E+02  0.46653648416E+02 -0.50123634331E+03  0.50689121448E+03  0.00000000000E+00 0. -1.
        -13    1    3    3    0    0 -0.24126936997E+03  0.26302085977E+02 -0.11478294366E+04  0.11732071957E+04  0.00000000000E+00 0.  1.
         22    1    1    2    0    0  0.30063492019E+03 -0.72955734393E+02 -0.53625398545E+03  0.61908984108E+03  0.00000000000E+00 0. -1.
<mgrwt>
<rscale>  0 0.71459369E+03</rscale>
<asrwt>0</asrwt>
<pdfrwt beam="1">  1        2 0.34496212E+00 0.71459369E+03</pdfrwt>
<pdfrwt beam="2">  1       -2 0.87591152E-02 0.71459369E+03</pdfrwt>
<totfact> 0.42957179E+02</totfact>
</mgrwt>
</event>
<event>
 6    1  0.1780144E-005  0.2444104E+04  0.7818608E-02  0.8423174E-01
          2   -1    0    0  501    0  0.00000000000E+00  0.00000000000E+00  0.10287042890E+04  0.10287042890E+04  0.00000000000E+00 0. -1.
         -2   -1    0    0    0  501 -0.00000000000E+00 -0.00000000000E+00 -0.14517395441E+04  0.14517395441E+04  0.00000000000E+00 0.  1.
         23    2    1    2    0    0 -0.38864470821E+03 -0.11500742839E+04 -0.90628356589E+02  0.12217898243E+04  0.10412160219E+03 0.  0.
         11    1    3    3    0    0 -0.15050232102E+03 -0.60046624226E+03 -0.30396314022E+02  0.61978592484E+03  0.00000000000E+00 0. -1.
        -11    1    3    3    0    0 -0.23814238720E+03 -0.54960804162E+03 -0.60232042567E+02  0.60200389945E+03  0.00000000000E+00 0.  1.
         22    1    1    2    0    0  0.38864470821E+03  0.11500742839E+04 -0.33240689860E+03  0.12586540088E+04  0.00000000000E+00 0.  1.
<mgrwt>
<rscale>  0 0.24441037E+04</rscale>
<asrwt>0</asrwt>
<pdfrwt beam="1">  1        2 0.15826220E+00 0.24441037E+04</pdfrwt>
<pdfrwt beam="2">  1       -2 0.22334454E+00 0.24441037E+04</pdfrwt>
<totfact> 0.20362726E+00</totfact>
</mgrwt>
</event>
<event>
 6    1  0.1780144E-005  0.1111624E+04  0.7818608E-02  0.9193935E-01
          3   -1    0    0  501    0  0.00000000000E+00  0.00000000000E+00  0.55719039326E+03  0.55719039326E+03  0.00000000000E+00 0. -1.
         -3   -1    0    0    0  501 -0.00000000000E+00 -0.00000000000E+00 -0.55443739455E+03  0.55443739455E+03  0.00000000000E+00 0.  1.
         23    2    1    2    0    0 -0.26175133033E+03 -0.42939975388E+03 -0.22670642625E+03  0.55886243499E+03  0.89629849827E+02 0.  0.
         11    1    3    3    0    0 -0.84537131303E+01 -0.18743426975E+02 -0.33120137576E+02  0.38983648284E+02  0.00000000000E+00 0.  1.
        -11    1    3    3    0    0 -0.25329761720E+03 -0.41065632691E+03 -0.19358628867E+03  0.51987878671E+03  0.00000000000E+00 0. -1.
         22    1    1    2    0    0  0.26175133033E+03  0.42939975388E+03  0.22945942496E+03  0.55276535281E+03  0.00000000000E+00 0. -1.
<mgrwt>
<rscale>  0 0.11116244E+04</rscale>
<asrwt>0</asrwt>
<pdfrwt beam="1">  1        3 0.85721600E-01 0.11116244E+04</pdfrwt>
<pdfrwt beam="2">  1       -3 0.85298060E-01 0.11116244E+04</pdfrwt>
<totfact> 0.40813400E+00</totfact>
</mgrwt>
</event>
<event>
 6    1  0.1780144E-005  0.2479911E+04  0.7818608E-02  0.8410177E-01
          2   -1    0    0  501    0  0.00000000000E+00  0.00000000000E+00  0.17218098129E+04  0.17218098129E+04  0.00000000000E+00 0. -1.
         -2   -1    0    0    0  501 -0.00000000000E+00 -0.00000000000E+00 -0.89294984464E+03  0.89294984464E+03  0.00000000000E+00 0.  1.
         23    2    1    2    0    0 -0.65833362714E+03 -0.59950138464E+03 -0.49228737324E+03  0.10215756215E+04  0.92004444195E+02 0.  0.
         11    1    3    3    0    0 -0.36392413313E+03 -0.30355680828E+03 -0.21477213944E+03  0.52030239516E+03  0.00000000000E+00 0.  1.
        -11    1    3    3    0    0 -0.29440949401E+03 -0.29594457636E+03 -0.27751523380E+03  0.50127322633E+03  0.00000000000E+00 0. -1.
         22    1    1    2    0    0  0.65833362714E+03  0.59950138464E+03  0.13211473415E+04  0.15931840360E+04  0.00000000000E+00 0. -1.
<mgrwt>
<rscale>  0 0.24799111E+04</rscale>
<asrwt>0</asrwt>
<pdfrwt beam="1">  1        2 0.26489382E+00 0.24799111E+04</pdfrwt>
<pdfrwt beam="2">  1       -2 0.13737690E+00 0.24799111E+04</pdfrwt>
<totfact> 0.32142291E+00</totfact>
</mgrwt>
</event>
<event>
 6    1  0.1780144E-005  0.1233856E+04  0.7818608E-02  0.9083728E-01
         -2   -1    0    0    0  501 -0.00000000000E+00  0.00000000000E+00  0.58518660338E+03  0.58518660338E+03  0.00000000000E+00 0.  1.
          2   -1    0    0  501    0  0.00000000000E+00 -0.00000000000E+00 -0.65039083845E+03  0.65039083845E+03  0.00000000000E+00 0. -1.
         23    2    1    2    0    0 -0.20275170895E+03 -0.51590813113E+03  0.23081395001E+03  0.60716975478E+03  0.90058738355E+02 0.  0.
         11    1    3    3    0    0 -0.55401958189E+02 -0.91060373927E+02  0.78582092477E+02  0.13242550332E+03  0.00000000000E+00 0.  1.
        -11    1    3    3    0    0 -0.14734975076E+03 -0.42484775721E+03  0.15223185753E+03  0.47474425146E+03  0.00000000000E+00 0. -1.
         22    1    1    2    0    0  0.20275170895E+03  0.51590813113E+03 -0.29601818508E+03  0.62840768705E+03  0.00000000000E+00 0. -1.
<mgrwt>
<rscale>  0 0.12338558E+04</rscale>
<asrwt>0</asrwt>
<pdfrwt beam="1">  1        2 0.10006013E+00 0.12338558E+04</pdfrwt>
<pdfrwt beam="2">  1       -2 0.90028709E-01 0.12338558E+04</pdfrwt>
<totfact> 0.46733347E+01</totfact>
</mgrwt>
</event>
<event>
 6    1  0.1780144E-005  0.8939733E+03  0.7818608E-02  0.9433147E-01
          1   -1    0    0  501    0  0.00000000000E+00  0.00000000000E+00  0.80330133507E+03  0.80330133507E+03  0.00000000000E+00 0. -1.
         -1   -1    0    0    0  501 -0.00000000000E+00 -0.00000000000E+00 -0.24871994384E+03  0.24871994384E+03  0.00000000000E+00 0.  1.
         23    2    1    2    0    0  0.13044176368E+03 -0.17965386138E+03  0.73005781625E+03  0.76903269370E+03  0.95584022228E+02 0.  0.
         11    1    3    3    0    0  0.85261512690E+02 -0.39722020336E+02  0.25855273661E+03  0.27513066360E+03  0.00000000000E+00 0. -1.
        -11    1    3    3    0    0  0.45180250990E+02 -0.13993184104E+03  0.47150507964E+03  0.49390203010E+03  0.00000000000E+00 0.  1.
         22    1    1    2    0    0 -0.13044176368E+03  0.17965386138E+03 -0.17547642501E+03  0.28298858520E+03  0.00000000000E+00 0.  1.
<mgrwt>
<rscale>  0 0.89397329E+03</rscale>
<asrwt>0</asrwt>
<pdfrwt beam="1">  1        1 0.12358482E+00 0.89397329E+03</pdfrwt>
<pdfrwt beam="2">  1       -1 0.38264607E-01 0.89397329E+03</pdfrwt>
<totfact> 0.14606111E+02</totfact>
</mgrwt>
</event>
<event>
 6    1  0.1780144E-005  0.3606875E+04  0.7818608E-02  0.8088919E-01
          2   -1    0    0  501    0  0.00000000000E+00  0.00000000000E+00  0.14821832072E+04  0.14821832072E+04  0.00000000000E+00 0.  1.
         -2   -1    0    0    0  501 -0.00000000000E+00 -0.00000000000E+00 -0.21943215333E+04  0.21943215333E+04  0.00000000000E+00 0. -1.
         23    2    1    2    0    0 -0.30843144152E+03  0.57836351371E+03 -0.20675473283E+04  0.21709258248E+04  0.92372473500E+02 0.  0.
         13    1    3    3    0    0 -0.93490085829E+02  0.10828163803E+03 -0.38223689301E+03  0.40813031210E+03  0.00000000000E+00 0.  1.
        -13    1    3    3    0    0 -0.21494135569E+03  0.47008187568E+03 -0.16853104353E+04  0.17627955127E+04  0.00000000000E+00 0. -1.
         22    1    1    2    0    0  0.30843144152E+03 -0.57836351371E+03  0.13554090022E+04  0.15055789157E+04  0.00000000000E+00 0.  1.
<mgrwt>
<rscale>  0 0.36068748E+04</rscale>
<asrwt>0</asrwt>
<pdfrwt beam="1">  1        2 0.22802819E+00 0.36068748E+04</pdfrwt>
<pdfrwt beam="2">  1       -2 0.33758793E+00 0.36068748E+04</pdfrwt>
<totfact> 0.19695618E-01</totfact>
</mgrwt>
</event>
<event>
 6    1  0.1780144E-005  0.3450285E+04  0.7818608E-02  0.8125674E-01
         -2   -1    0    0    0  501 -0.00000000000E+00  0.00000000000E+00  0.31408423006E+04  0.31408423006E+04  0.00000000000E+00 0.  1.
          2   -1    0    0  501    0  0.00000000000E+00 -0.00000000000E+00 -0.94755374202E+03  0.94755374202E+03  0.00000000000E+00 0. -1.
         23    2    1    2    0    0  0.55186987924E+03 -0.35579836293E+03  0.29861865975E+04  0.30589106669E+04  0.92039310437E+02 0.  0.
         13    1    3    3    0    0  0.42307604817E+03 -0.25853737930E+03  0.24143276097E+04  0.24647135180E+04  0.00000000000E+00 0.  1.
        -13    1    3    3    0    0  0.12879383107E+03 -0.97260983628E+02  0.57185898775E+03  0.59419714887E+03  0.00000000000E+00 0. -1.
         22    1    1    2    0    0 -0.55186987924E+03  0.35579836293E+03 -0.79289803889E+03  0.10294853757E+04  0.00000000000E+00 0. -1.
<mgrwt>
<rscale>  0 0.34502851E+04</rscale>
<asrwt>0</asrwt>
<pdfrwt beam="1">  1        2 0.14577750E+00 0.34502851E+04</pdfrwt>
<pdfrwt beam="2">  1       -2 0.48320650E+00 0.34502851E+04</pdfrwt>
<totfact> 0.47284686E-02</totfact>
</mgrwt>
</event>
<event>
 6    1  0.1780144E-005  0.2146363E+04  0.7818608E-02  0.8541091E-01
          2   -1    0    0  501    0  0.00000000000E+00  0.00000000000E+00  0.79737118078E+03  0.79737118078E+03  0.00000000000E+00 0. -1.
         -2   -1    0    0    0  501 -0.00000000000E+00 -0.00000000000E+00 -0.14443943642E+04  0.14443943642E+04  0.00000000000E+00 0.  1.
         23    2    1    2    0    0  0.76886203724E+03 -0.33429577116E+03 -0.10205736551E+04  0.13239189076E+04  0.91039516015E+02 0.  0.
         13    1    3    3    0    0  0.46347935308E+03 -0.17698198086E+03 -0.54146594918E+03  0.73438484897E+03  0.00000000000E+00 0.  1.
        -13    1    3    3    0    0  0.30538268416E+03 -0.15731379030E+03 -0.47910770589E+03  0.58953405859E+03  0.00000000000E+00 0. -1.
         22    1    1    2    0    0 -0.76886203724E+03  0.33429577116E+03  0.37355047165E+03  0.91784663740E+03  0.00000000000E+00 0.  1.
<mgrwt>
<rscale>  0 0.21463629E+04</rscale>
<asrwt>0</asrwt>
<pdfrwt beam="1">  1        2 0.12267249E+00 0.21463629E+04</pdfrwt>
<pdfrwt beam="2">  1       -2 0.22221452E+00 0.21463629E+04</pdfrwt>
<totfact> 0.30383759E+00</totfact>
</mgrwt>
</event>
<event>
 6    1  0.1780144E-005  0.2758462E+04  0.7818608E-02  0.8316281E-01
          1   -1    0    0  501    0  0.00000000000E+00  0.00000000000E+00  0.18354272507E+04  0.18354272507E+04  0.00000000000E+00 0. -1.
         -1   -1    0    0    0  501 -0.00000000000E+00 -0.00000000000E+00 -0.10364225169E+04  0.10364225169E+04  0.00000000000E+00 0.  1.
         23    2    1    2    0    0 -0.88881888560E+03 -0.21598622392E+03 -0.67257061440E+03  0.11391688778E+04  0.93302950431E+02 0.  0.
         11    1    3    3    0    0 -0.58593395886E+03 -0.13101524249E+03 -0.38711816987E+03  0.71438370317E+03  0.00000000000E+00 0.  1.
        -11    1    3    3    0    0 -0.30288492675E+03 -0.84970981424E+02 -0.28545244453E+03  0.42478517467E+03  0.00000000000E+00 0. -1.
         22    1    1    2    0    0  0.88881888560E+03  0.21598622392E+03  0.14715753482E+04  0.17326808897E+04  0.00000000000E+00 0. -1.
<mgrwt>
<rscale>  0 0.27584620E+04</rscale>
<asrwt>0</asrwt>
<pdfrwt beam="1">  1        1 0.28237342E+00 0.27584620E+04</pdfrwt>
<pdfrwt beam="2">  1       -1 0.15944962E+00 0.27584620E+04</pdfrwt>
<totfact> 0.98803527E-01</totfact>
</mgrwt>
</event>
<event>
 6    1  0.2728073E-005  0.3692784E+04  0.7818608E-02  0.8069563E-01
          2   -1    0    0  501    0  0.00000000000E+00  0.00000000000E+00  0.20763236199E+04  0.20763236199E+04  0.00000000000E+00 0. -1.
         -2   -1    0    0    0  501 -0.00000000000E+00 -0.00000000000E+00 -0.16419227565E+04  0.16419227565E+04  0.00000000000E+00 0.  1.
         23    2    1    2    0    0 -0.78571869917E+03  0.13078010197E+04  0.12624946777E+04  0.19823210478E+04  0.89479294240E+02 0.  0.
         13    1    3    3    0    0 -0.51792571994E+03  0.86337486836E+03  0.77745178316E+03  0.12720434308E+04  0.00000000000E+00 0. -1.
        -13    1    3    3    0    0 -0.26779297923E+03  0.44442615133E+03  0.48504289450E+03  0.71027761700E+03  0.00000000000E+00 0.  1.
         22    1    1    2    0    0  0.78571869917E+03 -0.13078010197E+04 -0.82809381426E+03  0.17359253286E+04  0.00000000000E+00 0.  1.
<mgrwt>
<rscale>  0 0.36927838E+04</rscale>
<asrwt>0</asrwt>
<pdfrwt beam="1">  1        2 0.31943441E+00 0.36927838E+04</pdfrwt>
<pdfrwt beam="2">  1       -2 0.25260350E+00 0.36927838E+04</pdfrwt>
<totfact> 0.30349746E-01</totfact>
</mgrwt>
</event>
<event>
 6    1  0.1780144E-005  0.5003864E+04  0.7818608E-02  0.7827911E-01
          2   -1    0    0  501    0  0.00000000000E+00  0.00000000000E+00  0.29451438987E+04  0.29451438987E+04  0.00000000000E+00 0. -1.
         -2   -1    0    0    0  501 -0.00000000000E+00 -0.00000000000E+00 -0.21254187300E+04  0.21254187300E+04  0.00000000000E+00 0.  1.
         23    2    1    2    0    0  0.12759233953E+04 -0.10450830572E+04 -0.14953487275E+04  0.22280731825E+04  0.89795225837E+02 0.  0.
         11    1    3    3    0    0  0.10790024216E+04 -0.92394131315E+03 -0.12838182267E+04  0.19147070312E+04  0.00000000000E+00 0.  1.
        -11    1    3    3    0    0  0.19692097366E+03 -0.12114174406E+03 -0.21153050083E+03  0.31336615134E+03  0.00000000000E+00 0. -1.
         22    1    1    2    0    0 -0.12759233953E+04  0.10450830572E+04  0.23150738962E+04  0.28424894462E+04  0.00000000000E+00 0. -1.
<mgrwt>
<rscale>  0 0.50038641E+04</rscale>
<asrwt>0</asrwt>
<pdfrwt beam="1">  1        2 0.45309906E+00 0.50038641E+04</pdfrwt>
<pdfrwt beam="2">  1       -2 0.32698750E+00 0.50038641E+04</pdfrwt>
<totfact> 0.29705640E-02</totfact>
</mgrwt>
</event>
<event>
 6    1  0.1780144E-005  0.3265162E+04  0.7818608E-02  0.8171817E-01
          2   -1    0    0  501    0  0.00000000000E+00  0.00000000000E+00  0.20458555152E+04  0.20458555152E+04  0.00000000000E+00 0. -1.
         -2   -1    0    0    0  501 -0.00000000000E+00 -0.00000000000E+00 -0.13027906211E+04  0.13027906211E+04  0.00000000000E+00 0.  1.
         23    2    1    2    0    0  0.11987257669E+04  0.71903282779E+03  0.12343285010E+04  0.18669944893E+04  0.90276813067E+02 0.  0.
         13    1    3    3    0    0  0.44610457130E+03  0.29376239560E+03  0.42162016058E+03  0.68049187608E+03  0.00000000000E+00 0. -1.
        -13    1    3    3    0    0  0.75262119562E+03  0.42527043219E+03  0.81270834037E+03  0.11865026132E+04  0.00000000000E+00 0.  1.
         22    1    1    2    0    0 -0.11987257669E+04 -0.71903282779E+03 -0.49126360682E+03  0.14816516470E+04  0.00000000000E+00 0.  1.
<mgrwt>
<rscale>  0 0.32651624E+04</rscale>
<asrwt>0</asrwt>
<pdfrwt beam="1">  1        2 0.31474700E+00 0.32651624E+04</pdfrwt>
<pdfrwt beam="2">  1       -2 0.20042933E+00 0.32651624E+04</pdfrwt>
<totfact> 0.69725605E-01</totfact>
</mgrwt>
</event>
<event>
 6    1  0.1780144E-005  0.2734619E+04  0.7818608E-02  0.8323859E-01
         -1   -1    0    0    0  501 -0.00000000000E+00  0.00000000000E+00  0.16522475917E+04  0.16522475917E+04  0.00000000000E+00 0.  1.
          1   -1    0    0  501    0  0.00000000000E+00 -0.00000000000E+00 -0.11315105389E+04  0.11315105389E+04  0.00000000000E+00 0. -1.
         23    2    1    2    0    0  0.11977033432E+03  0.50646219158E+03 -0.10247811526E+04  0.11529683195E+04  0.91162768823E+02 0.  0.
         13    1    3    3    0    0  0.90729073332E+02  0.26985268836E+03 -0.47591999321E+03  0.55457378057E+03  0.00000000000E+00 0. -1.
        -13    1    3    3    0    0  0.29041260985E+02  0.23660950322E+03 -0.54886115944E+03  0.59839453891E+03  0.00000000000E+00 0.  1.
         22    1    1    2    0    0 -0.11977033432E+03 -0.50646219158E+03  0.15455182055E+04  0.16307898111E+04  0.00000000000E+00 0.  1.
<mgrwt>
<rscale>  0 0.27346192E+04</rscale>
<asrwt>0</asrwt>
<pdfrwt beam="1">  1        1 0.17407854E+00 0.27346192E+04</pdfrwt>
<pdfrwt beam="2">  1       -1 0.25419194E+00 0.27346192E+04</pdfrwt>
<totfact> 0.68422754E-01</totfact>
</mgrwt>
</event>
<event>
 6    1  0.1780144E-005  0.7904042E+03  0.7818608E-02  0.9574011E-01
          3   -1    0    0  501    0  0.00000000000E+00  0.00000000000E+00  0.14683870148E+04  0.14683870148E+04  0.00000000000E+00 0. -1.
         -3   -1    0    0    0  501 -0.00000000000E+00 -0.00000000000E+00 -0.10636481741E+03  0.10636481741E+03  0.00000000000E+00 0.  1.
         23    2    1    2    0    0  0.95476270857E+02  0.21225122857E+03  0.68416476033E+02  0.26037667091E+03  0.94598595301E+02 0.  0.
         13    1    3    3    0    0 -0.96185765478E+01  0.86576105936E+01 -0.11907879000E+02  0.17586040437E+02  0.00000000000E+00 0.  1.
        -13    1    3    3    0    0  0.10509484740E+03  0.20359361798E+03  0.80324355033E+02  0.24279063047E+03  0.00000000000E+00 0. -1.
         22    1    1    2    0    0 -0.95476270857E+02 -0.21225122857E+03  0.12936057214E+04  0.13143751613E+04  0.00000000000E+00 0. -1.
<mgrwt>
<rscale>  0 0.79040424E+03</rscale>
<asrwt>0</asrwt>
<pdfrwt beam="1">  1        3 0.22590568E+00 0.79040424E+03</pdfrwt>
<pdfrwt beam="2">  1       -3 0.16363819E-01 0.79040424E+03</pdfrwt>
<totfact> 0.89504499E+00</totfact>
</mgrwt>
</event>
<event>
 6    1  0.1780144E-005  0.1872140E+04  0.7818608E-02  0.8668850E-01
         -2   -1    0    0    0  501 -0.00000000000E+00  0.00000000000E+00  0.57922648266E+03  0.57922648266E+03  0.00000000000E+00 0.  1.
          2   -1    0    0  501    0  0.00000000000E+00 -0.00000000000E+00 -0.15127538295E+04  0.15127538295E+04  0.00000000000E+00 0. -1.
         23    2    1    2    0    0 -0.93275207802E+03 -0.29672180230E+02 -0.51162411914E+03  0.10678176244E+04  0.86996335825E+02 0.  0.
         13    1    3    3    0    0 -0.20260073140E+03 -0.40922944132E+02 -0.10104916635E+03  0.23007102759E+03  0.00000000000E+00 0. -1.
        -13    1    3    3    0    0 -0.73015134663E+03  0.11250763903E+02 -0.41057495279E+03  0.83774659685E+03  0.00000000000E+00 0.  1.
         22    1    1    2    0    0  0.93275207802E+03  0.29672180230E+02 -0.42190322769E+03  0.10241626877E+04  0.00000000000E+00 0.  1.
<mgrwt>
<rscale>  0 0.18721400E+04</rscale>
<asrwt>0</asrwt>
<pdfrwt beam="1">  1        2 0.23273136E+00 0.18721400E+04</pdfrwt>
<pdfrwt beam="2">  1       -2 0.89111767E-01 0.18721400E+04</pdfrwt>
<totfact> 0.12671963E+01</totfact>
</mgrwt>
</event>
<event>
 6    1  0.1780144E-005  0.3096720E+04  0.7818608E-02  0.8216639E-01
         -2   -1    0    0    0  501 -0.00000000000E+00  0.00000000000E+00  0.99792097354E+03  0.99792097354E+03  0.00000000000E+00 0.  1.
          2   -1    0    0  501    0  0.00000000000E+00 -0.00000000000E+00 -0.24024130418E+04  0.24024130418E+04  0.00000000000E+00 0. -1.
         23    2    1    2    0    0  0.45732768099E+03  0.24933094137E+03  0.89663229123E+03  0.10409934626E+04  0.91670045781E+02 0.  0.
         11    1    3    3    0    0  0.25985775818E+03  0.90881116201E+02  0.48753974301E+03  0.55989323337E+03  0.00000000000E+00 0. -1.
        -11    1    3    3    0    0  0.19746992282E+03  0.15844982517E+03  0.40909254823E+03  0.48110022919E+03  0.00000000000E+00 0.  1.
         22    1    1    2    0    0 -0.45732768099E+03 -0.24933094137E+03 -0.23011243595E+04  0.23593405528E+04  0.00000000000E+00 0. -1.
<mgrwt>
<rscale>  0 0.30967198E+04</rscale>
<asrwt>0</asrwt>
<pdfrwt beam="1">  1        2 0.36960200E+00 0.30967198E+04</pdfrwt>
<pdfrwt beam="2">  1       -2 0.15352631E+00 0.30967198E+04</pdfrwt>
<totfact> 0.94770492E-01</totfact>
</mgrwt>
</event>
<event>
 6    1  0.1780144E-005  0.1647820E+04  0.7818608E-02  0.8791697E-01
         -2   -1    0    0    0  501 -0.00000000000E+00  0.00000000000E+00  0.36868355756E+03  0.36868355756E+03  0.00000000000E+00 0.  1.
          2   -1    0    0  501    0  0.00000000000E+00 -0.00000000000E+00 -0.18412205858E+04  0.18412205858E+04  0.00000000000E+00 0. -1.
         23    2    1    2    0    0 -0.65925428866E+03  0.23807829994E+03 -0.13131163730E+04  0.14910770158E+04  0.87969107662E+02 0.  0.
         11    1    3    3    0    0 -0.34079974117E+03  0.10473230569E+03 -0.75236485956E+03  0.83256603422E+03  0.00000000000E+00 0. -1.
        -11    1    3    3    0    0 -0.31845454749E+03  0.13334599425E+03 -0.56075151346E+03  0.65851098157E+03  0.00000000000E+00 0.  1.
         22    1    1    2    0    0  0.65925428866E+03 -0.23807829994E+03 -0.15942065520E+03  0.71882712756E+03  0.00000000000E+00 0.  1.
<mgrwt>
<rscale>  0 0.16478201E+04</rscale>
<asrwt>0</asrwt>
<pdfrwt beam="1">  1        2 0.28326470E+00 0.16478201E+04</pdfrwt>
<pdfrwt beam="2">  1       -2 0.56720548E-01 0.16478201E+04</pdfrwt>
<totfact> 0.22799550E+01</totfact>
</mgrwt>
</event>
<event>
 6    1  0.1780144E-005  0.9772962E+03  0.7818608E-02  0.9333803E-01
         -2   -1    0    0    0  501 -0.00000000000E+00  0.00000000000E+00  0.75066947507E+02  0.75066947507E+02  0.00000000000E+00 0.  1.
          2   -1    0    0  501    0  0.00000000000E+00 -0.00000000000E+00 -0.31808533923E+04  0.31808533923E+04  0.00000000000E+00 0. -1.
         23    2    1    2    0    0 -0.47912651040E+03 -0.36278614627E+01 -0.17861684731E+04  0.18520090301E+04  0.99821134384E+02 0.  0.
         13    1    3    3    0    0 -0.22456757677E+03  0.61814442559E+01 -0.65316207709E+03  0.69071666097E+03  0.00000000000E+00 0.  1.
        -13    1    3    3    0    0 -0.25455893363E+03 -0.98093057186E+01 -0.11330063960E+04  0.11612923691E+04  0.00000000000E+00 0. -1.
         22    1    1    2    0    0  0.47912651040E+03  0.36278614627E+01 -0.13196179717E+04  0.14039113097E+04  0.00000000000E+00 0.  1.
<mgrwt>
<rscale>  0 0.97729618E+03</rscale>
<asrwt>0</asrwt>
<pdfrwt beam="1">  1        2 0.48936206E+00 0.97729618E+03</pdfrwt>
<pdfrwt beam="2">  1       -2 0.11548761E-01 0.97729618E+03</pdfrwt>
<totfact> 0.74779624E+01</totfact>
</mgrwt>
</event>
<event>
 6    1  0.1780144E-005  0.1896356E+04  0.7818608E-02  0.8656672E-01
         -2   -1    0    0    0  501 -0.00000000000E+00  0.00000000000E+00  0.88777215132E+03  0.88777215132E+03  0.00000000000E+00 0.  1.
          2   -1    0    0  501    0  0.00000000000E+00 -0.00000000000E+00 -0.10126940547E+04  0.10126940547E+04  0.00000000000E+00 0. -1.
         23    2    1    2    0    0  0.62856116117E+03  0.62946386003E+03  0.25976886217E+03  0.93129085063E+03  0.92243711447E+02 0.  0.
         13    1    3    3    0    0  0.16747693734E+03  0.22619533187E+03  0.70156139107E+02  0.29005988443E+03  0.00000000000E+00 0. -1.
        -13    1    3    3    0    0  0.46108422383E+03  0.40326852815E+03  0.18961272306E+03  0.64123096620E+03  0.00000000000E+00 0.  1.
         22    1    1    2    0    0 -0.62856116117E+03 -0.62946386003E+03 -0.38469076555E+03  0.96917535540E+03  0.00000000000E+00 0. -1.
<mgrwt>
<rscale>  0 0.18963561E+04</rscale>
<asrwt>0</asrwt>
<pdfrwt beam="1">  1        2 0.15579909E+00 0.18963561E+04</pdfrwt>
<pdfrwt beam="2">  1       -2 0.13658033E+00 0.18963561E+04</pdfrwt>
<totfact> 0.88679521E+00</totfact>
</mgrwt>
</event>
<event>
 6    1  0.1780144E-005  0.2815790E+04  0.7818608E-02  0.8298383E-01
          2   -1    0    0  501    0  0.00000000000E+00  0.00000000000E+00  0.17552858927E+04  0.17552858927E+04  0.00000000000E+00 0. -1.
         -2   -1    0    0    0  501 -0.00000000000E+00 -0.00000000000E+00 -0.11292566486E+04  0.11292566486E+04  0.00000000000E+00 0.  1.
         23    2    1    2    0    0  0.41176424093E+03  0.12698540681E+04 -0.14019459744E+03  0.13453290670E+04  0.90424714402E+02 0.  0.
         11    1    3    3    0    0  0.20894294713E+03  0.60952733649E+03 -0.23541258670E+02  0.64477509253E+03  0.00000000000E+00 0.  1.
        -11    1    3    3    0    0  0.20282129379E+03  0.66032673156E+03 -0.11665333877E+03  0.70055397442E+03  0.00000000000E+00 0. -1.
         22    1    1    2    0    0 -0.41176424093E+03 -0.12698540681E+04  0.76622384154E+03  0.15392134743E+04  0.00000000000E+00 0.  1.
<mgrwt>
<rscale>  0 0.28157900E+04</rscale>
<asrwt>0</asrwt>
<pdfrwt beam="1">  1        2 0.27004398E+00 0.28157900E+04</pdfrwt>
<pdfrwt beam="2">  1       -2 0.17373179E+00 0.28157900E+04</pdfrwt>
<totfact> 0.15926866E+00</totfact>
</mgrwt>
</event>
<event>
 6    1  0.1780144E-005  0.3652592E+04  0.7818608E-02  0.8078550E-01
         -2   -1    0    0    0  501 -0.00000000000E+00  0.00000000000E+00  0.95546926869E+03  0.95546926869E+03  0.00000000000E+00 0.  1.
          2   -1    0    0  501    0  0.00000000000E+00 -0.00000000000E+00 -0.34908058185E+04  0.34908058185E+04  0.00000000000E+00 0. -1.
         23    2    1    2    0    0 -0.13242683153E+04  0.48960995532E+03 -0.26764248760E+04  0.30273633934E+04  0.90964387189E+02 0.  0.
         13    1    3    3    0    0 -0.76895461611E+03  0.25161043923E+03 -0.14613242695E+04  0.16703495549E+04  0.00000000000E+00 0.  1.
        -13    1    3    3    0    0 -0.55531369915E+03  0.23799951609E+03 -0.12151006064E+04  0.13570138385E+04  0.00000000000E+00 0. -1.
         22    1    1    2    0    0  0.13242683153E+04 -0.48960995532E+03  0.14108832611E+03  0.14189116938E+04  0.00000000000E+00 0.  1.
<mgrwt>
<rscale>  0 0.36525923E+04</rscale>
<asrwt>0</asrwt>
<pdfrwt beam="1">  1        2 0.53704705E+00 0.36525923E+04</pdfrwt>
<pdfrwt beam="2">  1       -2 0.14699527E+00 0.36525923E+04</pdfrwt>
<totfact> 0.21130457E-01</totfact>
</mgrwt>
</event>
<event>
 6    1  0.1780144E-005  0.2650459E+04  0.7818608E-02  0.8351261E-01
         -1   -1    0    0    0  501 -0.00000000000E+00  0.00000000000E+00  0.74674627595E+03  0.74674627595E+03  0.00000000000E+00 0.  1.
          1   -1    0    0  501    0  0.00000000000E+00 -0.00000000000E+00 -0.23518479708E+04  0.23518479708E+04  0.00000000000E+00 0. -1.
         23    2    1    2    0    0 -0.88062700895E+03  0.31847714611E+03  0.28992751311E+03  0.98481390800E+03  0.94174566872E+02 0.  0.
         13    1    3    3    0    0 -0.46630388286E+03  0.18047420496E+03  0.10690911730E+03  0.51131185121E+03  0.00000000000E+00 0. -1.
        -13    1    3    3    0    0 -0.41432312609E+03  0.13800294115E+03  0.18301839581E+03  0.47350205679E+03  0.00000000000E+00 0.  1.
         22    1    1    2    0    0  0.88062700895E+03 -0.31847714611E+03 -0.18950292080E+04  0.21137803388E+04  0.00000000000E+00 0.  1.
<mgrwt>
<rscale>  0 0.26504594E+04</rscale>
<asrwt>0</asrwt>
<pdfrwt beam="1">  1        1 0.36182276E+00 0.26504594E+04</pdfrwt>
<pdfrwt beam="2">  1       -1 0.11488404E+00 0.26504594E+04</pdfrwt>
<totfact> 0.10342296E+00</totfact>
</mgrwt>
</event>
<event>
 6    1  0.1780144E-005  0.1722247E+04  0.7818608E-02  0.8748777E-01
          2   -1    0    0  501    0  0.00000000000E+00  0.00000000000E+00  0.57200868611E+03  0.57200868611E+03  0.00000000000E+00 0. -1.
         -2   -1    0    0    0  501 -0.00000000000E+00 -0.00000000000E+00 -0.12963677415E+04  0.12963677415E+04  0.00000000000E+00 0.  1.
         23    2    1    2    0    0  0.78101364524E+03  0.28979242298E+03 -0.58924325129E+03  0.10244461917E+04  0.91216380663E+02 0.  0.
         11    1    3    3    0    0  0.38402434202E+03  0.13514156785E+03 -0.23290216507E+03  0.46902170219E+03  0.00000000000E+00 0. -1.
        -11    1    3    3    0    0  0.39698930321E+03  0.15465085513E+03 -0.35634108623E+03  0.55542448955E+03  0.00000000000E+00 0.  1.
         22    1    1    2    0    0 -0.78101364524E+03 -0.28979242298E+03 -0.13511580406E+03  0.84393023585E+03  0.00000000000E+00 0.  1.
<mgrwt>
<rscale>  0 0.17222469E+04</rscale>
<asrwt>0</asrwt>
<pdfrwt beam="1">  1        2 0.88001337E-01 0.17222469E+04</pdfrwt>
<pdfrwt beam="2">  1       -2 0.19944119E+00 0.17222469E+04</pdfrwt>
<totfact> 0.66874680E+00</totfact>
</mgrwt>
</event>
<event>
 6    1  0.1780144E-005  0.5059359E+03  0.7818608E-02  0.1012241E+00
         -2   -1    0    0    0  501 -0.00000000000E+00  0.00000000000E+00  0.82677175343E+02  0.82677175343E+02  0.00000000000E+00 0.  1.
          2   -1    0    0  501    0  0.00000000000E+00 -0.00000000000E+00 -0.77400786548E+03  0.77400786548E+03  0.00000000000E+00 0. -1.
         23    2    1    2    0    0  0.16633695198E+03 -0.11478875789E+02 -0.66019778201E+03  0.68707076032E+03  0.91680816630E+02 0.  0.
         11    1    3    3    0    0  0.55405753450E+02  0.16600507089E+02 -0.38049245508E+03  0.38486345985E+03  0.00000000000E+00 0. -1.
        -11    1    3    3    0    0  0.11093119853E+03 -0.28079382879E+02 -0.27970532693E+03  0.30220730048E+03  0.00000000000E+00 0.  1.
         22    1    1    2    0    0 -0.16633695198E+03  0.11478875789E+02 -0.31132908131E+02  0.16961428050E+03  0.00000000000E+00 0. -1.
<mgrwt>
<rscale>  0 0.50593590E+03</rscale>
<asrwt>0</asrwt>
<pdfrwt beam="1">  1        2 0.11907813E+00 0.50593590E+03</pdfrwt>
<pdfrwt beam="2">  1       -2 0.12719566E-01 0.50593590E+03</pdfrwt>
<totfact> 0.16666276E+03</totfact>
</mgrwt>
</event>
<event>
 6    1  0.2470058E-005  0.3272104E+04  0.7818608E-02  0.8170030E-01
         -1   -1    0    0    0  501 -0.00000000000E+00  0.00000000000E+00  0.24691756782E+04  0.24691756782E+04  0.00000000000E+00 0.  1.
          1   -1    0    0  501    0  0.00000000000E+00 -0.00000000000E+00 -0.10840320018E+04  0.10840320018E+04  0.00000000000E+00 0. -1.
         23    2    1    2    0    0  0.10178413561E+04  0.77649701182E+03 -0.41088535955E+03  0.13476082301E+04  0.90953436086E+02 0.  0.
         11    1    3    3    0    0  0.37316931522E+03  0.31220252596E+03 -0.19650898072E+03  0.52472996345E+03  0.00000000000E+00 0. -1.
        -11    1    3    3    0    0  0.64467204092E+03  0.46429448586E+03 -0.21437637883E+03  0.82287826666E+03  0.00000000000E+00 0.  1.
         22    1    1    2    0    0 -0.10178413561E+04 -0.77649701182E+03  0.17960290359E+04  0.22055994499E+04  0.00000000000E+00 0.  1.
<mgrwt>
<rscale>  0 0.32721036E+04</rscale>
<asrwt>0</asrwt>
<pdfrwt beam="1">  1        1 0.16677415E+00 0.32721036E+04</pdfrwt>
<pdfrwt beam="2">  1       -1 0.37987318E+00 0.32721036E+04</pdfrwt>
<totfact> 0.10620075E-01</totfact>
</mgrwt>
</event>
<event>
 6    1  0.1780144E-005  0.1897685E+04  0.7818608E-02  0.8656010E-01
          1   -1    0    0  501    0  0.00000000000E+00  0.00000000000E+00  0.13698991885E+04  0.13698991885E+04  0.00000000000E+00 0. -1.
         -1   -1    0    0    0  501 -0.00000000000E+00 -0.00000000000E+00 -0.65720305936E+03  0.65720305936E+03  0.00000000000E+00 0.  1.
         23    2    1    2    0    0  0.32922196599E+03  0.88308534657E+03  0.26241826288E+03  0.98260380886E+03  0.91760929964E+02 0.  0.
         13    1    3    3    0    0  0.32925828753E+03  0.88248672702E+03  0.26617722851E+03  0.97879730294E+03  0.00000000000E+00 0. -1.
        -13    1    3    3    0    0 -0.36321543445E-01  0.59861955221E+00 -0.37589656331E+01  0.38065059115E+01  0.00000000000E+00 0.  1.
         22    1    1    2    0    0 -0.32922196599E+03 -0.88308534657E+03  0.45027786626E+03  0.10444984390E+04  0.00000000000E+00 0. -1.
<mgrwt>
<rscale>  0 0.18976848E+04</rscale>
<asrwt>0</asrwt>
<pdfrwt beam="1">  1        1 0.21075372E+00 0.18976848E+04</pdfrwt>
<pdfrwt beam="2">  1       -1 0.10110816E+00 0.18976848E+04</pdfrwt>
<totfact> 0.70157928E+00</totfact>
</mgrwt>
</event>
<event>
 6    1  0.1780144E-005  0.4860840E+04  0.7818608E-02  0.7850340E-01
         -2   -1    0    0    0  501 -0.00000000000E+00  0.00000000000E+00  0.24319897412E+04  0.24319897412E+04  0.00000000000E+00 0.  1.
          2   -1    0    0  501    0  0.00000000000E+00 -0.00000000000E+00 -0.24288515963E+04  0.24288515963E+04  0.00000000000E+00 0. -1.
         23    2    1    2    0    0  0.17310679607E+04 -0.15952432243E+04 -0.59950976747E+03  0.24309068249E+04  0.92188941089E+02 0.  0.
         11    1    3    3    0    0  0.13910081994E+04 -0.12312909697E+04 -0.46683417914E+03  0.19154413104E+04  0.00000000000E+00 0. -1.
        -11    1    3    3    0    0  0.34005976133E+03 -0.36395225466E+03 -0.13267558833E+03  0.51546551455E+03  0.00000000000E+00 0.  1.
         22    1    1    2    0    0 -0.17310679607E+04  0.15952432243E+04  0.60264791230E+03  0.24299345126E+04  0.00000000000E+00 0.  1.
<mgrwt>
<rscale>  0 0.48608403E+04</rscale>
<asrwt>0</asrwt>
<pdfrwt beam="1">  1        2 0.37366948E+00 0.48608403E+04</pdfrwt>
<pdfrwt beam="2">  1       -2 0.37415227E+00 0.48608403E+04</pdfrwt>
<totfact> 0.30764461E-02</totfact>
</mgrwt>
</event>
<event>
 6    1  0.1780144E-005  0.3000881E+04  0.7818608E-02  0.8243479E-01
         -2   -1    0    0    0  501 -0.00000000000E+00  0.00000000000E+00  0.13160163707E+04  0.13160163707E+04  0.00000000000E+00 0.  1.
          2   -1    0    0  501    0  0.00000000000E+00 -0.00000000000E+00 -0.17107098924E+04  0.17107098924E+04  0.00000000000E+00 0. -1.
         23    2    1    2    0    0 -0.22573989868E+03 -0.55389693737E+03 -0.15838905084E+04  0.16955802185E+04  0.92319097154E+02 0.  0.
         13    1    3    3    0    0 -0.20034701343E+03 -0.45000076138E+03 -0.12025611814E+04  0.12995356886E+04  0.00000000000E+00 0. -1.
        -13    1    3    3    0    0 -0.25392885252E+02 -0.10389617600E+03 -0.38132932702E+03  0.39604452989E+03  0.00000000000E+00 0.  1.
         22    1    1    2    0    0  0.22573989868E+03  0.55389693737E+03  0.11891969867E+04  0.13311460447E+04  0.00000000000E+00 0.  1.
<mgrwt>
<rscale>  0 0.30008814E+04</rscale>
<asrwt>0</asrwt>
<pdfrwt beam="1">  1        2 0.26318614E+00 0.30008814E+04</pdfrwt>
<pdfrwt beam="2">  1       -2 0.20246406E+00 0.30008814E+04</pdfrwt>
<totfact> 0.10611397E+00</totfact>
</mgrwt>
</event>
<event>
 6    1  0.1780144E-005  0.2622543E+04  0.7818608E-02  0.8360584E-01
          2   -1    0    0  501    0  0.00000000000E+00  0.00000000000E+00  0.16475908973E+04  0.16475908973E+04  0.00000000000E+00 0. -1.
         -2   -1    0    0    0  501 -0.00000000000E+00 -0.00000000000E+00 -0.10436041044E+04  0.10436041044E+04  0.00000000000E+00 0.  1.
         23    2    1    2    0    0  0.39918668910E+03 -0.12456205273E+04  0.23409216472E+03  0.13318780604E+04  0.90440673687E+02 0.  0.
         11    1    3    3    0    0  0.13721397895E+03 -0.38596976952E+03  0.32920794657E+02  0.41095512861E+03  0.00000000000E+00 0.  1.
        -11    1    3    3    0    0  0.26197271014E+03 -0.85965075776E+03  0.20117137006E+03  0.92092293179E+03  0.00000000000E+00 0. -1.
         22    1    1    2    0    0 -0.39918668910E+03  0.12456205273E+04  0.36989462817E+03  0.13593169412E+04  0.00000000000E+00 0. -1.
<mgrwt>
<rscale>  0 0.26225428E+04</rscale>
<asrwt>0</asrwt>
<pdfrwt beam="1">  1        2 0.25347552E+00 0.26225428E+04</pdfrwt>
<pdfrwt beam="2">  1       -2 0.16055448E+00 0.26225428E+04</pdfrwt>
<totfact> 0.23112853E+00</totfact>
</mgrwt>
</event>
<event>
 6    1  0.1780144E-005  0.2030429E+04  0.7818608E-02  0.8592525E-01
         -2   -1    0    0    0  501 -0.00000000000E+00  0.00000000000E+00  0.49811606532E+03  0.49811606532E+03  0.00000000000E+00 0.  1.
          2   -1    0    0  501    0  0.00000000000E+00 -0.00000000000E+00 -0.20691161243E+04  0.20691161243E+04  0.00000000000E+00 0. -1.
         23    2    1    2    0    0  0.90674853213E+03 -0.11308506167E+03 -0.23408317764E+03  0.94787185933E+03  0.93193325786E+02 0.  0.
         11    1    3    3    0    0  0.37349551653E+03 -0.62685325948E+02 -0.14155329512E+03  0.40430889963E+03  0.00000000000E+00 0. -1.
        -11    1    3    3    0    0  0.53325301560E+03 -0.50399735723E+02 -0.92529882515E+02  0.54356295971E+03  0.00000000000E+00 0.  1.
         22    1    1    2    0    0 -0.90674853213E+03  0.11308506167E+03 -0.13369168814E+04  0.16193603303E+04  0.00000000000E+00 0. -1.
<mgrwt>
<rscale>  0 0.20304285E+04</rscale>
<asrwt>0</asrwt>
<pdfrwt beam="1">  1        2 0.31832556E+00 0.20304285E+04</pdfrwt>
<pdfrwt beam="2">  1       -2 0.76633239E-01 0.20304285E+04</pdfrwt>
<totfact> 0.86240027E+00</totfact>
</mgrwt>
</event>
<event>
 6    1  0.1780144E-005  0.4469715E+04  0.7818608E-02  0.7915960E-01
          1   -1    0    0  501    0  0.00000000000E+00  0.00000000000E+00  0.29818343280E+04  0.29818343280E+04  0.00000000000E+00 0. -1.
         -1   -1    0    0    0  501 -0.00000000000E+00 -0.00000000000E+00 -0.16750051127E+04  0.16750051127E+04  0.00000000000E+00 0.  1.
         23    2    1    2    0    0 -0.40133426013E+03 -0.11605787800E+04  0.25979236893E+04  0.28750040854E+04  0.91807964406E+02 0.  0.
         11    1    3    3    0    0 -0.29873956668E+03 -0.74690819609E+03  0.17469665717E+04  0.19232808907E+04  0.00000000000E+00 0.  1.
        -11    1    3    3    0    0 -0.10259469345E+03 -0.41367058394E+03  0.85095711763E+03  0.95172319462E+03  0.00000000000E+00 0. -1.
         22    1    1    2    0    0  0.40133426013E+03  0.11605787800E+04 -0.12910944740E+04  0.17818353554E+04  0.00000000000E+00 0.  1.
<mgrwt>
<rscale>  0 0.44697149E+04</rscale>
<asrwt>0</asrwt>
<pdfrwt beam="1">  1        1 0.45874374E+00 0.44697149E+04</pdfrwt>
<pdfrwt beam="2">  1       -1 0.25769309E+00 0.44697149E+04</pdfrwt>
<totfact> 0.28826049E-02</totfact>
</mgrwt>
</event>
<event>
 6    1  0.1780144E-005  0.8626051E+03  0.7818608E-02  0.9473573E-01
         -1   -1    0    0    0  501 -0.00000000000E+00  0.00000000000E+00  0.49567875530E+03  0.49567875530E+03  0.00000000000E+00 0.  1.
          1   -1    0    0  501    0  0.00000000000E+00 -0.00000000000E+00 -0.37528723337E+03  0.37528723337E+03  0.00000000000E+00 0. -1.
         23    2    1    2    0    0 -0.65548977478E+02  0.13806257835E+03 -0.34128276270E+03  0.38465221230E+03  0.90141313096E+02 0.  0.
         11    1    3    3    0    0 -0.42654954393E+02  0.13769861379E+03 -0.23309993537E+03  0.27407286119E+03  0.00000000000E+00 0. -1.
        -11    1    3    3    0    0 -0.22894023085E+02  0.36396456217E+00 -0.10818282733E+03  0.11057935111E+03  0.00000000000E+00 0.  1.
         22    1    1    2    0    0  0.65548977478E+02 -0.13806257835E+03  0.46167428463E+03  0.48631377636E+03  0.00000000000E+00 0.  1.
<mgrwt>
<rscale>  0 0.86260514E+03</rscale>
<asrwt>0</asrwt>
<pdfrwt beam="1">  1        1 0.57736498E-01 0.86260514E+03</pdfrwt>
<pdfrwt beam="2">  1       -1 0.76258270E-01 0.86260514E+03</pdfrwt>
<totfact> 0.11390155E+02</totfact>
</mgrwt>
</event>
<event>
 6    1  0.1780144E-005  0.2389688E+04  0.7818608E-02  0.8443374E-01
          1   -1    0    0  501    0  0.00000000000E+00  0.00000000000E+00  0.10546851040E+04  0.10546851040E+04  0.00000000000E+00 0. -1.
         -1   -1    0    0    0  501 -0.00000000000E+00 -0.00000000000E+00 -0.13536293844E+04  0.13536293844E+04  0.00000000000E+00 0.  1.
         23    2    1    2    0    0  0.37380143373E+03  0.67651112649E+03 -0.10656673663E+04  0.13196184305E+04  0.91384082908E+02 0.  0.
         11    1    3    3    0    0  0.15528853632E+03  0.28826921274E+03 -0.52889857110E+03  0.62205093604E+03  0.00000000000E+00 0. -1.
        -11    1    3    3    0    0  0.21851289741E+03  0.38824191375E+03 -0.53676879516E+03  0.69756749451E+03  0.00000000000E+00 0.  1.
         22    1    1    2    0    0 -0.37380143373E+03 -0.67651112649E+03  0.76672308579E+03  0.10886960579E+04  0.00000000000E+00 0. -1.
<mgrwt>
<rscale>  0 0.23896885E+04</rscale>
<asrwt>0</asrwt>
<pdfrwt beam="1">  1        1 0.16225925E+00 0.23896885E+04</pdfrwt>
<pdfrwt beam="2">  1       -1 0.20825067E+00 0.23896885E+04</pdfrwt>
<totfact> 0.16265188E+00</totfact>
</mgrwt>
</event>
<event>
 6    1  0.1780144E-005  0.7819163E+03  0.7818608E-02  0.9586568E-01
         -1   -1    0    0    0  501 -0.00000000000E+00  0.00000000000E+00  0.77316824985E+03  0.77316824985E+03  0.00000000000E+00 0.  1.
          1   -1    0    0  501    0  0.00000000000E+00 -0.00000000000E+00 -0.19769083843E+03  0.19769083843E+03  0.00000000000E+00 0. -1.
         23    2    1    2    0    0  0.85642850608E+02  0.37426907532E+03  0.33271252004E+03  0.51660494016E+03  0.93653641710E+02 0.  0.
         13    1    3    3    0    0  0.25958102652E+02  0.59411426707E+02  0.10526355246E+03  0.12362829851E+03  0.00000000000E+00 0.  1.
        -13    1    3    3    0    0  0.59684747956E+02  0.31485764861E+03  0.22744896759E+03  0.39297664165E+03  0.00000000000E+00 0. -1.
         22    1    1    2    0    0 -0.85642850608E+02 -0.37426907532E+03  0.24276489138E+03  0.45425414812E+03  0.00000000000E+00 0. -1.
<mgrwt>
<rscale>  0 0.78191631E+03</rscale>
<asrwt>0</asrwt>
<pdfrwt beam="1">  1        1 0.30413975E-01 0.78191631E+03</pdfrwt>
<pdfrwt beam="2">  1       -1 0.11894896E+00 0.78191631E+03</pdfrwt>
<totfact> 0.96867198E+01</totfact>
</mgrwt>
</event>
<event>
 6    1  0.1780144E-005  0.2041003E+04  0.7818608E-02  0.8587687E-01
         -2   -1    0    0    0  501 -0.00000000000E+00  0.00000000000E+00  0.13469640749E+04  0.13469640749E+04  0.00000000000E+00 0.  1.
          2   -1    0    0  501    0  0.00000000000E+00 -0.00000000000E+00 -0.77316360801E+03  0.77316360801E+03  0.00000000000E+00 0. -1.
         23    2    1    2    0    0  0.97554101210E+03 -0.19220534859E+02 -0.15856602578E+02  0.98006402030E+03  0.90688239554E+02 0.  0.
         11    1    3    3    0    0  0.45691865876E+03  0.17269958864E+02  0.29428861794E+02  0.45819097558E+03  0.00000000000E+00 0.  1.
        -11    1    3    3    0    0  0.51862235334E+03 -0.36490493723E+02 -0.45285464372E+02  0.52187304471E+03  0.00000000000E+00 0. -1.
         22    1    1    2    0    0 -0.97554101210E+03  0.19220534859E+02  0.58965706947E+03  0.11400636626E+04  0.00000000000E+00 0. -1.
<mgrwt>
<rscale>  0 0.20410033E+04</rscale>
<asrwt>0</asrwt>
<pdfrwt beam="1">  1        2 0.11894825E+00 0.20410033E+04</pdfrwt>
<pdfrwt beam="2">  1       -2 0.20722524E+00 0.20410033E+04</pdfrwt>
<totfact> 0.39799948E+00</totfact>
</mgrwt>
</event>
<event>
 6    1  0.1780144E-005  0.3231725E+04  0.7818608E-02  0.8180489E-01
          2   -1    0    0  501    0  0.00000000000E+00  0.00000000000E+00  0.23981657733E+04  0.23981657733E+04  0.00000000000E+00 0. -1.
         -2   -1    0    0    0  501 -0.00000000000E+00 -0.00000000000E+00 -0.10887537572E+04  0.10887537572E+04  0.00000000000E+00 0.  1.
         23    2    1    2    0    0  0.55733908423E+03  0.19824580887E+03 -0.96563929958E+03  0.11362203272E+04  0.92785341249E+02 0.  0.
         13    1    3    3    0    0  0.28732990604E+03  0.14441391635E+03 -0.47519417032E+03  0.57377988257E+03  0.00000000000E+00 0. -1.
        -13    1    3    3    0    0  0.27000917819E+03  0.53831892521E+02 -0.49044512926E+03  0.56244044465E+03  0.00000000000E+00 0.  1.
         22    1    1    2    0    0 -0.55733908423E+03 -0.19824580887E+03  0.22750513156E+04  0.23506992033E+04  0.00000000000E+00 0. -1.
<mgrwt>
<rscale>  0 0.32317252E+04</rscale>
<asrwt>0</asrwt>
<pdfrwt beam="1">  1        2 0.36894858E+00 0.32317252E+04</pdfrwt>
<pdfrwt beam="2">  1       -2 0.16750058E+00 0.32317252E+04</pdfrwt>
<totfact> 0.74324856E-01</totfact>
</mgrwt>
</event>
<event>
 6    1  0.1780144E-005  0.3660588E+04  0.7818608E-02  0.8076753E-01
          2   -1    0    0  501    0  0.00000000000E+00  0.00000000000E+00  0.26800924670E+04  0.26800924670E+04  0.00000000000E+00 0. -1.
         -2   -1    0    0    0  501 -0.00000000000E+00 -0.00000000000E+00 -0.12499480795E+04  0.12499480795E+04  0.00000000000E+00 0.  1.
         23    2    1    2    0    0 -0.71328759653E+02 -0.18259381093E+04  0.62785370030E+03  0.19343431452E+04  0.91352960986E+02 0.  0.
         13    1    3    3    0    0 -0.86626284505E+02 -0.13722857323E+04  0.44903990913E+03  0.14464816225E+04  0.00000000000E+00 0. -1.
        -13    1    3    3    0    0  0.15297524852E+02 -0.45365237699E+03  0.17881379117E+03  0.48786152270E+03  0.00000000000E+00 0.  1.
         22    1    1    2    0    0  0.71328759653E+02  0.18259381093E+04  0.80229068718E+03  0.19956974013E+04  0.00000000000E+00 0.  1.
<mgrwt>
<rscale>  0 0.36605882E+04</rscale>
<asrwt>0</asrwt>
<pdfrwt beam="1">  1        2 0.41232192E+00 0.36605882E+04</pdfrwt>
<pdfrwt beam="2">  1       -2 0.19229971E+00 0.36605882E+04</pdfrwt>
<totfact> 0.33101636E-01</totfact>
</mgrwt>
</event>
<event>
 6    1  0.1780144E-005  0.1697923E+04  0.7818608E-02  0.8762550E-01
         -1   -1    0    0    0  501 -0.00000000000E+00  0.00000000000E+00  0.38999662658E+03  0.38999662658E+03  0.00000000000E+00 0.  1.
          1   -1    0    0  501    0  0.00000000000E+00 -0.00000000000E+00 -0.18480557101E+04  0.18480557101E+04  0.00000000000E+00 0. -1.
         23    2    1    2    0    0  0.43878311279E+03 -0.37185009480E+03  0.87606534903E+02  0.58884485518E+03  0.90885892431E+02 0.  0.
         13    1    3    3    0    0  0.14024282948E+03 -0.15204464359E+03 -0.43038880579E+01  0.20689163423E+03  0.00000000000E+00 0. -1.
        -13    1    3    3    0    0  0.29854028331E+03 -0.21980545121E+03  0.91910422961E+02  0.38195322095E+03  0.00000000000E+00 0.  1.
         22    1    1    2    0    0 -0.43878311279E+03  0.37185009480E+03 -0.15456656184E+04  0.16492074815E+04  0.00000000000E+00 0. -1.
<mgrwt>
<rscale>  0 0.16979228E+04</rscale>
<asrwt>0</asrwt>
<pdfrwt beam="1">  1        1 0.28431626E+00 0.16979228E+04</pdfrwt>
<pdfrwt beam="2">  1       -1 0.59999481E-01 0.16979228E+04</pdfrwt>
<totfact> 0.10131038E+01</totfact>
</mgrwt>
</event>
<event>
 6    1  0.1780144E-005  0.2307177E+04  0.7818608E-02  0.8475097E-01
          2   -1    0    0  501    0  0.00000000000E+00  0.00000000000E+00  0.28782136924E+04  0.28782136924E+04  0.00000000000E+00 0.  1.
         -2   -1    0    0    0  501 -0.00000000000E+00 -0.00000000000E+00 -0.46235830188E+03  0.46235830188E+03  0.00000000000E+00 0. -1.
         23    2    1    2    0    0 -0.96635266541E+03 -0.35669060807E+03  0.46364060393E+03  0.11332640781E+04  0.90880125932E+02 0.  0.
         13    1    3    3    0    0 -0.42470347269E+03 -0.11306458174E+03  0.17707885485E+03  0.47382861902E+03  0.00000000000E+00 0. -1.
        -13    1    3    3    0    0 -0.54164919272E+03 -0.24362602633E+03  0.28656174908E+03  0.65943545910E+03  0.00000000000E+00 0.  1.
         22    1    1    2    0    0  0.96635266541E+03  0.35669060807E+03  0.19522147866E+04  0.22073079162E+04  0.00000000000E+00 0.  1.
<mgrwt>
<rscale>  0 0.23071766E+04</rscale>
<asrwt>0</asrwt>
<pdfrwt beam="1">  1        2 0.44280209E+00 0.23071766E+04</pdfrwt>
<pdfrwt beam="2">  1       -2 0.71132048E-01 0.23071766E+04</pdfrwt>
<totfact> 0.33711090E+00</totfact>
</mgrwt>
</event>
<event>
 6    1  0.1780144E-005  0.2572890E+04  0.7818608E-02  0.8377469E-01
         -1   -1    0    0    0  501 -0.00000000000E+00  0.00000000000E+00  0.73936180259E+03  0.73936180259E+03  0.00000000000E+00 0.  1.
          1   -1    0    0  501    0  0.00000000000E+00 -0.00000000000E+00 -0.22383361514E+04  0.22383361514E+04  0.00000000000E+00 0. -1.
         23    2    1    2    0    0  0.11048120509E+04 -0.20979031967E+03 -0.31295549595E+02  0.11287245351E+04  0.91749761839E+02 0.  0.
         11    1    3    3    0    0  0.62354687644E+03 -0.10599926366E+03  0.26288848029E+02  0.63303843054E+03  0.00000000000E+00 0. -1.
        -11    1    3    3    0    0  0.48126517443E+03 -0.10379105601E+03 -0.57584397625E+02  0.49568610459E+03  0.00000000000E+00 0.  1.
         22    1    1    2    0    0 -0.11048120509E+04  0.20979031967E+03 -0.14676787992E+04  0.18489734188E+04  0.00000000000E+00 0. -1.
<mgrwt>
<rscale>  0 0.25728896E+04</rscale>
<asrwt>0</asrwt>
<pdfrwt beam="1">  1        1 0.34435940E+00 0.25728896E+04</pdfrwt>
<pdfrwt beam="2">  1       -1 0.11374797E+00 0.25728896E+04</pdfrwt>
<totfact> 0.12755881E+00</totfact>
</mgrwt>
</event>
<event>
 6    1  0.1780144E-005  0.4778360E+03  0.7818608E-02  0.1019732E+00
          1   -1    0    0  501    0  0.00000000000E+00  0.00000000000E+00  0.23493591145E+03  0.23493591145E+03  0.00000000000E+00 0. -1.
         -1   -1    0    0    0  501 -0.00000000000E+00 -0.00000000000E+00 -0.24296754477E+03  0.24296754477E+03  0.00000000000E+00 0.  1.
         23    2    1    2    0    0  0.11190662471E+03 -0.14558824381E+03  0.13464543435E+03  0.24536147069E+03  0.91399282936E+02 0.  0.
         11    1    3    3    0    0  0.51600586341E+02 -0.14105027673E+02  0.10014629521E+02  0.54423020137E+02  0.00000000000E+00 0. -1.
        -11    1    3    3    0    0  0.60306038368E+02 -0.13148321614E+03  0.12463080483E+03  0.19093845056E+03  0.00000000000E+00 0.  1.
         22    1    1    2    0    0 -0.11190662471E+03  0.14558824381E+03 -0.14267706767E+03  0.23254198552E+03  0.00000000000E+00 0.  1.
<mgrwt>
<rscale>  0 0.47783596E+03</rscale>
<asrwt>0</asrwt>
<pdfrwt beam="1">  1        1 0.36143986E-01 0.47783596E+03</pdfrwt>
<pdfrwt beam="2">  1       -1 0.37379622E-01 0.47783596E+03</pdfrwt>
<totfact> 0.83484720E+02</totfact>
</mgrwt>
</event>
<event>
 6    1  0.1780144E-005  0.1404052E+04  0.7818608E-02  0.8950891E-01
          2   -1    0    0  501    0  0.00000000000E+00  0.00000000000E+00  0.10011277977E+04  0.10011277977E+04  0.00000000000E+00 0. -1.
         -2   -1    0    0    0  501 -0.00000000000E+00 -0.00000000000E+00 -0.49228531449E+03  0.49228531449E+03  0.00000000000E+00 0.  1.
         23    2    1    2    0    0  0.33456267243E+03 -0.93490688741E+02  0.90083847042E+03  0.96964451385E+03  0.89598229803E+02 0.  0.
         13    1    3    3    0    0  0.21775615597E+03 -0.69417122153E+02  0.47031781814E+03  0.52291044202E+03  0.00000000000E+00 0. -1.
        -13    1    3    3    0    0  0.11680651646E+03 -0.24073566588E+02  0.43052065228E+03  0.44673407183E+03  0.00000000000E+00 0.  1.
         22    1    1    2    0    0 -0.33456267243E+03  0.93490688741E+02 -0.39199598718E+03  0.52376859837E+03  0.00000000000E+00 0.  1.
<mgrwt>
<rscale>  0 0.14040520E+04</rscale>
<asrwt>0</asrwt>
<pdfrwt beam="1">  1        2 0.15401966E+00 0.14040520E+04</pdfrwt>
<pdfrwt beam="2">  1       -2 0.75736203E-01 0.14040520E+04</pdfrwt>
<totfact> 0.38241654E+01</totfact>
</mgrwt>
</event>
<event>
 6    1  0.1780144E-005  0.1209607E+04  0.7818608E-02  0.9104489E-01
         -1   -1    0    0    0  501 -0.00000000000E+00  0.00000000000E+00  0.11652634679E+04  0.11652634679E+04  0.00000000000E+00 0.  1.
          1   -1    0    0  501    0  0.00000000000E+00 -0.00000000000E+00 -0.31390943397E+03  0.31390943397E+03  0.00000000000E+00 0. -1.
         23    2    1    2    0    0  0.23235927393E+03 -0.43308610443E+03  0.85179495939E+03  0.98769085694E+03  0.91783277455E+02 0.  0.
         11    1    3    3    0    0  0.70911888999E+02 -0.22818651242E+03  0.41992655304E+03  0.48315203653E+03  0.00000000000E+00 0. -1.
        -11    1    3    3    0    0  0.16144738493E+03 -0.20489959201E+03  0.43186840634E+03  0.50453882041E+03  0.00000000000E+00 0.  1.
         22    1    1    2    0    0 -0.23235927393E+03  0.43308610443E+03 -0.44092549212E+00  0.49148204489E+03  0.00000000000E+00 0. -1.
<mgrwt>
<rscale>  0 0.12096069E+04</rscale>
<asrwt>0</asrwt>
<pdfrwt beam="1">  1        1 0.48293760E-01 0.12096069E+04</pdfrwt>
<pdfrwt beam="2">  1       -1 0.17927130E+00 0.12096069E+04</pdfrwt>
<totfact> 0.17214088E+01</totfact>
</mgrwt>
</event>
<event>
 6    1  0.1780144E-005  0.1206965E+04  0.7818608E-02  0.9106782E-01
          2   -1    0    0  501    0  0.00000000000E+00  0.00000000000E+00  0.16637484157E+04  0.16637484157E+04  0.00000000000E+00 0. -1.
         -2   -1    0    0    0  501 -0.00000000000E+00 -0.00000000000E+00 -0.21889804368E+03  0.21889804368E+03  0.00000000000E+00 0.  1.
         23    2    1    2    0    0 -0.42364553881E+03 -0.10269554324E+03  0.84351836344E+02  0.45401838225E+03  0.94844831029E+02 0.  0.
         13    1    3    3    0    0 -0.10655257903E+03 -0.50332262330E+02  0.58579773961E+02  0.13159931096E+03  0.00000000000E+00 0. -1.
        -13    1    3    3    0    0 -0.31709295978E+03 -0.52363280911E+02  0.25772062383E+02  0.32241907129E+03  0.00000000000E+00 0.  1.
         22    1    1    2    0    0  0.42364553881E+03  0.10269554324E+03  0.13604985356E+04  0.14286280771E+04  0.00000000000E+00 0. -1.
<mgrwt>
<rscale>  0 0.12069652E+04</rscale>
<asrwt>0</asrwt>
<pdfrwt beam="1">  1        2 0.25596129E+00 0.12069652E+04</pdfrwt>
<pdfrwt beam="2">  1       -2 0.33676623E-01 0.12069652E+04</pdfrwt>
<totfact> 0.83534363E+01</totfact>
</mgrwt>
</event>
<event>
 6    1  0.1780144E-005  0.3235237E+04  0.7818608E-02  0.8179573E-01
         -1   -1    0    0    0  501 -0.00000000000E+00  0.00000000000E+00  0.12061206884E+04  0.12061206884E+04  0.00000000000E+00 0.  1.
          1   -1    0    0  501    0  0.00000000000E+00 -0.00000000000E+00 -0.21695083710E+04  0.21695083710E+04  0.00000000000E+00 0. -1.
         23    2    1    2    0    0 -0.99780896072E+03  0.12396881680E+04 -0.77717127570E+03  0.17734037238E+04  0.92282716927E+02 0.  0.
         13    1    3    3    0    0 -0.65182135331E+03  0.75143175718E+03 -0.51364989652E+03  0.11195342686E+04  0.00000000000E+00 0. -1.
        -13    1    3    3    0    0 -0.34598760741E+03  0.48825641078E+03 -0.26352137918E+03  0.65386945519E+03  0.00000000000E+00 0.  1.
         22    1    1    2    0    0  0.99780896072E+03 -0.12396881680E+04 -0.18621640686E+03  0.16022253356E+04  0.00000000000E+00 0. -1.
<mgrwt>
<rscale>  0 0.32352366E+04</rscale>
<asrwt>0</asrwt>
<pdfrwt beam="1">  1        1 0.33377052E+00 0.32352366E+04</pdfrwt>
<pdfrwt beam="2">  1       -1 0.18555703E+00 0.32352366E+04</pdfrwt>
<totfact> 0.36206443E-01</totfact>
</mgrwt>
</event>
<event>
 6    1  0.1780144E-005  0.2204201E+04  0.7818608E-02  0.8516682E-01
         -2   -1    0    0    0  501 -0.00000000000E+00  0.00000000000E+00  0.51614528543E+03  0.51614528543E+03  0.00000000000E+00 0.  1.
          2   -1    0    0  501    0  0.00000000000E+00 -0.00000000000E+00 -0.23532625407E+04  0.23532625407E+04  0.00000000000E+00 0. -1.
         23    2    1    2    0    0 -0.10848580298E+04 -0.61382526121E+02 -0.69539437593E+03  0.12932682725E+04  0.91020476702E+02 0.  0.
         11    1    3    3    0    0 -0.97681974832E+03 -0.27908774528E+02 -0.61858384230E+03  0.11565473144E+04  0.00000000000E+00 0.  1.
        -11    1    3    3    0    0 -0.10803828150E+03 -0.33473751592E+02 -0.76810533626E+02  0.13672095812E+03  0.00000000000E+00 0. -1.
         22    1    1    2    0    0  0.10848580298E+04  0.61382526121E+02 -0.11417228794E+04  0.15761395537E+04  0.00000000000E+00 0.  1.
<mgrwt>
<rscale>  0 0.22042009E+04</rscale>
<asrwt>0</asrwt>
<pdfrwt beam="1">  1        2 0.36204039E+00 0.22042009E+04</pdfrwt>
<pdfrwt beam="2">  1       -2 0.79406966E-01 0.22042009E+04</pdfrwt>
<totfact> 0.54298890E+00</totfact>
</mgrwt>
</event>
<event>
 6    1  0.1780144E-005  0.3108904E+04  0.7818608E-02  0.8213298E-01
          2   -1    0    0  501    0  0.00000000000E+00  0.00000000000E+00  0.29590541855E+04  0.29590541855E+04  0.00000000000E+00 0. -1.
         -2   -1    0    0    0  501 -0.00000000000E+00 -0.00000000000E+00 -0.81658572105E+03  0.81658572105E+03  0.00000000000E+00 0.  1.
         23    2    1    2    0    0 -0.12768038816E+04 -0.48661453420E+03  0.19688794111E+04  0.23982674019E+04  0.90435274873E+02 0.  0.
         13    1    3    3    0    0 -0.21932887733E+03 -0.51172667340E+02  0.34948575611E+03  0.41576927741E+03  0.00000000000E+00 0. -1.
        -13    1    3    3    0    0 -0.10574750043E+04 -0.43544186686E+03  0.16193936550E+04  0.19824981245E+04  0.00000000000E+00 0.  1.
         22    1    1    2    0    0  0.12768038816E+04  0.48661453420E+03  0.17358905335E+03  0.13773725046E+04  0.00000000000E+00 0.  1.
<mgrwt>
<rscale>  0 0.31089042E+04</rscale>
<asrwt>0</asrwt>
<pdfrwt beam="1">  1        2 0.45523910E+00 0.31089042E+04</pdfrwt>
<pdfrwt beam="2">  1       -2 0.12562857E+00 0.31089042E+04</pdfrwt>
<totfact> 0.74138865E-01</totfact>
</mgrwt>
</event>
<event>
 6    1  0.1780144E-005  0.8314995E+03  0.7818608E-02  0.9515510E-01
         -1   -1    0    0    0  501 -0.00000000000E+00  0.00000000000E+00  0.11382673756E+03  0.11382673756E+03  0.00000000000E+00 0.  1.
          1   -1    0    0  501    0  0.00000000000E+00 -0.00000000000E+00 -0.15185172592E+04  0.15185172592E+04  0.00000000000E+00 0. -1.
         23    2    1    2    0    0  0.34698620798E+02 -0.39587792420E+03 -0.91329925028E+03  0.10003719193E+04  0.93301292267E+02 0.  0.
         13    1    3    3    0    0 -0.20773942209E+02 -0.23446154645E+03 -0.47815377542E+03  0.53294915930E+03  0.00000000000E+00 0. -1.
        -13    1    3    3    0    0  0.55472563006E+02 -0.16141637774E+03 -0.43514547486E+03  0.46742275997E+03  0.00000000000E+00 0.  1.
         22    1    1    2    0    0 -0.34698620798E+02  0.39587792420E+03 -0.49139127133E+03  0.63197207746E+03  0.00000000000E+00 0.  1.
<mgrwt>
<rscale>  0 0.83149953E+03</rscale>
<asrwt>0</asrwt>
<pdfrwt beam="1">  1        1 0.23361804E+00 0.83149953E+03</pdfrwt>
<pdfrwt beam="2">  1       -1 0.17511806E-01 0.83149953E+03</pdfrwt>
<totfact> 0.16421902E+02</totfact>
</mgrwt>
</event>
<event>
 6    1  0.1780144E-005  0.4891137E+04  0.7818608E-02  0.7845523E-01
         -2   -1    0    0    0  501 -0.00000000000E+00  0.00000000000E+00  0.17737091664E+04  0.17737091664E+04  0.00000000000E+00 0.  1.
          2   -1    0    0  501    0  0.00000000000E+00 -0.00000000000E+00 -0.33719205323E+04  0.33719205323E+04  0.00000000000E+00 0. -1.
         23    2    1    2    0    0  0.42331284187E+03  0.43139207163E+03  0.16927066875E+04  0.17996717617E+04  0.90937553476E+02 0.  0.
         11    1    3    3    0    0  0.20527985362E+03  0.14607286924E+03  0.71837568016E+03  0.76127571830E+03  0.00000000000E+00 0. -1.
        -11    1    3    3    0    0  0.21803298825E+03  0.28531920239E+03  0.97433100730E+03  0.10383960434E+04  0.00000000000E+00 0.  1.
         22    1    1    2    0    0 -0.42331284187E+03 -0.43139207163E+03 -0.32909180534E+04  0.33459579369E+04  0.00000000000E+00 0. -1.
<mgrwt>
<rscale>  0 0.48911374E+04</rscale>
<asrwt>0</asrwt>
<pdfrwt beam="1">  1        2 0.51875701E+00 0.48911374E+04</pdfrwt>
<pdfrwt beam="2">  1       -2 0.27287833E+00 0.48911374E+04</pdfrwt>
<totfact> 0.34003067E-02</totfact>
</mgrwt>
</event>
<event>
 6    1  0.1780144E-005  0.2234501E+04  0.7818608E-02  0.8504204E-01
          2   -1    0    0  501    0  0.00000000000E+00  0.00000000000E+00  0.25518337830E+04  0.25518337830E+04  0.00000000000E+00 0. -1.
         -2   -1    0    0    0  501 -0.00000000000E+00 -0.00000000000E+00 -0.48915750857E+03  0.48915750857E+03  0.00000000000E+00 0.  1.
         23    2    1    2    0    0 -0.44752548364E+03  0.10195563991E+04  0.11205727609E+04  0.15824532085E+04  0.93276659215E+02 0.  0.
         13    1    3    3    0    0 -0.24089499192E+03  0.65200206070E+03  0.72280478173E+03  0.10027880318E+04  0.00000000000E+00 0. -1.
        -13    1    3    3    0    0 -0.20663049172E+03  0.36755433844E+03  0.39776797912E+03  0.57966517666E+03  0.00000000000E+00 0.  1.
         22    1    1    2    0    0  0.44752548364E+03 -0.10195563991E+04  0.94210351359E+03  0.14585380831E+04  0.00000000000E+00 0.  1.
<mgrwt>
<rscale>  0 0.22345010E+04</rscale>
<asrwt>0</asrwt>
<pdfrwt beam="1">  1        2 0.39258980E+00 0.22345010E+04</pdfrwt>
<pdfrwt beam="2">  1       -2 0.75255003E-01 0.22345010E+04</pdfrwt>
<totfact> 0.46915403E+00</totfact>
</mgrwt>
</event>
<event>
 6    1  0.1780144E-005  0.9222575E+03  0.7818608E-02  0.9398178E-01
         -2   -1    0    0    0  501 -0.00000000000E+00  0.00000000000E+00  0.68185662821E+03  0.68185662821E+03  0.00000000000E+00 0. -1.
          2   -1    0    0  501    0  0.00000000000E+00 -0.00000000000E+00 -0.31185402486E+03  0.31185402486E+03  0.00000000000E+00 0.  1.
         23    2    1    2    0    0 -0.16608928502E+03 -0.39579082968E+03  0.35557450179E+03  0.56424097828E+03  0.87741801845E+02 0.  0.
         13    1    3    3    0    0 -0.59788470023E+02 -0.67703494610E+02  0.10155020354E+03  0.13590757216E+03  0.00000000000E+00 0. -1.
        -13    1    3    3    0    0 -0.10630081500E+03 -0.32808733506E+03  0.25402429825E+03  0.42833340612E+03  0.00000000000E+00 0.  1.
         22    1    1    2    0    0  0.16608928502E+03  0.39579082968E+03  0.14428101553E+02  0.42946967480E+03  0.00000000000E+00 0.  1.
<mgrwt>
<rscale>  0 0.92225752E+03</rscale>
<asrwt>0</asrwt>
<pdfrwt beam="1">  1        2 0.47977542E-01 0.92225752E+03</pdfrwt>
<pdfrwt beam="2">  1       -2 0.10490102E+00 0.92225752E+03</pdfrwt>
<totfact> 0.77638453E+01</totfact>
</mgrwt>
</event>
<event>
 6    1  0.1780144E-005  0.3135394E+04  0.7818608E-02  0.8206091E-01
          1   -1    0    0  501    0  0.00000000000E+00  0.00000000000E+00  0.17408883714E+04  0.17408883714E+04  0.00000000000E+00 0. -1.
         -1   -1    0    0    0  501 -0.00000000000E+00 -0.00000000000E+00 -0.14117357830E+04  0.14117357830E+04  0.00000000000E+00 0.  1.
         23    2    1    2    0    0  0.30036257404E+03 -0.49273666976E+03 -0.12986612443E+04  0.14255500461E+04  0.11253801483E+03 0.  0.
         13    1    3    3    0    0  0.86232265004E+02 -0.24626561602E+03 -0.54731506643E+03  0.60633038775E+03  0.00000000000E+00 0. -1.
        -13    1    3    3    0    0  0.21413030904E+03 -0.24647105374E+03 -0.75134617788E+03  0.81921965833E+03  0.00000000000E+00 0.  1.
         22    1    1    2    0    0 -0.30036257404E+03  0.49273666976E+03  0.16278138327E+04  0.17270741083E+04  0.00000000000E+00 0. -1.
<mgrwt>
<rscale>  0 0.31353943E+04</rscale>
<asrwt>0</asrwt>
<pdfrwt beam="1">  1        1 0.26782898E+00 0.31353943E+04</pdfrwt>
<pdfrwt beam="2">  1       -1 0.21719012E+00 0.31353943E+04</pdfrwt>
<totfact> 0.43221167E-01</totfact>
</mgrwt>
</event>
<event>
 6    1  0.1780144E-005  0.1758128E+04  0.7818608E-02  0.8728889E-01
         -2   -1    0    0    0  501 -0.00000000000E+00  0.00000000000E+00  0.57083705869E+03  0.57083705869E+03  0.00000000000E+00 0.  1.
          2   -1    0    0  501    0  0.00000000000E+00 -0.00000000000E+00 -0.13537203822E+04  0.13537203822E+04  0.00000000000E+00 0. -1.
         23    2    1    2    0    0  0.28817251739E+03  0.17861938971E+03  0.49254990556E+03  0.60483087528E+03  0.90921350974E+02 0.  0.
         11    1    3    3    0    0  0.12660282782E+03  0.29297592909E+02  0.20606111833E+03  0.24361405840E+03  0.00000000000E+00 0. -1.
        -11    1    3    3    0    0  0.16156968957E+03  0.14932179680E+03  0.28648878723E+03  0.36121681688E+03  0.00000000000E+00 0.  1.
         22    1    1    2    0    0 -0.28817251739E+03 -0.17861938971E+03 -0.12754332290E+04  0.13197265656E+04  0.00000000000E+00 0. -1.
<mgrwt>
<rscale>  0 0.17581283E+04</rscale>
<asrwt>0</asrwt>
<pdfrwt beam="1">  1        2 0.20826467E+00 0.17581283E+04</pdfrwt>
<pdfrwt beam="2">  1       -2 0.87821088E-01 0.17581283E+04</pdfrwt>
<totfact> 0.16297096E+01</totfact>
</mgrwt>
</event>
<event>
 6    1  0.1780144E-005  0.2913465E+04  0.7818608E-02  0.8268883E-01
          1   -1    0    0  501    0  0.00000000000E+00  0.00000000000E+00  0.27727963727E+04  0.27727963727E+04  0.00000000000E+00 0. -1.
         -1   -1    0    0    0  501 -0.00000000000E+00 -0.00000000000E+00 -0.76531746976E+03  0.76531746976E+03  0.00000000000E+00 0.  1.
         23    2    1    2    0    0  0.12401979430E+04 -0.30802644124E+03  0.18505765491E+04  0.22506397360E+04  0.88172734490E+02 0.  0.
         13    1    3    3    0    0  0.43884159017E+03 -0.10774421780E+03  0.72972365696E+03  0.85830494188E+03  0.00000000000E+00 0.  1.
        -13    1    3    3    0    0  0.80135635279E+03 -0.20028222344E+03  0.11208528921E+04  0.13923347941E+04  0.00000000000E+00 0. -1.
         22    1    1    2    0    0 -0.12401979430E+04  0.30802644124E+03  0.15690235391E+03  0.12874741065E+04  0.00000000000E+00 0. -1.
<mgrwt>
<rscale>  0 0.29134650E+04</rscale>
<asrwt>0</asrwt>
<pdfrwt beam="1">  1        1 0.42658405E+00 0.29134650E+04</pdfrwt>
<pdfrwt beam="2">  1       -1 0.11774115E+00 0.29134650E+04</pdfrwt>
<totfact> 0.48422054E-01</totfact>
</mgrwt>
</event>
<event>
 6    1  0.1780144E-005  0.2100188E+04  0.7818608E-02  0.8561160E-01
         -2   -1    0    0    0  501 -0.00000000000E+00  0.00000000000E+00  0.40215257579E+03  0.40215257579E+03  0.00000000000E+00 0.  1.
          2   -1    0    0  501    0  0.00000000000E+00 -0.00000000000E+00 -0.27419888912E+04  0.27419888912E+04  0.00000000000E+00 0. -1.
         23    2    1    2    0    0  0.87839080229E+03  0.11883617740E+03 -0.33504285888E+03  0.95213570925E+03  0.92823773462E+02 0.  0.
         13    1    3    3    0    0  0.32513319546E+03  0.53833172380E+02 -0.17177289234E+03  0.37163898044E+03  0.00000000000E+00 0.  1.
        -13    1    3    3    0    0  0.55325760683E+03  0.65003005019E+02 -0.16326996654E+03  0.58049672880E+03  0.00000000000E+00 0. -1.
         22    1    1    2    0    0 -0.87839080229E+03 -0.11883617740E+03 -0.20047934565E+04  0.21920057577E+04  0.00000000000E+00 0. -1.
<mgrwt>
<rscale>  0 0.21001885E+04</rscale>
<asrwt>0</asrwt>
<pdfrwt beam="1">  1        2 0.42184445E+00 0.21001885E+04</pdfrwt>
<pdfrwt beam="2">  1       -2 0.61869626E-01 0.21001885E+04</pdfrwt>
<totfact> 0.56093876E+00</totfact>
</mgrwt>
</event>
<event>
 6    1  0.1780144E-005  0.1579812E+04  0.7818608E-02  0.8833047E-01
         -1   -1    0    0    0  501 -0.00000000000E+00  0.00000000000E+00  0.13252831536E+04  0.13252831536E+04  0.00000000000E+00 0.  1.
          1   -1    0    0  501    0  0.00000000000E+00 -0.00000000000E+00 -0.47080639678E+03  0.47080639678E+03  0.00000000000E+00 0. -1.
         23    2    1    2    0    0  0.24755069850E+03 -0.36606308342E+03  0.11693688251E+04  0.12534657913E+04  0.92029948033E+02 0.  0.
         13    1    3    3    0    0  0.21087623209E+03 -0.30000828042E+03  0.85834557399E+03  0.93339749195E+03  0.00000000000E+00 0. -1.
        -13    1    3    3    0    0  0.36674466414E+02 -0.66054803002E+02  0.31102325112E+03  0.32006829931E+03  0.00000000000E+00 0.  1.
         22    1    1    2    0    0 -0.24755069850E+03  0.36606308342E+03 -0.31489206824E+03  0.54262375917E+03  0.00000000000E+00 0. -1.
<mgrwt>
<rscale>  0 0.15798124E+04</rscale>
<asrwt>0</asrwt>
<pdfrwt beam="1">  1        1 0.72431754E-01 0.15798124E+04</pdfrwt>
<pdfrwt beam="2">  1       -1 0.20388971E+00 0.15798124E+04</pdfrwt>
<totfact> 0.65470911E+00</totfact>
</mgrwt>
</event>
<event>
 6    1  0.1780144E-005  0.1321248E+04  0.7818608E-02  0.9012883E-01
         -2   -1    0    0    0  501 -0.00000000000E+00  0.00000000000E+00  0.38702768299E+03  0.38702768299E+03  0.00000000000E+00 0.  1.
          2   -1    0    0  501    0  0.00000000000E+00 -0.00000000000E+00 -0.11276306923E+04  0.11276306923E+04  0.00000000000E+00 0. -1.
         23    2    1    2    0    0  0.14576484504E+03 -0.24084235593E+03  0.30902958584E+03  0.42792887111E+03  0.91495373385E+02 0.  0.
         13    1    3    3    0    0  0.15473474551E+03 -0.19353126409E+03  0.25514245206E+03  0.35566116248E+03  0.00000000000E+00 0. -1.
        -13    1    3    3    0    0 -0.89699004717E+01 -0.47311091835E+02  0.53887133774E+02  0.72267708636E+02  0.00000000000E+00 0.  1.
         22    1    1    2    0    0 -0.14576484504E+03  0.24084235593E+03 -0.10496325951E+04  0.10867295042E+04  0.00000000000E+00 0. -1.
<mgrwt>
<rscale>  0 0.13212483E+04</rscale>
<asrwt>0</asrwt>
<pdfrwt beam="1">  1        2 0.17348164E+00 0.13212483E+04</pdfrwt>
<pdfrwt beam="2">  1       -2 0.59542721E-01 0.13212483E+04</pdfrwt>
<totfact> 0.53973807E+01</totfact>
</mgrwt>
</event>
<event>
 6    1  0.1780144E-005  0.2356925E+04  0.7818608E-02  0.8455808E-01
          2   -1    0    0  501    0  0.00000000000E+00  0.00000000000E+00  0.11674500615E+04  0.11674500615E+04  0.00000000000E+00 0. -1.
         -2   -1    0    0    0  501 -0.00000000000E+00 -0.00000000000E+00 -0.11895792095E+04  0.11895792095E+04  0.00000000000E+00 0.  1.
         23    2    1    2    0    0 -0.10313968266E+04  0.52867054888E+03 -0.21405058948E+03  0.11822502268E+04  0.92876157542E+02 0.  0.
         11    1    3    3    0    0 -0.32508059254E+03  0.13280784863E+03 -0.95630529977E+02  0.36395125301E+03  0.00000000000E+00 0. -1.
        -11    1    3    3    0    0 -0.70631623409E+03  0.39586270024E+03 -0.11842005950E+03  0.81829897377E+03  0.00000000000E+00 0.  1.
         22    1    1    2    0    0  0.10313968266E+04 -0.52867054888E+03  0.19192144148E+03  0.11747790443E+04  0.00000000000E+00 0. -1.
<mgrwt>
<rscale>  0 0.23569254E+04</rscale>
<asrwt>0</asrwt>
<pdfrwt beam="1">  1        2 0.17960770E+00 0.23569254E+04</pdfrwt>
<pdfrwt beam="2">  1       -2 0.18301219E+00 0.23569254E+04</pdfrwt>
<totfact> 0.30909543E+00</totfact>
</mgrwt>
</event>
<event>
 6    1  0.1780144E-005  0.1268216E+04  0.7818608E-02  0.9055157E-01
         -2   -1    0    0    0  501 -0.00000000000E+00  0.00000000000E+00  0.12937240896E+03  0.12937240896E+03  0.00000000000E+00 0.  1.
          2   -1    0    0  501    0  0.00000000000E+00 -0.00000000000E+00 -0.31080274165E+04  0.31080274165E+04  0.00000000000E+00 0. -1.
         23    2    1    2    0    0  0.30934089022E+03 -0.30001880772E+03 -0.26734245390E+04  0.27093196135E+04  0.86665627276E+02 0.  0.
         13    1    3    3    0    0  0.18135077955E+03 -0.18346136753E+03 -0.18496875506E+04  0.18675894125E+04  0.00000000000E+00 0. -1.
        -13    1    3    3    0    0  0.12799011067E+03 -0.11655744019E+03 -0.82373698835E+03  0.84173020099E+03  0.00000000000E+00 0.  1.
         22    1    1    2    0    0 -0.30934089022E+03  0.30001880772E+03 -0.30523046851E+03  0.52808021195E+03  0.00000000000E+00 0.  1.
<mgrwt>
<rscale>  0 0.12682161E+04</rscale>
<asrwt>0</asrwt>
<pdfrwt beam="1">  1        2 0.47815807E+00 0.12682161E+04</pdfrwt>
<pdfrwt beam="2">  1       -2 0.19903447E-01 0.12682161E+04</pdfrwt>
<totfact> 0.31941560E+01</totfact>
</mgrwt>
</event>
<event>
 6    1  0.1780144E-005  0.3720601E+04  0.7818608E-02  0.8063412E-01
          2   -1    0    0  501    0  0.00000000000E+00  0.00000000000E+00  0.16306552561E+04  0.16306552561E+04  0.00000000000E+00 0. -1.
         -2   -1    0    0    0  501 -0.00000000000E+00 -0.00000000000E+00 -0.21222862433E+04  0.21222862433E+04  0.00000000000E+00 0.  1.
         23    2    1    2    0    0  0.10205901875E+04  0.88965446726E+03  0.10391907222E+04  0.17092916987E+04  0.93120095571E+02 0.  0.
         11    1    3    3    0    0  0.25939912208E+03  0.23500901149E+03  0.21910546320E+03  0.41294593353E+03  0.00000000000E+00 0. -1.
        -11    1    3    3    0    0  0.76119106538E+03  0.65464545577E+03  0.82008525899E+03  0.12963457651E+04  0.00000000000E+00 0.  1.
         22    1    1    2    0    0 -0.10205901875E+04 -0.88965446726E+03 -0.15308217094E+04  0.20436498007E+04  0.00000000000E+00 0.  1.
<mgrwt>
<rscale>  0 0.37206006E+04</rscale>
<asrwt>0</asrwt>
<pdfrwt beam="1">  1        2 0.25087004E+00 0.37206006E+04</pdfrwt>
<pdfrwt beam="2">  1       -2 0.32650557E+00 0.37206006E+04</pdfrwt>
<totfact> 0.18876250E-01</totfact>
</mgrwt>
</event>
<event>
 6    1  0.2190405E-005  0.2302963E+04  0.7818608E-02  0.8476754E-01
          1   -1    0    0  501    0  0.00000000000E+00  0.00000000000E+00  0.98352860964E+03  0.98352860964E+03  0.00000000000E+00 0. -1.
         -1   -1    0    0    0  501 -0.00000000000E+00 -0.00000000000E+00 -0.13481144336E+04  0.13481144336E+04  0.00000000000E+00 0.  1.
         23    2    1    2    0    0  0.45162278187E+03  0.24314425253E+03 -0.12244090926E+04  0.13304545906E+04  0.88597555162E+02 0.  0.
         13    1    3    3    0    0  0.29386848970E+03  0.15421639220E+03 -0.67897917795E+03  0.75574738435E+03  0.00000000000E+00 0.  1.
        -13    1    3    3    0    0  0.15775429217E+03  0.88927860326E+02 -0.54542991467E+03  0.57470720620E+03  0.00000000000E+00 0. -1.
         22    1    1    2    0    0 -0.45162278187E+03 -0.24314425253E+03  0.85982326861E+03  0.10011884527E+04  0.00000000000E+00 0. -1.
<mgrwt>
<rscale>  0 0.23029625E+04</rscale>
<asrwt>0</asrwt>
<pdfrwt beam="1">  1        1 0.15131209E+00 0.23029625E+04</pdfrwt>
<pdfrwt beam="2">  1       -1 0.20740222E+00 0.23029625E+04</pdfrwt>
<totfact> 0.18861185E+00</totfact>
</mgrwt>
</event>
<event>
 6    1  0.1780144E-005  0.1351561E+04  0.7818608E-02  0.8989647E-01
          2   -1    0    0  501    0  0.00000000000E+00  0.00000000000E+00  0.12245502749E+04  0.12245502749E+04  0.00000000000E+00 0. -1.
         -2   -1    0    0    0  501 -0.00000000000E+00 -0.00000000000E+00 -0.37293628223E+03  0.37293628223E+03  0.00000000000E+00 0.  1.
         23    2    1    2    0    0  0.93751906770E+02 -0.49179447419E+03 -0.10318532556E+03  0.51938963989E+03  0.92017181822E+02 0.  0.
         11    1    3    3    0    0  0.10575884278E+03 -0.32493854247E+03 -0.72052714456E+02  0.34922998564E+03  0.00000000000E+00 0. -1.
        -11    1    3    3    0    0 -0.12006936005E+02 -0.16685593172E+03 -0.31132611101E+02  0.17015965425E+03  0.00000000000E+00 0.  1.
         22    1    1    2    0    0 -0.93751906770E+02  0.49179447419E+03  0.95479931822E+03  0.10780969172E+04  0.00000000000E+00 0. -1.
<mgrwt>
<rscale>  0 0.13515609E+04</rscale>
<asrwt>0</asrwt>
<pdfrwt beam="1">  1        2 0.18839235E+00 0.13515609E+04</pdfrwt>
<pdfrwt beam="2">  1       -2 0.57374813E-01 0.13515609E+04</pdfrwt>
<totfact> 0.50899175E+01</totfact>
</mgrwt>
</event>
<event>
 6    1  0.1780144E-005  0.4004038E+04  0.7818608E-02  0.8003733E-01
          2   -1    0    0  501    0  0.00000000000E+00  0.00000000000E+00  0.22212126959E+04  0.22212126959E+04  0.00000000000E+00 0. -1.
         -2   -1    0    0    0  501 -0.00000000000E+00 -0.00000000000E+00 -0.18044553243E+04  0.18044553243E+04  0.00000000000E+00 0.  1.
         23    2    1    2    0    0 -0.10299155097E+04 -0.24114971869E+03 -0.14994180026E+04  0.18369224414E+04  0.84561015822E+02 0.  0.
         13    1    3    3    0    0 -0.64410976278E+03 -0.10862140278E+03 -0.92634370313E+03  0.11334851794E+04  0.00000000000E+00 0. -1.
        -13    1    3    3    0    0 -0.38580574689E+03 -0.13252831591E+03 -0.57307429946E+03  0.70343726199E+03  0.00000000000E+00 0.  1.
         22    1    1    2    0    0  0.10299155097E+04  0.24114971869E+03  0.19161753742E+04  0.21887455788E+04  0.00000000000E+00 0. -1.
<mgrwt>
<rscale>  0 0.40040375E+04</rscale>
<asrwt>0</asrwt>
<pdfrwt beam="1">  1        2 0.34172503E+00 0.40040375E+04</pdfrwt>
<pdfrwt beam="2">  1       -2 0.27760851E+00 0.40040375E+04</pdfrwt>
<totfact> 0.17255147E-01</totfact>
</mgrwt>
</event>
<event>
 6    1  0.1780144E-005  0.2732818E+04  0.7818608E-02  0.8324435E-01
         -1   -1    0    0    0  501 -0.00000000000E+00  0.00000000000E+00  0.11926173687E+04  0.11926173687E+04  0.00000000000E+00 0.  1.
          1   -1    0    0  501    0  0.00000000000E+00 -0.00000000000E+00 -0.15655256595E+04  0.15655256595E+04  0.00000000000E+00 0. -1.
         23    2    1    2    0    0 -0.11021315302E+04  0.77220470188E+03  0.43158324905E+02  0.13495602509E+04  0.91957698599E+02 0.  0.
         13    1    3    3    0    0 -0.52470152913E+03  0.33169051577E+03  0.55049871851E+02  0.62318599255E+03  0.00000000000E+00 0. -1.
        -13    1    3    3    0    0 -0.57743000110E+03  0.44051418611E+03 -0.11891546946E+02  0.72637425837E+03  0.00000000000E+00 0.  1.
         22    1    1    2    0    0  0.11021315302E+04 -0.77220470188E+03 -0.41606661570E+03  0.14085827772E+04  0.00000000000E+00 0. -1.
<mgrwt>
<rscale>  0 0.27328177E+04</rscale>
<asrwt>0</asrwt>
<pdfrwt beam="1">  1        1 0.24085010E+00 0.27328177E+04</pdfrwt>
<pdfrwt beam="2">  1       -1 0.18347960E+00 0.27328177E+04</pdfrwt>
<totfact> 0.10084376E+00</totfact>
</mgrwt>
</event>
<event>
 6    1  0.1780144E-005  0.2633266E+04  0.7818608E-02  0.8356989E-01
          2   -1    0    0  501    0  0.00000000000E+00  0.00000000000E+00  0.14470801028E+04  0.14470801028E+04  0.00000000000E+00 0.  1.
         -2   -1    0    0    0  501 -0.00000000000E+00 -0.00000000000E+00 -0.11979448166E+04  0.11979448166E+04  0.00000000000E+00 0. -1.
         23    2    1    2    0    0  0.34937577714E+03 -0.10317616039E+04 -0.61537169632E+03  0.12543532242E+04  0.90134596279E+02 0.  0.
         11    1    3    3    0    0  0.17457549334E+03 -0.42619286013E+03 -0.29909772922E+03  0.54915972952E+03  0.00000000000E+00 0.  1.
        -11    1    3    3    0    0  0.17480028380E+03 -0.60556874378E+03 -0.31627396710E+03  0.70519349467E+03  0.00000000000E+00 0. -1.
         22    1    1    2    0    0 -0.34937577714E+03  0.10317616039E+04  0.86450698258E+03  0.13906716952E+04  0.00000000000E+00 0.  1.
<mgrwt>
<rscale>  0 0.26332657E+04</rscale>
<asrwt>0</asrwt>
<pdfrwt beam="1">  1        2 0.22262771E+00 0.26332657E+04</pdfrwt>
<pdfrwt beam="2">  1       -2 0.18429920E+00 0.26332657E+04</pdfrwt>
<totfact> 0.20329197E+00</totfact>
</mgrwt>
</event>
<event>
 6    1  0.1780144E-005  0.1770600E+04  0.7818608E-02  0.8722092E-01
          1   -1    0    0  501    0  0.00000000000E+00  0.00000000000E+00  0.12143437595E+04  0.12143437595E+04  0.00000000000E+00 0. -1.
         -1   -1    0    0    0  501 -0.00000000000E+00 -0.00000000000E+00 -0.64541538559E+03  0.64541538559E+03  0.00000000000E+00 0.  1.
         23    2    1    2    0    0 -0.85803129945E+03 -0.18150356602E+03  0.39297730307E+03  0.96526485518E+03  0.90243141628E+02 0.  0.
         13    1    3    3    0    0 -0.42938182289E+03 -0.46576209061E+02  0.20647258968E+03  0.47871601536E+03  0.00000000000E+00 0. -1.
        -13    1    3    3    0    0 -0.42864947656E+03 -0.13492735696E+03  0.18650471339E+03  0.48654883982E+03  0.00000000000E+00 0.  1.
         22    1    1    2    0    0  0.85803129945E+03  0.18150356602E+03  0.17595107083E+03  0.89449428989E+03  0.00000000000E+00 0. -1.
<mgrwt>
<rscale>  0 0.17706001E+04</rscale>
<asrwt>0</asrwt>
<pdfrwt beam="1">  1        1 0.18682212E+00 0.17706001E+04</pdfrwt>
<pdfrwt beam="2">  1       -1 0.99294675E-01 0.17706001E+04</pdfrwt>
<totfact> 0.95590789E+00</totfact>
</mgrwt>
</event>
<event>
 6    1  0.1780144E-005  0.2075946E+04  0.7818608E-02  0.8571914E-01
          1   -1    0    0  501    0  0.00000000000E+00  0.00000000000E+00  0.11132193079E+04  0.11132193079E+04  0.00000000000E+00 0. -1.
         -1   -1    0    0    0  501 -0.00000000000E+00 -0.00000000000E+00 -0.96781272833E+03  0.96781272833E+03  0.00000000000E+00 0.  1.
         23    2    1    2    0    0 -0.40753891558E+03 -0.88632038733E+03  0.42232466797E+03  0.10669632889E+04  0.91655539259E+02 0.  0.
         11    1    3    3    0    0 -0.14161400315E+03 -0.38867943492E+03  0.14585897135E+03  0.43863546202E+03  0.00000000000E+00 0. -1.
        -11    1    3    3    0    0 -0.26592491243E+03 -0.49764095241E+03  0.27646569662E+03  0.62832782683E+03  0.00000000000E+00 0.  1.
         22    1    1    2    0    0  0.40753891558E+03  0.88632038733E+03 -0.27691808841E+03  0.10140687474E+04  0.00000000000E+00 0.  1.
<mgrwt>
<rscale>  0 0.20759459E+04</rscale>
<asrwt>0</asrwt>
<pdfrwt beam="1">  1        1 0.17126451E+00 0.20759459E+04</pdfrwt>
<pdfrwt beam="2">  1       -1 0.14889427E+00 0.20759459E+04</pdfrwt>
<totfact> 0.40650728E+00</totfact>
</mgrwt>
</event>
<event>
 6    1  0.1780144E-005  0.1099467E+04  0.7818608E-02  0.9205712E-01
         -1   -1    0    0    0  501 -0.00000000000E+00  0.00000000000E+00  0.29028776517E+03  0.29028776517E+03  0.00000000000E+00 0.  1.
          1   -1    0    0  501    0  0.00000000000E+00 -0.00000000000E+00 -0.10410594674E+04  0.10410594674E+04  0.00000000000E+00 0. -1.
         23    2    1    2    0    0  0.13707725676E+03  0.10976947780E+03 -0.10046490005E+04  0.10226512735E+04  0.75209709827E+02 0.  0.
         13    1    3    3    0    0  0.79163743746E+02  0.88012791818E+02 -0.48064210658E+03  0.49500503479E+03  0.00000000000E+00 0. -1.
        -13    1    3    3    0    0  0.57913513017E+02  0.21756685980E+02 -0.52400689389E+03  0.52764623871E+03  0.00000000000E+00 0.  1.
         22    1    1    2    0    0 -0.13707725676E+03 -0.10976947780E+03  0.25387729825E+03  0.30869595907E+03  0.00000000000E+00 0.  1.
<mgrwt>
<rscale>  0 0.10994668E+04</rscale>
<asrwt>0</asrwt>
<pdfrwt beam="1">  1        1 0.16016300E+00 0.10994668E+04</pdfrwt>
<pdfrwt beam="2">  1       -1 0.44659656E-01 0.10994668E+04</pdfrwt>
<totfact> 0.69558557E+01</totfact>
</mgrwt>
</event>
<event>
 6    1  0.1780144E-005  0.2827493E+04  0.7818608E-02  0.8294783E-01
          1   -1    0    0  501    0  0.00000000000E+00  0.00000000000E+00  0.26398649300E+04  0.26398649300E+04  0.00000000000E+00 0. -1.
         -1   -1    0    0    0  501 -0.00000000000E+00 -0.00000000000E+00 -0.75711401824E+03  0.75711401824E+03  0.00000000000E+00 0.  1.
         23    2    1    2    0    0 -0.38406823530E+02 -0.76440583130E+03 -0.48365264916E+03  0.90988080539E+03  0.90398207745E+02 0.  0.
         13    1    3    3    0    0  0.15868386881E+02 -0.35981956992E+03 -0.26192787523E+03  0.44534047696E+03  0.00000000000E+00 0. -1.
        -13    1    3    3    0    0 -0.54275210411E+02 -0.40458626138E+03 -0.22172477393E+03  0.46454032843E+03  0.00000000000E+00 0.  1.
         22    1    1    2    0    0  0.38406823530E+02  0.76440583130E+03  0.23664035610E+04  0.24870981429E+04  0.00000000000E+00 0. -1.
<mgrwt>
<rscale>  0 0.28274927E+04</rscale>
<asrwt>0</asrwt>
<pdfrwt beam="1">  1        1 0.40613306E+00 0.28274927E+04</pdfrwt>
<pdfrwt beam="2">  1       -1 0.11647908E+00 0.28274927E+04</pdfrwt>
<totfact> 0.62165299E-01</totfact>
</mgrwt>
</event>
<event>
 6    1  0.1780144E-005  0.2466400E+04  0.7818608E-02  0.8415054E-01
         -1   -1    0    0    0  501 -0.00000000000E+00  0.00000000000E+00  0.15653793906E+04  0.15653793906E+04  0.00000000000E+00 0.  1.
          1   -1    0    0  501    0  0.00000000000E+00 -0.00000000000E+00 -0.97151049953E+03  0.97151049953E+03  0.00000000000E+00 0. -1.
         23    2    1    2    0    0  0.32101575514E+03  0.82235197513E+03  0.11802626396E+04  0.14770920253E+04  0.97298853818E+02 0.  0.
         13    1    3    3    0    0  0.29911096307E+03  0.68808942300E+03  0.96344658633E+03  0.12211321579E+04  0.00000000000E+00 0. -1.
        -13    1    3    3    0    0  0.21904792060E+02  0.13426255213E+03  0.21681605322E+03  0.25595986747E+03  0.00000000000E+00 0.  1.
         22    1    1    2    0    0 -0.32101575514E+03 -0.82235197513E+03 -0.58639374846E+03  0.10597978648E+04  0.00000000000E+00 0. -1.
<mgrwt>
<rscale>  0 0.24664002E+04</rscale>
<asrwt>0</asrwt>
<pdfrwt beam="1">  1        1 0.14946315E+00 0.24664002E+04</pdfrwt>
<pdfrwt beam="2">  1       -1 0.24082760E+00 0.24664002E+04</pdfrwt>
<totfact> 0.11365849E+00</totfact>
</mgrwt>
</event>
<event>
 6    1  0.1780144E-005  0.3218405E+04  0.7818608E-02  0.8183973E-01
         -2   -1    0    0    0  501 -0.00000000000E+00  0.00000000000E+00  0.73313892950E+03  0.73313892950E+03  0.00000000000E+00 0.  1.
          2   -1    0    0  501    0  0.00000000000E+00 -0.00000000000E+00 -0.35321179245E+04  0.35321179245E+04  0.00000000000E+00 0. -1.
         23    2    1    2    0    0 -0.11469628920E+03  0.15915873671E+04 -0.11388877769E+04  0.19626043752E+04  0.91896569019E+02 0.  0.
         13    1    3    3    0    0 -0.57164716332E+02  0.12856901409E+04 -0.90681006447E+03  0.15743479400E+04  0.00000000000E+00 0.  1.
        -13    1    3    3    0    0 -0.57531572873E+02  0.30589722622E+03 -0.23207771245E+03  0.38825643523E+03  0.00000000000E+00 0. -1.
         22    1    1    2    0    0  0.11469628920E+03 -0.15915873671E+04 -0.16600912181E+04  0.23026524788E+04  0.00000000000E+00 0.  1.
<mgrwt>
<rscale>  0 0.32184053E+04</rscale>
<asrwt>0</asrwt>
<pdfrwt beam="1">  1        2 0.54340275E+00 0.32184053E+04</pdfrwt>
<pdfrwt beam="2">  1       -2 0.11279061E+00 0.32184053E+04</pdfrwt>
<totfact> 0.40061400E-01</totfact>
</mgrwt>
</event>
<event>
 6    1  0.2582699E-005  0.4057026E+04  0.7818608E-02  0.7993140E-01
         -1   -1    0    0    0  501 -0.00000000000E+00  0.00000000000E+00  0.21293194896E+04  0.21293194896E+04  0.00000000000E+00 0.  1.
          1   -1    0    0  501    0  0.00000000000E+00 -0.00000000000E+00 -0.19324789732E+04  0.19324789732E+04  0.00000000000E+00 0. -1.
         23    2    1    2    0    0  0.52348708040E+03  0.76047850928E+03 -0.17087418875E+04  0.19443446652E+04  0.91164974795E+02 0.  0.
         13    1    3    3    0    0  0.16049925506E+03  0.29003115619E+03 -0.55111846845E+03  0.64312490910E+03  0.00000000000E+00 0. -1.
        -13    1    3    3    0    0  0.36298782534E+03  0.47044735309E+03 -0.11576234191E+04  0.13012197561E+04  0.00000000000E+00 0.  1.
         22    1    1    2    0    0 -0.52348708040E+03 -0.76047850928E+03  0.19055824040E+04  0.21174537976E+04  0.00000000000E+00 0.  1.
<mgrwt>
<rscale>  0 0.40570261E+04</rscale>
<asrwt>0</asrwt>
<pdfrwt beam="1">  1        1 0.29730446E+00 0.40570261E+04</pdfrwt>
<pdfrwt beam="2">  1       -1 0.32758762E+00 0.40570261E+04</pdfrwt>
<totfact> 0.56313842E-02</totfact>
</mgrwt>
</event>
<event>
 6    1  0.1780144E-005  0.5045248E+04  0.7818608E-02  0.7821565E-01
          1   -1    0    0  501    0  0.00000000000E+00  0.00000000000E+00  0.29943187886E+04  0.29943187886E+04  0.00000000000E+00 0. -1.
         -1   -1    0    0    0  501 -0.00000000000E+00 -0.00000000000E+00 -0.21252354623E+04  0.21252354623E+04  0.00000000000E+00 0.  1.
         23    2    1    2    0    0 -0.39168680399E+03 -0.20210610223E+04 -0.10430541820E+04  0.23098610188E+04  0.96900420967E+02 0.  0.
         11    1    3    3    0    0 -0.15200795176E+03 -0.68551109487E+03 -0.30902334565E+03  0.76715533417E+03  0.00000000000E+00 0.  1.
        -11    1    3    3    0    0 -0.23967885223E+03 -0.13355499274E+04 -0.73403083634E+03  0.15427056847E+04  0.00000000000E+00 0. -1.
         22    1    1    2    0    0  0.39168680399E+03  0.20210610223E+04  0.19121375083E+04  0.28096932321E+04  0.00000000000E+00 0. -1.
<mgrwt>
<rscale>  0 0.50452482E+04</rscale>
<asrwt>0</asrwt>
<pdfrwt beam="1">  1        1 0.46066443E+00 0.50452482E+04</pdfrwt>
<pdfrwt beam="2">  1       -1 0.32695930E+00 0.50452482E+04</pdfrwt>
<totfact> 0.95675564E-03</totfact>
</mgrwt>
</event>
<event>
 6    1  0.1780144E-005  0.1152185E+04  0.7818608E-02  0.9155771E-01
         -2   -1    0    0    0  501 -0.00000000000E+00  0.00000000000E+00  0.74832800599E+03  0.74832800599E+03  0.00000000000E+00 0.  1.
          2   -1    0    0  501    0  0.00000000000E+00 -0.00000000000E+00 -0.44349847480E+03  0.44349847480E+03  0.00000000000E+00 0. -1.
         23    2    1    2    0    0  0.79422618158E+02 -0.18793010549E+03  0.70663808357E+03  0.74118716872E+03  0.91626203126E+02 0.  0.
         13    1    3    3    0    0 -0.16290585552E+02 -0.50833007718E+02  0.22866769481E+03  0.23481544349E+03  0.00000000000E+00 0.  1.
        -13    1    3    3    0    0  0.95713203710E+02 -0.13709709777E+03  0.47797038876E+03  0.50637172523E+03  0.00000000000E+00 0. -1.
         22    1    1    2    0    0 -0.79422618158E+02  0.18793010549E+03 -0.40180855237E+03  0.45063931207E+03  0.00000000000E+00 0. -1.
<mgrwt>
<rscale>  0 0.11521846E+04</rscale>
<asrwt>0</asrwt>
<pdfrwt beam="1">  1        2 0.68230535E-01 0.11521846E+04</pdfrwt>
<pdfrwt beam="2">  1       -2 0.11512739E+00 0.11521846E+04</pdfrwt>
<totfact> 0.41149769E+01</totfact>
</mgrwt>
</event>
<event>
 6    1  0.1780144E-005  0.3373488E+04  0.7818608E-02  0.8144444E-01
         -2   -1    0    0    0  501 -0.00000000000E+00  0.00000000000E+00  0.96515881594E+03  0.96515881594E+03  0.00000000000E+00 0.  1.
          2   -1    0    0  501    0  0.00000000000E+00 -0.00000000000E+00 -0.29478110160E+04  0.29478110160E+04  0.00000000000E+00 0. -1.
         23    2    1    2    0    0  0.49483878247E+03  0.92866010826E+02  0.87368098221E+03  0.10126028268E+04  0.92501402504E+02 0.  0.
         11    1    3    3    0    0  0.45086797698E+03  0.10881407999E+03  0.77075696440E+03  0.89954918423E+03  0.00000000000E+00 0.  1.
        -11    1    3    3    0    0  0.43970805482E+02 -0.15948069169E+02  0.10292401782E+03  0.11305364253E+03  0.00000000000E+00 0. -1.
         22    1    1    2    0    0 -0.49483878247E+03 -0.92866010826E+02 -0.28563331822E+04  0.29003670051E+04  0.00000000000E+00 0. -1.
<mgrwt>
<rscale>  0 0.33734883E+04</rscale>
<asrwt>0</asrwt>
<pdfrwt beam="1">  1        2 0.45350938E+00 0.33734883E+04</pdfrwt>
<pdfrwt beam="2">  1       -2 0.14848597E+00 0.33734883E+04</pdfrwt>
<totfact> 0.47926209E-01</totfact>
</mgrwt>
</event>
<event>
 6    1  0.1780144E-005  0.1186820E+04  0.7818608E-02  0.9124472E-01
          2   -1    0    0  501    0  0.00000000000E+00  0.00000000000E+00  0.43375035597E+03  0.43375035597E+03  0.00000000000E+00 0. -1.
         -2   -1    0    0    0  501 -0.00000000000E+00 -0.00000000000E+00 -0.81183889632E+03  0.81183889632E+03  0.00000000000E+00 0.  1.
         23    2    1    2    0    0 -0.42293480030E+03  0.40685434995E+03 -0.12574475106E+03  0.60677652905E+03  0.89228394637E+02 0.  0.
         11    1    3    3    0    0 -0.14036161848E+03  0.19042662345E+03 -0.32132439780E+02  0.23873872025E+03  0.00000000000E+00 0.  1.
        -11    1    3    3    0    0 -0.28257318182E+03  0.21642772649E+03 -0.93612311276E+02  0.36803780880E+03  0.00000000000E+00 0. -1.
         22    1    1    2    0    0  0.42293480030E+03 -0.40685434995E+03 -0.25234378930E+03  0.63881272324E+03  0.00000000000E+00 0. -1.
<mgrwt>
<rscale>  0 0.11868200E+04</rscale>
<asrwt>0</asrwt>
<pdfrwt beam="1">  1        2 0.66730825E-01 0.11868200E+04</pdfrwt>
<pdfrwt beam="2">  1       -2 0.12489829E+00 0.11868200E+04</pdfrwt>
<totfact> 0.34400170E+01</totfact>
</mgrwt>
</event>
<event>
 6    1  0.1780144E-005  0.1196461E+04  0.7818608E-02  0.9115960E-01
         -2   -1    0    0    0  501 -0.00000000000E+00  0.00000000000E+00  0.11522564372E+04  0.11522564372E+04  0.00000000000E+00 0.  1.
          2   -1    0    0  501    0  0.00000000000E+00 -0.00000000000E+00 -0.31059017263E+03  0.31059017263E+03  0.00000000000E+00 0. -1.
         23    2    1    2    0    0  0.16069117957E+03  0.38169578716E+03  0.94511293485E+03  0.10359806558E+04  0.92217842638E+02 0.  0.
         11    1    3    3    0    0  0.46160717033E+02  0.14682765970E+03  0.45854697819E+03  0.48368843759E+03  0.00000000000E+00 0. -1.
        -11    1    3    3    0    0  0.11453046254E+03  0.23486812747E+03  0.48656595666E+03  0.55229221824E+03  0.00000000000E+00 0.  1.
         22    1    1    2    0    0 -0.16069117957E+03 -0.38169578716E+03 -0.10344667025E+03  0.42686595404E+03  0.00000000000E+00 0. -1.
<mgrwt>
<rscale>  0 0.11964607E+04</rscale>
<asrwt>0</asrwt>
<pdfrwt beam="1">  1        2 0.47783104E-01 0.11964607E+04</pdfrwt>
<pdfrwt beam="2">  1       -2 0.17727022E+00 0.11964607E+04</pdfrwt>
<totfact> 0.19723392E+01</totfact>
</mgrwt>
</event>
<event>
 6    1  0.1780144E-005  0.1583105E+04  0.7818608E-02  0.8830995E-01
         -1   -1    0    0    0  501 -0.00000000000E+00  0.00000000000E+00  0.53715494388E+03  0.53715494388E+03  0.00000000000E+00 0.  1.
          1   -1    0    0  501    0  0.00000000000E+00 -0.00000000000E+00 -0.11664329541E+04  0.11664329541E+04  0.00000000000E+00 0. -1.
         23    2    1    2    0    0 -0.36264208105E+03 -0.70051047699E+03 -0.32698414052E+03  0.85883598708E+03  0.91958779991E+02 0.  0.
         13    1    3    3    0    0 -0.16142221135E+03 -0.32593821463E+03 -0.10184371662E+03  0.37771019669E+03  0.00000000000E+00 0.  1.
        -13    1    3    3    0    0 -0.20121986970E+03 -0.37457226237E+03 -0.22514042390E+03  0.48112579038E+03  0.00000000000E+00 0. -1.
         22    1    1    2    0    0  0.36264208105E+03  0.70051047699E+03 -0.30229386969E+03  0.84475191090E+03  0.00000000000E+00 0.  1.
<mgrwt>
<rscale>  0 0.15831048E+04</rscale>
<asrwt>0</asrwt>
<pdfrwt beam="1">  1        1 0.17945122E+00 0.15831048E+04</pdfrwt>
<pdfrwt beam="2">  1       -1 0.82639223E-01 0.15831048E+04</pdfrwt>
<totfact> 0.15815803E+01</totfact>
</mgrwt>
</event>
<event>
 6    1  0.1780144E-005  0.3161820E+04  0.7818608E-02  0.8198974E-01
         -2   -1    0    0    0  501 -0.00000000000E+00  0.00000000000E+00  0.20842368687E+04  0.20842368687E+04  0.00000000000E+00 0.  1.
          2   -1    0    0  501    0  0.00000000000E+00 -0.00000000000E+00 -0.11991326983E+04  0.11991326983E+04  0.00000000000E+00 0. -1.
         23    2    1    2    0    0  0.17395194830E+03  0.12946998345E+04 -0.47948820848E+03  0.13942906110E+04  0.87352299483E+02 0.  0.
         13    1    3    3    0    0  0.64104305034E+02  0.51234660408E+03 -0.23494851948E+03  0.56728230313E+03  0.00000000000E+00 0. -1.
        -13    1    3    3    0    0  0.10984764327E+03  0.78235323038E+03 -0.24453968899E+03  0.82700830788E+03  0.00000000000E+00 0.  1.
         22    1    1    2    0    0 -0.17395194830E+03 -0.12946998345E+04  0.13645923789E+04  0.18890789560E+04  0.00000000000E+00 0.  1.
<mgrwt>
<rscale>  0 0.31618201E+04</rscale>
<asrwt>0</asrwt>
<pdfrwt beam="1">  1        2 0.18448195E+00 0.31618201E+04</pdfrwt>
<pdfrwt beam="2">  1       -2 0.32065182E+00 0.31618201E+04</pdfrwt>
<totfact> 0.37993969E-01</totfact>
</mgrwt>
</event>
<event>
 6    1  0.1780144E-005  0.2649439E+04  0.7818608E-02  0.8351599E-01
         -1   -1    0    0    0  501 -0.00000000000E+00  0.00000000000E+00  0.13549335473E+04  0.13549335473E+04  0.00000000000E+00 0.  1.
          1   -1    0    0  501    0  0.00000000000E+00 -0.00000000000E+00 -0.12951796779E+04  0.12951796779E+04  0.00000000000E+00 0. -1.
         23    2    1    2    0    0 -0.36644056322E+03  0.97630850486E+02  0.12978339874E+04  0.13552569212E+04  0.92400184393E+02 0.  0.
         11    1    3    3    0    0 -0.24242255871E+03  0.10041362564E+03  0.96568196590E+03  0.10006963837E+04  0.00000000000E+00 0. -1.
        -11    1    3    3    0    0 -0.12401800451E+03 -0.27827751544E+01  0.33215202153E+03  0.35456053741E+03  0.00000000000E+00 0.  1.
         22    1    1    2    0    0  0.36644056322E+03 -0.97630850486E+02 -0.12380801181E+04  0.12948563040E+04  0.00000000000E+00 0. -1.
<mgrwt>
<rscale>  0 0.26494395E+04</rscale>
<asrwt>0</asrwt>
<pdfrwt beam="1">  1        1 0.19925841E+00 0.26494395E+04</pdfrwt>
<pdfrwt beam="2">  1       -1 0.20845132E+00 0.26494395E+04</pdfrwt>
<totfact> 0.10532212E+00</totfact>
</mgrwt>
</event>
<event>
 6    1  0.1780144E-005  0.1451806E+04  0.7818608E-02  0.8917150E-01
         -1   -1    0    0    0  501 -0.00000000000E+00  0.00000000000E+00  0.72979582371E+03  0.72979582371E+03  0.00000000000E+00 0.  1.
          1   -1    0    0  501    0  0.00000000000E+00 -0.00000000000E+00 -0.72203069209E+03  0.72203069209E+03  0.00000000000E+00 0. -1.
         23    2    1    2    0    0  0.84171962058E+02 -0.14085128351E+03  0.70877063869E+03  0.73187323662E+03  0.79740911402E+02 0.  0.
         11    1    3    3    0    0  0.89547459480E+02 -0.78442218169E+02  0.43199885102E+03  0.44810148000E+03  0.00000000000E+00 0. -1.
        -11    1    3    3    0    0 -0.53754974219E+01 -0.62409065346E+02  0.27677178767E+03  0.28377175663E+03  0.00000000000E+00 0.  1.
         22    1    1    2    0    0 -0.84171962058E+02  0.14085128351E+03 -0.70100550707E+03  0.71995327918E+03  0.00000000000E+00 0. -1.
<mgrwt>
<rscale>  0 0.14518057E+04</rscale>
<asrwt>0</asrwt>
<pdfrwt beam="1">  1        1 0.11108165E+00 0.14518057E+04</pdfrwt>
<pdfrwt beam="2">  1       -1 0.11227628E+00 0.14518057E+04</pdfrwt>
<totfact> 0.18347312E+01</totfact>
</mgrwt>
</event>
<event>
 6    1  0.1780144E-005  0.2218456E+04  0.7818608E-02  0.8510785E-01
         -2   -1    0    0    0  501 -0.00000000000E+00  0.00000000000E+00  0.57922172021E+03  0.57922172021E+03  0.00000000000E+00 0.  1.
          2   -1    0    0  501    0  0.00000000000E+00 -0.00000000000E+00 -0.21242064414E+04  0.21242064414E+04  0.00000000000E+00 0. -1.
         23    2    1    2    0    0  0.29160825818E+03  0.31453743157E+03 -0.20178438936E+04  0.20650200093E+04  0.92975737110E+02 0.  0.
         11    1    3    3    0    0  0.20260883590E+03  0.25309039614E+03 -0.13437709004E+04  0.13823260548E+04  0.00000000000E+00 0. -1.
        -11    1    3    3    0    0  0.88999422272E+02  0.61447035428E+02 -0.67407299318E+03  0.68269395446E+03  0.00000000000E+00 0.  1.
         22    1    1    2    0    0 -0.29160825818E+03 -0.31453743157E+03  0.47285917238E+03  0.63840815236E+03  0.00000000000E+00 0.  1.
<mgrwt>
<rscale>  0 0.22184558E+04</rscale>
<asrwt>0</asrwt>
<pdfrwt beam="1">  1        2 0.32680098E+00 0.22184558E+04</pdfrwt>
<pdfrwt beam="2">  1       -2 0.89111036E-01 0.22184558E+04</pdfrwt>
<totfact> 0.56198169E+00</totfact>
</mgrwt>
</event>
<event>
 6    1  0.1780144E-005  0.4751595E+04  0.7818608E-02  0.7868012E-01
          2   -1    0    0  501    0  0.00000000000E+00  0.00000000000E+00  0.40434368198E+04  0.40434368198E+04  0.00000000000E+00 0. -1.
         -2   -1    0    0    0  501 -0.00000000000E+00 -0.00000000000E+00 -0.13959444973E+04  0.13959444973E+04  0.00000000000E+00 0.  1.
         23    2    1    2    0    0 -0.51583102049E+03  0.43437128404E+03  0.39310364023E+04  0.39894690925E+04  0.89757392195E+02 0.  0.
         11    1    3    3    0    0 -0.42668650655E+03  0.39775277530E+03  0.33122643202E+04  0.33632370675E+04  0.00000000000E+00 0.  1.
        -11    1    3    3    0    0 -0.89144513934E+02  0.36618508740E+02  0.61877208206E+03  0.62623202496E+03  0.00000000000E+00 0. -1.
         22    1    1    2    0    0  0.51583102049E+03 -0.43437128404E+03 -0.12835440798E+04  0.14499122246E+04  0.00000000000E+00 0.  1.
<mgrwt>
<rscale>  0 0.47515948E+04</rscale>
<asrwt>0</asrwt>
<pdfrwt beam="1">  1        2 0.62206720E+00 0.47515948E+04</pdfrwt>
<pdfrwt beam="2">  1       -2 0.21476069E+00 0.47515948E+04</pdfrwt>
<totfact> 0.24867527E-02</totfact>
</mgrwt>
</event>
<event>
 6    1  0.1780144E-005  0.2632243E+04  0.7818608E-02  0.8357331E-01
         -2   -1    0    0    0  501 -0.00000000000E+00  0.00000000000E+00  0.15378990206E+04  0.15378990206E+04  0.00000000000E+00 0.  1.
          2   -1    0    0  501    0  0.00000000000E+00 -0.00000000000E+00 -0.11263258726E+04  0.11263258726E+04  0.00000000000E+00 0. -1.
         23    2    1    2    0    0 -0.60174266667E+03 -0.48818867214E+03 -0.86874860656E+03  0.11676801356E+04  0.91270702554E+02 0.  0.
         13    1    3    3    0    0 -0.43683860913E+03 -0.39309554949E+03 -0.69266554808E+03  0.90837087302E+03  0.00000000000E+00 0. -1.
        -13    1    3    3    0    0 -0.16490405754E+03 -0.95093122649E+02 -0.17608305848E+03  0.25930926256E+03  0.00000000000E+00 0.  1.
         22    1    1    2    0    0  0.60174266667E+03  0.48818867214E+03  0.12803217545E+04  0.14965447576E+04  0.00000000000E+00 0.  1.
<mgrwt>
<rscale>  0 0.26322427E+04</rscale>
<asrwt>0</asrwt>
<pdfrwt beam="1">  1        2 0.17328090E+00 0.26322427E+04</pdfrwt>
<pdfrwt beam="2">  1       -2 0.23659985E+00 0.26322427E+04</pdfrwt>
<totfact> 0.14398179E+00</totfact>
</mgrwt>
</event>
<event>
 6    1  0.1780144E-005  0.5622859E+04  0.7818608E-02  0.7739006E-01
         -2   -1    0    0    0  501 -0.00000000000E+00  0.00000000000E+00  0.38835329957E+04  0.38835329957E+04  0.00000000000E+00 0.  1.
          2   -1    0    0  501    0  0.00000000000E+00 -0.00000000000E+00 -0.20352949598E+04  0.20352949598E+04  0.00000000000E+00 0. -1.
         23    2    1    2    0    0  0.15452234537E+03  0.22874305022E+04  0.26359049131E+04  0.34946508649E+04  0.91512287070E+02 0.  0.
         13    1    3    3    0    0  0.74942025212E+02  0.53601476183E+03  0.62770775774E+03  0.82882154965E+03  0.00000000000E+00 0. -1.
        -13    1    3    3    0    0  0.79580320160E+02  0.17514157403E+04  0.20081971554E+04  0.26658293152E+04  0.00000000000E+00 0.  1.
         22    1    1    2    0    0 -0.15452234537E+03 -0.22874305022E+04 -0.78766687730E+03  0.24241770907E+04  0.00000000000E+00 0. -1.
<mgrwt>
<rscale>  0 0.56228588E+04</rscale>
<asrwt>0</asrwt>
<pdfrwt beam="1">  1        2 0.31312230E+00 0.56228588E+04</pdfrwt>
<pdfrwt beam="2">  1       -2 0.59746662E+00 0.56228588E+04</pdfrwt>
<totfact> 0.23392716E-03</totfact>
</mgrwt>
</event>
<event>
 6    1  0.1780144E-005  0.5065011E+04  0.7818608E-02  0.7818556E-01
         -3   -1    0    0    0  501 -0.00000000000E+00  0.00000000000E+00  0.28287467940E+04  0.28287467940E+04  0.00000000000E+00 0.  1.
          3   -1    0    0  501    0  0.00000000000E+00 -0.00000000000E+00 -0.22672884094E+04  0.22672884094E+04  0.00000000000E+00 0. -1.
         23    2    1    2    0    0  0.28813367066E+03 -0.30013467935E+03  0.27934014316E+04  0.28256450160E+04  0.89868575321E+02 0.  0.
         13    1    3    3    0    0  0.79110721678E+01 -0.43786797648E+02  0.23034002345E+03  0.23459836981E+03  0.00000000000E+00 0.  1.
        -13    1    3    3    0    0  0.28022259849E+03 -0.25634788170E+03  0.25630614081E+04  0.25910466462E+04  0.00000000000E+00 0. -1.
         22    1    1    2    0    0 -0.28813367066E+03  0.30013467935E+03 -0.22319430470E+04  0.22703901873E+04  0.00000000000E+00 0. -1.
<mgrwt>
<rscale>  0 0.50650113E+04</rscale>
<asrwt>0</asrwt>
<pdfrwt beam="1">  1        3 0.34881360E+00 0.50650113E+04</pdfrwt>
<pdfrwt beam="2">  1       -3 0.43519181E+00 0.50650113E+04</pdfrwt>
<totfact> 0.26316132E-04</totfact>
</mgrwt>
</event>
<event>
 6    1  0.1780144E-005  0.2820820E+04  0.7818608E-02  0.8296834E-01
         -1   -1    0    0    0  501 -0.00000000000E+00  0.00000000000E+00  0.46389805617E+03  0.46389805617E+03  0.00000000000E+00 0.  1.
          1   -1    0    0  501    0  0.00000000000E+00 -0.00000000000E+00 -0.42881321285E+04  0.42881321285E+04  0.00000000000E+00 0. -1.
         23    2    1    2    0    0 -0.80654488995E+03  0.83920139357E+03 -0.32516286653E+04  0.34548599605E+04  0.90524752945E+02 0.  0.
         11    1    3    3    0    0 -0.21157467854E+03  0.16847799060E+03 -0.71507506718E+03  0.76451359022E+03  0.00000000000E+00 0. -1.
        -11    1    3    3    0    0 -0.59497021141E+03  0.67072340297E+03 -0.25365535981E+04  0.26903463702E+04  0.00000000000E+00 0.  1.
         22    1    1    2    0    0  0.80654488995E+03 -0.83920139357E+03 -0.57260540706E+03  0.12971702243E+04  0.00000000000E+00 0.  1.
<mgrwt>
<rscale>  0 0.28208199E+04</rscale>
<asrwt>0</asrwt>
<pdfrwt beam="1">  1        1 0.65971265E+00 0.28208199E+04</pdfrwt>
<pdfrwt beam="2">  1       -1 0.71368930E-01 0.28208199E+04</pdfrwt>
<totfact> 0.89546404E-02</totfact>
</mgrwt>
</event>
<event>
 6    1  0.1780144E-005  0.3041086E+04  0.7818608E-02  0.8232095E-01
         -1   -1    0    0    0  501 -0.00000000000E+00  0.00000000000E+00  0.87516244902E+03  0.87516244902E+03  0.00000000000E+00 0.  1.
          1   -1    0    0  501    0  0.00000000000E+00 -0.00000000000E+00 -0.26418537013E+04  0.26418537013E+04  0.00000000000E+00 0. -1.
         23    2    1    2    0    0 -0.11694774983E+04  0.70816333553E+03 -0.11834040270E+03  0.13754668391E+04  0.93443275978E+02 0.  0.
         13    1    3    3    0    0 -0.21609530333E+03  0.16350345478E+03 -0.48201830355E+02  0.27523440246E+03  0.00000000000E+00 0.  1.
        -13    1    3    3    0    0 -0.95338219498E+03  0.54465988075E+03 -0.70138572344E+02  0.11002324367E+04  0.00000000000E+00 0. -1.
         22    1    1    2    0    0  0.11694774983E+04 -0.70816333553E+03 -0.16483508496E+04  0.21415493112E+04  0.00000000000E+00 0. -1.
<mgrwt>
<rscale>  0 0.30410861E+04</rscale>
<asrwt>0</asrwt>
<pdfrwt beam="1">  1        1 0.40643903E+00 0.30410861E+04</pdfrwt>
<pdfrwt beam="2">  1       -1 0.13464038E+00 0.30410861E+04</pdfrwt>
<totfact> 0.42398558E-01</totfact>
</mgrwt>
</event>
<event>
 6    1  0.1780144E-005  0.2442745E+04  0.7818608E-02  0.8423672E-01
         -2   -1    0    0    0  501 -0.00000000000E+00  0.00000000000E+00  0.13906111157E+04  0.13906111157E+04  0.00000000000E+00 0. -1.
          2   -1    0    0  501    0  0.00000000000E+00 -0.00000000000E+00 -0.10727305776E+04  0.10727305776E+04  0.00000000000E+00 0.  1.
         23    2    1    2    0    0 -0.40552035235E+02  0.11986738542E+04 -0.64250582533E+02  0.12045773509E+04  0.91733204056E+02 0.  0.
         11    1    3    3    0    0 -0.52596847259E+02  0.10526542133E+04 -0.31457576249E+02  0.10544367692E+04  0.00000000000E+00 0. -1.
        -11    1    3    3    0    0  0.12044812024E+02  0.14601964090E+03 -0.32793006284E+02  0.15014058175E+03  0.00000000000E+00 0.  1.
         22    1    1    2    0    0  0.40552035235E+02 -0.11986738542E+04  0.38213112068E+03  0.12587643424E+04  0.00000000000E+00 0.  1.
<mgrwt>
<rscale>  0 0.24427452E+04</rscale>
<asrwt>0</asrwt>
<pdfrwt beam="1">  1        2 0.16503547E+00 0.24427452E+04</pdfrwt>
<pdfrwt beam="2">  1       -2 0.21394017E+00 0.24427452E+04</pdfrwt>
<totfact> 0.21924388E+00</totfact>
</mgrwt>
</event>
<event>
 6    1  0.1780144E-005  0.3196033E+04  0.7818608E-02  0.8189866E-01
          1   -1    0    0  501    0  0.00000000000E+00  0.00000000000E+00  0.19757292423E+04  0.19757292423E+04  0.00000000000E+00 0. -1.
         -1   -1    0    0    0  501 -0.00000000000E+00 -0.00000000000E+00 -0.12925137885E+04  0.12925137885E+04  0.00000000000E+00 0.  1.
         23    2    1    2    0    0  0.91085350921E+03  0.57770598077E+02 -0.99788261248E+03  0.13553702525E+04  0.90924451630E+02 0.  0.
         13    1    3    3    0    0  0.34603297569E+03  0.52337493823E+02 -0.33486187809E+03  0.48436609184E+03  0.00000000000E+00 0.  1.
        -13    1    3    3    0    0  0.56482053351E+03  0.54331042541E+01 -0.66302073438E+03  0.87100416068E+03  0.00000000000E+00 0. -1.
         22    1    1    2    0    0 -0.91085350921E+03 -0.57770598077E+02  0.16810980663E+04  0.19128727782E+04  0.00000000000E+00 0. -1.
<mgrwt>
<rscale>  0 0.31960333E+04</rscale>
<asrwt>0</asrwt>
<pdfrwt beam="1">  1        1 0.30395834E+00 0.31960333E+04</pdfrwt>
<pdfrwt beam="2">  1       -1 0.19884828E+00 0.31960333E+04</pdfrwt>
<totfact> 0.39711044E-01</totfact>
</mgrwt>
</event>
<event>
 6    1  0.1780144E-005  0.2199978E+04  0.7818608E-02  0.8518437E-01
         -2   -1    0    0    0  501 -0.00000000000E+00  0.00000000000E+00  0.73944977519E+03  0.73944977519E+03  0.00000000000E+00 0.  1.
          2   -1    0    0  501    0  0.00000000000E+00 -0.00000000000E+00 -0.16363189796E+04  0.16363189796E+04  0.00000000000E+00 0. -1.
         23    2    1    2    0    0  0.34333292824E+03 -0.10044810896E+04 -0.14602065859E+03  0.10755252016E+04  0.92588701019E+02 0.  0.
         13    1    3    3    0    0  0.22875759443E+03 -0.73943049496E+03 -0.71458521834E+02  0.77729905071E+03  0.00000000000E+00 0.  1.
        -13    1    3    3    0    0  0.11457533381E+03 -0.26505059463E+03 -0.74562136760E+02  0.29822615088E+03  0.00000000000E+00 0. -1.
         22    1    1    2    0    0 -0.34333292824E+03  0.10044810896E+04 -0.75084854587E+03  0.13002435533E+04  0.00000000000E+00 0. -1.
<mgrwt>
<rscale>  0 0.21999779E+04</rscale>
<asrwt>0</asrwt>
<pdfrwt beam="1">  1        2 0.25174138E+00 0.21999779E+04</pdfrwt>
<pdfrwt beam="2">  1       -2 0.11376150E+00 0.21999779E+04</pdfrwt>
<totfact> 0.58901888E+00</totfact>
</mgrwt>
</event>
<event>
 6    1  0.1780144E-005  0.1710787E+04  0.7818608E-02  0.8755236E-01
         -2   -1    0    0    0  501 -0.00000000000E+00  0.00000000000E+00  0.24322573561E+04  0.24322573561E+04  0.00000000000E+00 0.  1.
          2   -1    0    0  501    0  0.00000000000E+00 -0.00000000000E+00 -0.30083094794E+03  0.30083094794E+03  0.00000000000E+00 0. -1.
         23    2    1    2    0    0 -0.28009264929E+03 -0.35196084458E+03 -0.88472165474E+02  0.46807660308E+03  0.94551858695E+02 0.  0.
         11    1    3    3    0    0 -0.11774515259E+03 -0.14444766144E+03  0.10436330351E+02  0.18664930979E+03  0.00000000000E+00 0.  1.
        -11    1    3    3    0    0 -0.16234749670E+03 -0.20751318313E+03 -0.98908495824E+02  0.28142729328E+03  0.00000000000E+00 0. -1.
         22    1    1    2    0    0  0.28009264929E+03  0.35196084458E+03  0.22198985737E+04  0.22650117010E+04  0.00000000000E+00 0.  1.
<mgrwt>
<rscale>  0 0.17107873E+04</rscale>
<asrwt>0</asrwt>
<pdfrwt beam="1">  1        2 0.46281686E-01 0.17107873E+04</pdfrwt>
<pdfrwt beam="2">  1       -2 0.37419343E+00 0.17107873E+04</pdfrwt>
<totfact> 0.11417379E+00</totfact>
</mgrwt>
</event>
<event>
 6    1  0.1780144E-005  0.2388963E+04  0.7818608E-02  0.8443647E-01
         -1   -1    0    0    0  501 -0.00000000000E+00  0.00000000000E+00  0.70352003162E+03  0.70352003162E+03  0.00000000000E+00 0.  1.
          1   -1    0    0  501    0  0.00000000000E+00 -0.00000000000E+00 -0.20280678711E+04  0.20280678711E+04  0.00000000000E+00 0. -1.
         23    2    1    2    0    0 -0.80184944564E+03  0.65130207591E+02 -0.16700548476E+04  0.18560426040E+04  0.92771096507E+02 0.  0.
         11    1    3    3    0    0 -0.63829488012E+03  0.54325295247E+02 -0.12375803985E+04  0.13935482892E+04  0.00000000000E+00 0. -1.
        -11    1    3    3    0    0 -0.16355456552E+03  0.10804912344E+02 -0.43247444912E+03  0.46249431474E+03  0.00000000000E+00 0.  1.
         22    1    1    2    0    0  0.80184944564E+03 -0.65130207591E+02  0.34550700815E+03  0.87554529871E+03  0.00000000000E+00 0.  1.
<mgrwt>
<rscale>  0 0.23889633E+04</rscale>
<asrwt>0</asrwt>
<pdfrwt beam="1">  1        1 0.31201044E+00 0.23889633E+04</pdfrwt>
<pdfrwt beam="2">  1       -1 0.10823385E+00 0.23889633E+04</pdfrwt>
<totfact> 0.20280617E+00</totfact>
</mgrwt>
</event>
<event>
 6    1  0.1780144E-005  0.1365541E+04  0.7818608E-02  0.8979146E-01
         -1   -1    0    0    0  501 -0.00000000000E+00  0.00000000000E+00  0.47046272880E+03  0.47046272880E+03  0.00000000000E+00 0.  1.
          1   -1    0    0  501    0  0.00000000000E+00 -0.00000000000E+00 -0.99088783702E+03  0.99088783702E+03  0.00000000000E+00 0. -1.
         23    2    1    2    0    0 -0.64402956354E+03 -0.61832687130E+02 -0.38106879851E+02  0.65436343251E+03  0.90233073774E+02 0.  0.
         13    1    3    3    0    0 -0.55114766617E+03 -0.47328245668E+02 -0.67182222172E+00  0.55317643126E+03  0.00000000000E+00 0. -1.
        -13    1    3    3    0    0 -0.92881897377E+02 -0.14504441462E+02 -0.37435057629E+02  0.10118700125E+03  0.00000000000E+00 0.  1.
         22    1    1    2    0    0  0.64402956354E+03  0.61832687130E+02 -0.48231822837E+03  0.80698713331E+03  0.00000000000E+00 0. -1.
<mgrwt>
<rscale>  0 0.13655414E+04</rscale>
<asrwt>0</asrwt>
<pdfrwt beam="1">  1        1 0.15244428E+00 0.13655414E+04</pdfrwt>
<pdfrwt beam="2">  1       -1 0.72378883E-01 0.13655414E+04</pdfrwt>
<totfact> 0.28963334E+01</totfact>
</mgrwt>
</event>
<event>
 6    1  0.1780144E-005  0.2194826E+04  0.7818608E-02  0.8520585E-01
          2   -1    0    0  501    0  0.00000000000E+00  0.00000000000E+00  0.19753143678E+04  0.19753143678E+04  0.00000000000E+00 0. -1.
         -2   -1    0    0    0  501 -0.00000000000E+00 -0.00000000000E+00 -0.60968298630E+03  0.60968298630E+03  0.00000000000E+00 0.  1.
         23    2    1    2    0    0 -0.46806302239E+03 -0.29172473435E+02 -0.48171556245E+03  0.67905277004E+03  0.95544519760E+02 0.  0.
         13    1    3    3    0    0 -0.43595949100E+03 -0.22743116630E+02 -0.40434649506E+03  0.59504118783E+03  0.00000000000E+00 0.  1.
        -13    1    3    3    0    0 -0.32103531396E+02 -0.64293568046E+01 -0.77369067393E+02  0.84011582215E+02  0.00000000000E+00 0. -1.
         22    1    1    2    0    0  0.46806302239E+03  0.29172473435E+02  0.18473469439E+04  0.19059445840E+04  0.00000000000E+00 0. -1.
<mgrwt>
<rscale>  0 0.21948262E+04</rscale>
<asrwt>0</asrwt>
<pdfrwt beam="1">  1        2 0.30389452E+00 0.21948262E+04</pdfrwt>
<pdfrwt beam="2">  1       -2 0.93797383E-01 0.21948262E+04</pdfrwt>
<totfact> 0.60540974E+00</totfact>
</mgrwt>
</event>
<event>
 6    1  0.1780144E-005  0.1804710E+04  0.7818608E-02  0.8703799E-01
          2   -1    0    0  501    0  0.00000000000E+00  0.00000000000E+00  0.13945057703E+04  0.13945057703E+04  0.00000000000E+00 0. -1.
         -2   -1    0    0    0  501 -0.00000000000E+00 -0.00000000000E+00 -0.58389496291E+03  0.58389496291E+03  0.00000000000E+00 0.  1.
         23    2    1    2    0    0 -0.46756643699E+03 -0.74835635553E+03  0.60124028697E+03  0.10714874944E+04  0.89106453822E+02 0.  0.
         13    1    3    3    0    0 -0.23455900696E+03 -0.30330556967E+03  0.23364406096E+03  0.44900082801E+03  0.00000000000E+00 0.  1.
        -13    1    3    3    0    0 -0.23300743004E+03 -0.44505078586E+03  0.36759622601E+03  0.62248666638E+03  0.00000000000E+00 0. -1.
         22    1    1    2    0    0  0.46756643699E+03  0.74835635553E+03  0.20937052038E+03  0.90691323877E+03  0.00000000000E+00 0. -1.
<mgrwt>
<rscale>  0 0.18047104E+04</rscale>
<asrwt>0</asrwt>
<pdfrwt beam="1">  1        2 0.21453935E+00 0.18047104E+04</pdfrwt>
<pdfrwt beam="2">  1       -2 0.89829995E-01 0.18047104E+04</pdfrwt>
<totfact> 0.14601883E+01</totfact>
</mgrwt>
</event>
<event>
 6    1  0.1780144E-005  0.4729148E+04  0.7818608E-02  0.7871703E-01
         -2   -1    0    0    0  501 -0.00000000000E+00  0.00000000000E+00  0.13586312492E+04  0.13586312492E+04  0.00000000000E+00 0. -1.
          2   -1    0    0  501    0  0.00000000000E+00 -0.00000000000E+00 -0.41153261887E+04  0.41153261887E+04  0.00000000000E+00 0.  1.
         23    2    1    2    0    0 -0.16267157252E+04  0.68091350114E+03 -0.32005606384E+04  0.36554789516E+04  0.95345259702E+02 0.  0.
         11    1    3    3    0    0 -0.61134507823E+03  0.24626226953E+03 -0.12909425465E+04  0.14494552661E+04  0.00000000000E+00 0.  1.
        -11    1    3    3    0    0 -0.10153706469E+04  0.43465123161E+03 -0.19096180919E+04  0.22060236854E+04  0.00000000000E+00 0. -1.
         22    1    1    2    0    0  0.16267157252E+04 -0.68091350114E+03  0.44386569895E+03  0.18184784863E+04  0.00000000000E+00 0. -1.
<mgrwt>
<rscale>  0 0.47291482E+04</rscale>
<asrwt>0</asrwt>
<pdfrwt beam="1">  1        2 0.63312710E+00 0.47291482E+04</pdfrwt>
<pdfrwt beam="2">  1       -2 0.20902019E+00 0.47291482E+04</pdfrwt>
<totfact> 0.23617462E-02</totfact>
</mgrwt>
</event>
<event>
 6    1  0.1780144E-005  0.1786954E+04  0.7818608E-02  0.8713268E-01
         -1   -1    0    0    0  501 -0.00000000000E+00  0.00000000000E+00  0.87830841834E+03  0.87830841834E+03  0.00000000000E+00 0.  1.
          1   -1    0    0  501    0  0.00000000000E+00 -0.00000000000E+00 -0.90890759120E+03  0.90890759120E+03  0.00000000000E+00 0. -1.
         23    2    1    2    0    0 -0.10714204619E+03  0.88469851307E+03 -0.15291590150E+02  0.89592189468E+03  0.90946861175E+02 0.  0.
         11    1    3    3    0    0 -0.39083154292E+02  0.55810168111E+03  0.24126389123E+02  0.55998844815E+03  0.00000000000E+00 0.  1.
        -11    1    3    3    0    0 -0.68058891895E+02  0.32659683196E+03 -0.39417979274E+02  0.33593344654E+03  0.00000000000E+00 0. -1.
         22    1    1    2    0    0  0.10714204619E+03 -0.88469851307E+03 -0.15307582710E+02  0.89129411486E+03  0.00000000000E+00 0.  1.
<mgrwt>
<rscale>  0 0.17869540E+04</rscale>
<asrwt>0</asrwt>
<pdfrwt beam="1">  1        1 0.13983194E+00 0.17869540E+04</pdfrwt>
<pdfrwt beam="2">  1       -1 0.13512437E+00 0.17869540E+04</pdfrwt>
<totfact> 0.77689982E+00</totfact>
</mgrwt>
</event>
<event>
 6    1  0.1780144E-005  0.9904175E+03  0.7818608E-02  0.9319118E-01
         -1   -1    0    0    0  501 -0.00000000000E+00  0.00000000000E+00  0.29168247511E+03  0.29168247511E+03  0.00000000000E+00 0.  1.
          1   -1    0    0  501    0  0.00000000000E+00 -0.00000000000E+00 -0.84074892765E+03  0.84074892765E+03  0.00000000000E+00 0. -1.
         23    2    1    2    0    0 -0.47649012368E+03  0.11938199698E+03 -0.29875868190E+03  0.58111581328E+03  0.84521827177E+02 0.  0.
         13    1    3    3    0    0 -0.30313277067E+03  0.10397041183E+03 -0.22771629166E+03  0.39313360665E+03  0.00000000000E+00 0. -1.
        -13    1    3    3    0    0 -0.17335735301E+03  0.15411585146E+02 -0.71042390237E+02  0.18798220663E+03  0.00000000000E+00 0.  1.
         22    1    1    2    0    0  0.47649012368E+03 -0.11938199698E+03 -0.25030777064E+03  0.55131558949E+03  0.00000000000E+00 0.  1.
<mgrwt>
<rscale>  0 0.99041754E+03</rscale>
<asrwt>0</asrwt>
<pdfrwt beam="1">  1        1 0.12934599E+00 0.99041754E+03</pdfrwt>
<pdfrwt beam="2">  1       -1 0.44874227E-01 0.99041754E+03</pdfrwt>
<totfact> 0.10064593E+02</totfact>
</mgrwt>
</event>
<event>
 6    1  0.1780144E-005  0.2382157E+04  0.7818608E-02  0.8446214E-01
          1   -1    0    0  501    0  0.00000000000E+00  0.00000000000E+00  0.13191346418E+04  0.13191346418E+04  0.00000000000E+00 0. -1.
         -1   -1    0    0    0  501 -0.00000000000E+00 -0.00000000000E+00 -0.10754539675E+04  0.10754539675E+04  0.00000000000E+00 0.  1.
         23    2    1    2    0    0  0.60282995274E+03  0.25942103956E+03  0.11189930959E+04  0.13005707561E+04  0.92927473782E+02 0.  0.
         11    1    3    3    0    0  0.53014588243E+03  0.25246705518E+03  0.10282424265E+04  0.11840932220E+04  0.00000000000E+00 0.  1.
        -11    1    3    3    0    0  0.72684070310E+02  0.69539843839E+01  0.90750669359E+02  0.11647753416E+03  0.00000000000E+00 0. -1.
         22    1    1    2    0    0 -0.60282995274E+03 -0.25942103956E+03 -0.87531242161E+03  0.10940178532E+04  0.00000000000E+00 0. -1.
<mgrwt>
<rscale>  0 0.23821575E+04</rscale>
<asrwt>0</asrwt>
<pdfrwt beam="1">  1        1 0.20294379E+00 0.23821575E+04</pdfrwt>
<pdfrwt beam="2">  1       -1 0.16545446E+00 0.23821575E+04</pdfrwt>
<totfact> 0.20919702E+00</totfact>
</mgrwt>
</event>
<event>
 6    1  0.1780144E-005  0.1907933E+04  0.7818608E-02  0.8650918E-01
         -2   -1    0    0    0  501 -0.00000000000E+00  0.00000000000E+00  0.41235094784E+03  0.41235094784E+03  0.00000000000E+00 0.  1.
          2   -1    0    0  501    0  0.00000000000E+00 -0.00000000000E+00 -0.22069832441E+04  0.22069832441E+04  0.00000000000E+00 0. -1.
         23    2    1    2    0    0 -0.60764208904E+03 -0.72018979416E+03 -0.72771675715E+03  0.11958838010E+04  0.11253505593E+03 0.  0.
         13    1    3    3    0    0 -0.38768233958E+03 -0.40719527909E+03 -0.37730347354E+03  0.67709933014E+03  0.00000000000E+00 0.  1.
        -13    1    3    3    0    0 -0.21995974946E+03 -0.31299451506E+03 -0.35041328361E+03  0.51878447083E+03  0.00000000000E+00 0. -1.
         22    1    1    2    0    0  0.60764208904E+03  0.72018979416E+03 -0.10669155391E+04  0.14234503910E+04  0.00000000000E+00 0.  1.
<mgrwt>
<rscale>  0 0.19079325E+04</rscale>
<asrwt>0</asrwt>
<pdfrwt beam="1">  1        2 0.33953589E+00 0.19079325E+04</pdfrwt>
<pdfrwt beam="2">  1       -2 0.63438607E-01 0.19079325E+04</pdfrwt>
<totfact> 0.11018306E+01</totfact>
</mgrwt>
</event>
<event>
 6    1  0.1780144E-005  0.6138197E+03  0.7818608E-02  0.9877142E-01
         -2   -1    0    0    0  501 -0.00000000000E+00  0.00000000000E+00  0.45214531089E+02  0.45214531089E+02  0.00000000000E+00 0.  1.
          2   -1    0    0  501    0  0.00000000000E+00 -0.00000000000E+00 -0.20832603718E+04  0.20832603718E+04  0.00000000000E+00 0. -1.
         23    2    1    2    0    0  0.76377012532E+02 -0.10582130544E+03 -0.19787206985E+04  0.19851184617E+04  0.91258466552E+02 0.  0.
         11    1    3    3    0    0  0.31808520026E+02 -0.37300883578E+02 -0.13768711840E+04  0.13777435883E+04  0.00000000000E+00 0.  1.
        -11    1    3    3    0    0  0.44568492506E+02 -0.68520421858E+02 -0.60184951454E+03  0.60737487344E+03  0.00000000000E+00 0. -1.
         22    1    1    2    0    0 -0.76377012532E+02  0.10582130544E+03 -0.59325142243E+02  0.14335644119E+03  0.00000000000E+00 0.  1.
<mgrwt>
<rscale>  0 0.61381965E+03</rscale>
<asrwt>0</asrwt>
<pdfrwt beam="1">  1        2 0.32050156E+00 0.61381965E+03</pdfrwt>
<pdfrwt beam="2">  1       -2 0.69560825E-02 0.61381965E+03</pdfrwt>
<totfact> 0.76410606E+02</totfact>
</mgrwt>
</event>
<event>
 6    1  0.1780144E-005  0.3269425E+04  0.7818608E-02  0.8170719E-01
         -1   -1    0    0    0  501 -0.00000000000E+00  0.00000000000E+00  0.17048481732E+04  0.17048481732E+04  0.00000000000E+00 0.  1.
          1   -1    0    0  501    0  0.00000000000E+00 -0.00000000000E+00 -0.15674618705E+04  0.15674618705E+04  0.00000000000E+00 0. -1.
         23    2    1    2    0    0  0.63317717711E+03 -0.14261282941E+04  0.55234643098E+03  0.16577057093E+04  0.90257352792E+02 0.  0.
         11    1    3    3    0    0  0.39265643069E+03 -0.85895222500E+03  0.28860897854E+03  0.98755918298E+03  0.00000000000E+00 0.  1.
        -11    1    3    3    0    0  0.24052074642E+03 -0.56717606913E+03  0.26373745244E+03  0.67014652627E+03  0.00000000000E+00 0. -1.
         22    1    1    2    0    0 -0.63317717711E+03  0.14261282941E+04 -0.41496012827E+03  0.16146043345E+04  0.00000000000E+00 0.  1.
<mgrwt>
<rscale>  0 0.32694247E+04</rscale>
<asrwt>0</asrwt>
<pdfrwt beam="1">  1        1 0.24114798E+00 0.32694247E+04</pdfrwt>
<pdfrwt beam="2">  1       -1 0.26228434E+00 0.32694247E+04</pdfrwt>
<totfact> 0.28336192E-01</totfact>
</mgrwt>
</event>
<event>
 6    1  0.1780144E-005  0.3885240E+04  0.7818608E-02  0.8028106E-01
         -2   -1    0    0    0  501 -0.00000000000E+00  0.00000000000E+00  0.17600560965E+04  0.17600560965E+04  0.00000000000E+00 0.  1.
          2   -1    0    0  501    0  0.00000000000E+00 -0.00000000000E+00 -0.21441208449E+04  0.21441208449E+04  0.00000000000E+00 0. -1.
         23    2    1    2    0    0 -0.10711690791E+04 -0.10425367459E+04 -0.14372586212E+04  0.20756520178E+04  0.91284675559E+02 0.  0.
         13    1    3    3    0    0 -0.93012976227E+03 -0.85981013566E+03 -0.12221392509E+04  0.17601247662E+04  0.00000000000E+00 0. -1.
        -13    1    3    3    0    0 -0.14103931685E+03 -0.18272661028E+03 -0.21511937032E+03  0.31552725158E+03  0.00000000000E+00 0.  1.
         22    1    1    2    0    0  0.10711690791E+04  0.10425367459E+04  0.10531938728E+04  0.18285249237E+04  0.00000000000E+00 0.  1.
<mgrwt>
<rscale>  0 0.38852403E+04</rscale>
<asrwt>0</asrwt>
<pdfrwt beam="1">  1        2 0.32986475E+00 0.38852403E+04</pdfrwt>
<pdfrwt beam="2">  1       -2 0.27077786E+00 0.38852403E+04</pdfrwt>
<totfact> 0.21190164E-01</totfact>
</mgrwt>
</event>
<event>
 6    1  0.1780144E-005  0.1117145E+04  0.7818608E-02  0.9188641E-01
          1   -1    0    0  501    0  0.00000000000E+00  0.00000000000E+00  0.10036346359E+04  0.10036346359E+04  0.00000000000E+00 0. -1.
         -1   -1    0    0    0  501 -0.00000000000E+00 -0.00000000000E+00 -0.31087318968E+03  0.31087318968E+03  0.00000000000E+00 0.  1.
         23    2    1    2    0    0  0.27181159688E+03 -0.11298481113E+03  0.90209299908E+03  0.95330592804E+03  0.91505746806E+02 0.  0.
         13    1    3    3    0    0  0.20148679783E+03 -0.12452660408E+03  0.68177098135E+03  0.72174474424E+03  0.00000000000E+00 0. -1.
        -13    1    3    3    0    0  0.70324799048E+02  0.11541792956E+02  0.22032201773E+03  0.23156118380E+03  0.00000000000E+00 0.  1.
         22    1    1    2    0    0 -0.27181159688E+03  0.11298481113E+03 -0.20933155288E+03  0.36120189753E+03  0.00000000000E+00 0.  1.
<mgrwt>
<rscale>  0 0.11171448E+04</rscale>
<asrwt>0</asrwt>
<pdfrwt beam="1">  1        1 0.15440533E+00 0.11171448E+04</pdfrwt>
<pdfrwt beam="2">  1       -1 0.47826645E-01 0.11171448E+04</pdfrwt>
<totfact> 0.65317921E+01</totfact>
</mgrwt>
</event>
<event>
 6    1  0.1780144E-005  0.4302108E+04  0.7818608E-02  0.7946228E-01
         -1   -1    0    0    0  501 -0.00000000000E+00  0.00000000000E+00  0.29575812407E+04  0.29575812407E+04  0.00000000000E+00 0.  1.
          1   -1    0    0  501    0  0.00000000000E+00 -0.00000000000E+00 -0.15644654218E+04  0.15644654218E+04  0.00000000000E+00 0. -1.
         23    2    1    2    0    0 -0.40107694085E+03  0.16662807797E+04  0.20614497296E+04  0.26824748195E+04  0.93497703143E+02 0.  0.
         11    1    3    3    0    0 -0.19554675341E+03  0.98404861129E+03  0.11700105816E+04  0.15412705678E+04  0.00000000000E+00 0. -1.
        -11    1    3    3    0    0 -0.20553018744E+03  0.68223216843E+03  0.89143914799E+03  0.11412042517E+04  0.00000000000E+00 0.  1.
         22    1    1    2    0    0  0.40107694085E+03 -0.16662807797E+04 -0.66833391065E+03  0.18395718430E+04  0.00000000000E+00 0. -1.
<mgrwt>
<rscale>  0 0.43021081E+04</rscale>
<asrwt>0</asrwt>
<pdfrwt beam="1">  1        1 0.24068699E+00 0.43021081E+04</pdfrwt>
<pdfrwt beam="2">  1       -1 0.45501250E+00 0.43021081E+04</pdfrwt>
<totfact> 0.13480980E-02</totfact>
</mgrwt>
</event>
<event>
 6    1  0.1780144E-005  0.2979054E+04  0.7818608E-02  0.8249738E-01
         -2   -1    0    0    0  501 -0.00000000000E+00  0.00000000000E+00  0.87093567755E+03  0.87093567755E+03  0.00000000000E+00 0.  1.
          2   -1    0    0  501    0  0.00000000000E+00 -0.00000000000E+00 -0.25474787136E+04  0.25474787136E+04  0.00000000000E+00 0. -1.
         23    2    1    2    0    0  0.10085228308E+04  0.37936863241E+03 -0.20168708887E+04  0.22884312467E+04  0.90058479629E+02 0.  0.
         13    1    3    3    0    0  0.67645107653E+03  0.28613630218E+03 -0.13081939962E+04  0.15002771658E+04  0.00000000000E+00 0.  1.
        -13    1    3    3    0    0  0.33207175422E+03  0.93232330228E+02 -0.70867689249E+03  0.78815408094E+03  0.00000000000E+00 0. -1.
         22    1    1    2    0    0 -0.10085228308E+04 -0.37936863241E+03  0.34032785268E+03  0.11299831444E+04  0.00000000000E+00 0.  1.
<mgrwt>
<rscale>  0 0.29790536E+04</rscale>
<asrwt>0</asrwt>
<pdfrwt beam="1">  1        2 0.39191980E+00 0.29790536E+04</pdfrwt>
<pdfrwt beam="2">  1       -2 0.13399010E+00 0.29790536E+04</pdfrwt>
<totfact> 0.11261823E+00</totfact>
</mgrwt>
</event>
<event>
 6    1  0.1780144E-005  0.5059660E+04  0.7818608E-02  0.7819369E-01
          2   -1    0    0  501    0  0.00000000000E+00  0.00000000000E+00  0.24643569530E+04  0.24643569530E+04  0.00000000000E+00 0. -1.
         -2   -1    0    0    0  501 -0.00000000000E+00 -0.00000000000E+00 -0.25970430083E+04  0.25970430083E+04  0.00000000000E+00 0.  1.
         23    2    1    2    0    0  0.13585147496E+03 -0.23604491600E+04 -0.96422600084E+03  0.25550810389E+04  0.92365983129E+02 0.  0.
         11    1    3    3    0    0  0.49222362944E+02 -0.12819799279E+04 -0.56508991942E+03  0.14018637572E+04  0.00000000000E+00 0. -1.
        -11    1    3    3    0    0  0.86629112014E+02 -0.10784692320E+04 -0.39913608142E+03  0.11532172818E+04  0.00000000000E+00 0.  1.
         22    1    1    2    0    0 -0.13585147496E+03  0.23604491600E+04  0.83153994554E+03  0.25063189224E+04  0.00000000000E+00 0. -1.
<mgrwt>
<rscale>  0 0.50596605E+04</rscale>
<asrwt>0</asrwt>
<pdfrwt beam="1">  1        2 0.37913184E+00 0.50596605E+04</pdfrwt>
<pdfrwt beam="2">  1       -2 0.39954508E+00 0.50596605E+04</pdfrwt>
<totfact> 0.19782926E-02</totfact>
</mgrwt>
</event>
<event>
 6    1  0.1780144E-005  0.3075677E+04  0.7818608E-02  0.8222445E-01
          2   -1    0    0  501    0  0.00000000000E+00  0.00000000000E+00  0.13077208124E+04  0.13077208124E+04  0.00000000000E+00 0. -1.
         -2   -1    0    0    0  501 -0.00000000000E+00 -0.00000000000E+00 -0.18084498633E+04  0.18084498633E+04  0.00000000000E+00 0.  1.
         23    2    1    2    0    0 -0.13889188888E+04 -0.17274099282E+03  0.39200161622E+03  0.14560793606E+04  0.86986819643E+02 0.  0.
         11    1    3    3    0    0 -0.89677737320E+03 -0.15290968205E+03  0.24793404705E+03  0.94290101264E+03  0.00000000000E+00 0.  1.
        -11    1    3    3    0    0 -0.49214151563E+03 -0.19831310776E+02  0.14406756917E+03  0.51317834793E+03  0.00000000000E+00 0. -1.
         22    1    1    2    0    0  0.13889188888E+04  0.17274099282E+03 -0.89273066710E+03  0.16600913151E+04  0.00000000000E+00 0.  1.
<mgrwt>
<rscale>  0 0.30756772E+04</rscale>
<asrwt>0</asrwt>
<pdfrwt beam="1">  1        2 0.20118782E+00 0.30756772E+04</pdfrwt>
<pdfrwt beam="2">  1       -2 0.27822305E+00 0.30756772E+04</pdfrwt>
<totfact> 0.60093125E-01</totfact>
</mgrwt>
</event>
<event>
 6    1  0.1780144E-005  0.3443023E+04  0.7818608E-02  0.8127427E-01
          1   -1    0    0  501    0  0.00000000000E+00  0.00000000000E+00  0.27876154717E+04  0.27876154717E+04  0.00000000000E+00 0. -1.
         -1   -1    0    0    0  501 -0.00000000000E+00 -0.00000000000E+00 -0.10631316792E+04  0.10631316792E+04  0.00000000000E+00 0.  1.
         23    2    1    2    0    0  0.38941763989E+03  0.16032316998E+04  0.31778197165E+03  0.16826124701E+04  0.90561369385E+02 0.  0.
         13    1    3    3    0    0  0.22406043168E+03  0.73422611448E+03  0.15592837292E+03  0.78332925498E+03  0.00000000000E+00 0.  1.
        -13    1    3    3    0    0  0.16535720821E+03  0.86900558527E+03  0.16185359874E+03  0.89928321511E+03  0.00000000000E+00 0. -1.
         22    1    1    2    0    0 -0.38941763989E+03 -0.16032316998E+04  0.14067018209E+04  0.21681346808E+04  0.00000000000E+00 0. -1.
<mgrwt>
<rscale>  0 0.34430233E+04</rscale>
<asrwt>0</asrwt>
<pdfrwt beam="1">  1        1 0.42886392E+00 0.34430233E+04</pdfrwt>
<pdfrwt beam="2">  1       -1 0.16355872E+00 0.34430233E+04</pdfrwt>
<totfact> 0.19144099E-01</totfact>
</mgrwt>
</event>
<event>
 6    1  0.1780144E-005  0.3382862E+04  0.7818608E-02  0.8142125E-01
         -1   -1    0    0    0  501 -0.00000000000E+00  0.00000000000E+00  0.91177575527E+03  0.91177575527E+03  0.00000000000E+00 0.  1.
          1   -1    0    0  501    0  0.00000000000E+00 -0.00000000000E+00 -0.31377660223E+04  0.31377660223E+04  0.00000000000E+00 0. -1.
         23    2    1    2    0    0 -0.16509467644E+04 -0.20808074153E+03 -0.75854162609E+03  0.18309096928E+04  0.89006129056E+02 0.  0.
         11    1    3    3    0    0 -0.59988058319E+03 -0.34307372844E+02 -0.28690066356E+03  0.66584209890E+03  0.00000000000E+00 0. -1.
        -11    1    3    3    0    0 -0.10510661812E+04 -0.17377336868E+03 -0.47164096253E+03  0.11650675939E+04  0.00000000000E+00 0.  1.
         22    1    1    2    0    0  0.16509467644E+04  0.20808074153E+03 -0.14674486409E+04  0.22186320848E+04  0.00000000000E+00 0. -1.
<mgrwt>
<rscale>  0 0.33828621E+04</rscale>
<asrwt>0</asrwt>
<pdfrwt beam="1">  1        1 0.48273323E+00 0.33828621E+04</pdfrwt>
<pdfrwt beam="2">  1       -1 0.14027319E+00 0.33828621E+04</pdfrwt>
<totfact> 0.16239649E-01</totfact>
</mgrwt>
</event>
<event>
 6    1  0.1780144E-005  0.2799704E+04  0.7818608E-02  0.8303360E-01
         -2   -1    0    0    0  501 -0.00000000000E+00  0.00000000000E+00  0.61382079527E+03  0.61382079527E+03  0.00000000000E+00 0. -1.
          2   -1    0    0  501    0  0.00000000000E+00 -0.00000000000E+00 -0.31924391921E+04  0.31924391921E+04  0.00000000000E+00 0.  1.
         23    2    1    2    0    0  0.89130105047E+03  0.10377782185E+04 -0.90645949419E+03  0.16458163781E+04  0.12506615152E+03 0.  0.
         13    1    3    3    0    0  0.66630590846E+03  0.85278246783E+03 -0.72540865813E+03  0.13028504221E+04  0.00000000000E+00 0. -1.
        -13    1    3    3    0    0  0.22499514201E+03  0.18499575069E+03 -0.18105083606E+03  0.34296595595E+03  0.00000000000E+00 0.  1.
         22    1    1    2    0    0 -0.89130105047E+03 -0.10377782185E+04 -0.16721589027E+04  0.21604436094E+04  0.00000000000E+00 0.  1.
<mgrwt>
<rscale>  0 0.27997040E+04</rscale>
<asrwt>0</asrwt>
<pdfrwt beam="1">  1        2 0.49114449E+00 0.27997040E+04</pdfrwt>
<pdfrwt beam="2">  1       -2 0.94433969E-01 0.27997040E+04</pdfrwt>
<totfact> 0.10782622E+00</totfact>
</mgrwt>
</event>
<event>
 6    1  0.1780144E-005  0.2465660E+04  0.7818608E-02  0.8415322E-01
         -2   -1    0    0    0  501 -0.00000000000E+00  0.00000000000E+00  0.18045660787E+04  0.18045660787E+04  0.00000000000E+00 0.  1.
          2   -1    0    0  501    0  0.00000000000E+00 -0.00000000000E+00 -0.84223556074E+03  0.84223556074E+03  0.00000000000E+00 0. -1.
         23    2    1    2    0    0 -0.96868641161E+03 -0.71196215340E+03  0.19670867173E+03  0.12215226200E+04  0.90441901912E+02 0.  0.
         11    1    3    3    0    0 -0.22314420085E+03 -0.13463500819E+03  0.71942476304E+02  0.27036205300E+03  0.00000000000E+00 0. -1.
        -11    1    3    3    0    0 -0.74554221076E+03 -0.57732714521E+03  0.12476619543E+03  0.95116056696E+03  0.00000000000E+00 0.  1.
         22    1    1    2    0    0  0.96868641161E+03  0.71196215340E+03  0.76562184622E+03  0.14252790195E+04  0.00000000000E+00 0.  1.
<mgrwt>
<rscale>  0 0.24656599E+04</rscale>
<asrwt>0</asrwt>
<pdfrwt beam="1">  1        2 0.12957470E+00 0.24656599E+04</pdfrwt>
<pdfrwt beam="2">  1       -2 0.27762555E+00 0.24656599E+04</pdfrwt>
<totfact> 0.12516061E+00</totfact>
</mgrwt>
</event>
<event>
 6    1  0.1780144E-005  0.1165293E+04  0.7818608E-02  0.9143790E-01
          2   -1    0    0  501    0  0.00000000000E+00  0.00000000000E+00  0.17453039811E+04  0.17453039811E+04  0.00000000000E+00 0. -1.
         -2   -1    0    0    0  501 -0.00000000000E+00 -0.00000000000E+00 -0.19450869973E+03  0.19450869973E+03  0.00000000000E+00 0.  1.
         23    2    1    2    0    0 -0.18399446263E+03 -0.43813063333E+02  0.16912226345E+04  0.17042423340E+04  0.91838918389E+02 0.  0.
         11    1    3    3    0    0 -0.15982336989E+03 -0.34882512238E+02  0.10650478606E+04  0.10775375839E+04  0.00000000000E+00 0. -1.
        -11    1    3    3    0    0 -0.24171092736E+02 -0.89305510945E+01  0.62617477381E+03  0.62670475012E+03  0.00000000000E+00 0.  1.
         22    1    1    2    0    0  0.18399446263E+03  0.43813063333E+02 -0.14042735310E+03  0.23557034681E+03  0.00000000000E+00 0.  1.
<mgrwt>
<rscale>  0 0.11652928E+04</rscale>
<asrwt>0</asrwt>
<pdfrwt beam="1">  1        2 0.26850829E+00 0.11652928E+04</pdfrwt>
<pdfrwt beam="2">  1       -2 0.29924417E-01 0.11652928E+04</pdfrwt>
<totfact> 0.94293481E+01</totfact>
</mgrwt>
</event>
<event>
 6    1  0.1780144E-005  0.1273732E+04  0.7818608E-02  0.9050659E-01
         -2   -1    0    0    0  501 -0.00000000000E+00  0.00000000000E+00  0.94364146042E+03  0.94364146042E+03  0.00000000000E+00 0.  1.
          2   -1    0    0  501    0  0.00000000000E+00 -0.00000000000E+00 -0.42982275898E+03  0.42982275898E+03  0.00000000000E+00 0. -1.
         23    2    1    2    0    0 -0.74587142618E+02 -0.32961445824E+03  0.83625966925E+03  0.90636989204E+03  0.89259250797E+02 0.  0.
         11    1    3    3    0    0 -0.14580120576E+01 -0.16605087044E+03  0.33172229869E+03  0.37096455467E+03  0.00000000000E+00 0.  1.
        -11    1    3    3    0    0 -0.73129130560E+02 -0.16356358780E+03  0.50453737056E+03  0.53540533737E+03  0.00000000000E+00 0. -1.
         22    1    1    2    0    0  0.74587142618E+02  0.32961445824E+03 -0.32244096782E+03  0.46709432736E+03  0.00000000000E+00 0. -1.
<mgrwt>
<rscale>  0 0.12737324E+04</rscale>
<asrwt>0</asrwt>
<pdfrwt beam="1">  1        2 0.66126578E-01 0.12737324E+04</pdfrwt>
<pdfrwt beam="2">  1       -2 0.14517561E+00 0.12737324E+04</pdfrwt>
<totfact> 0.23484813E+01</totfact>
</mgrwt>
</event>
<event>
 6    1  0.1780144E-005  0.3467712E+04  0.7818608E-02  0.8121485E-01
         -2   -1    0    0    0  501 -0.00000000000E+00  0.00000000000E+00  0.12665546179E+04  0.12665546179E+04  0.00000000000E+00 0.  1.
          2   -1    0    0  501    0  0.00000000000E+00 -0.00000000000E+00 -0.23735703615E+04  0.23735703615E+04  0.00000000000E+00 0. -1.
         23    2    1    2    0    0 -0.35421550766E+03  0.11326759937E+04 -0.18789399501E+04  0.22243953042E+04  0.95370859568E+02 0.  0.
         13    1    3    3    0    0 -0.57184429836E+02  0.31934672484E+03 -0.53454375032E+03  0.62529146059E+03  0.00000000000E+00 0. -1.
        -13    1    3    3    0    0 -0.29703107782E+03  0.81332926888E+03 -0.13443961997E+04  0.15991038436E+04  0.00000000000E+00 0.  1.
         22    1    1    2    0    0  0.35421550766E+03 -0.11326759937E+04  0.77192420643E+03  0.14157296751E+04  0.00000000000E+00 0. -1.
<mgrwt>
<rscale>  0 0.34677119E+04</rscale>
<asrwt>0</asrwt>
<pdfrwt beam="1">  1        2 0.36516467E+00 0.34677119E+04</pdfrwt>
<pdfrwt beam="2">  1       -2 0.19485456E+00 0.34677119E+04</pdfrwt>
<totfact> 0.48780401E-01</totfact>
</mgrwt>
</event>
<event>
 6    1  0.1780144E-005  0.3959286E+04  0.7818608E-02  0.8012811E-01
         -1   -1    0    0    0  501 -0.00000000000E+00  0.00000000000E+00  0.17461160615E+04  0.17461160615E+04  0.00000000000E+00 0.  1.
          1   -1    0    0  501    0  0.00000000000E+00 -0.00000000000E+00 -0.22444015429E+04  0.22444015429E+04  0.00000000000E+00 0. -1.
         23    2    1    2    0    0  0.12858467564E+04 -0.14319060357E+04 -0.71227420349E+03  0.20541426538E+04  0.91710006948E+02 0.  0.
         11    1    3    3    0    0  0.54962480170E+03 -0.54808964308E+03 -0.30194832998E+03  0.83286401860E+03  0.00000000000E+00 0. -1.
        -11    1    3    3    0    0  0.73622195468E+03 -0.88381639259E+03 -0.41032587351E+03  0.12212786352E+04  0.00000000000E+00 0.  1.
         22    1    1    2    0    0 -0.12858467564E+04  0.14319060357E+04  0.21398872208E+03  0.19363749505E+04  0.00000000000E+00 0.  1.
<mgrwt>
<rscale>  0 0.39592856E+04</rscale>
<asrwt>0</asrwt>
<pdfrwt beam="1">  1        1 0.34529254E+00 0.39592856E+04</pdfrwt>
<pdfrwt beam="2">  1       -1 0.26863324E+00 0.39592856E+04</pdfrwt>
<totfact> 0.84135048E-02</totfact>
</mgrwt>
</event>
<event>
 6    1  0.1780144E-005  0.2418956E+04  0.7818608E-02  0.8432441E-01
          1   -1    0    0  501    0  0.00000000000E+00  0.00000000000E+00  0.19665715868E+04  0.19665715868E+04  0.00000000000E+00 0. -1.
         -1   -1    0    0    0  501 -0.00000000000E+00 -0.00000000000E+00 -0.74385114683E+03  0.74385114683E+03  0.00000000000E+00 0.  1.
         23    2    1    2    0    0  0.11950007975E+04 -0.17444595666E+03  0.59114368224E+03  0.13475773650E+04  0.89753015566E+02 0.  0.
         13    1    3    3    0    0  0.31219723518E+03 -0.49818915148E+02  0.19920239823E+03  0.37367182583E+03  0.00000000000E+00 0. -1.
        -13    1    3    3    0    0  0.88280356233E+03 -0.12462704151E+03  0.39194128402E+03  0.97390553918E+03  0.00000000000E+00 0.  1.
         22    1    1    2    0    0 -0.11950007975E+04  0.17444595666E+03  0.63157675770E+03  0.13628453686E+04  0.00000000000E+00 0. -1.
<mgrwt>
<rscale>  0 0.24189556E+04</rscale>
<asrwt>0</asrwt>
<pdfrwt beam="1">  1        1 0.30254947E+00 0.24189556E+04</pdfrwt>
<pdfrwt beam="2">  1       -1 0.11443864E+00 0.24189556E+04</pdfrwt>
<totfact> 0.19506015E+00</totfact>
</mgrwt>
</event>
<event>
 6    1  0.1780144E-005  0.4708639E+03  0.7818608E-02  0.1021677E+00
          1   -1    0    0  501    0  0.00000000000E+00  0.00000000000E+00  0.46103157521E+03  0.46103157521E+03  0.00000000000E+00 0. -1.
         -1   -1    0    0    0  501 -0.00000000000E+00 -0.00000000000E+00 -0.12022647709E+03  0.12022647709E+03  0.00000000000E+00 0.  1.
         23    2    1    2    0    0 -0.16086165050E+03  0.44049797764E+02 -0.12506411979E+02  0.19055883494E+03  0.91320336980E+02 0.  0.
         11    1    3    3    0    0 -0.16427665077E+03  0.46278329239E+02  0.68199548106E+01  0.17080694812E+03  0.00000000000E+00 0. -1.
        -11    1    3    3    0    0  0.34150002635E+01 -0.22285314753E+01 -0.19326366789E+02  0.19751886811E+02  0.00000000000E+00 0.  1.
         22    1    1    2    0    0  0.16086165050E+03 -0.44049797764E+02  0.35331151010E+03  0.39069921737E+03  0.00000000000E+00 0. -1.
<mgrwt>
<rscale>  0 0.47086390E+03</rscale>
<asrwt>0</asrwt>
<pdfrwt beam="1">  1        1 0.70927934E-01 0.47086390E+03</pdfrwt>
<pdfrwt beam="2">  1       -1 0.18496381E-01 0.47086390E+03</pdfrwt>
<totfact> 0.11560442E+03</totfact>
</mgrwt>
</event>
<event>
 6    1  0.1801858E-005  0.2105365E+04  0.7818608E-02  0.8558884E-01
          1   -1    0    0  501    0  0.00000000000E+00  0.00000000000E+00  0.11406763840E+04  0.11406763840E+04  0.00000000000E+00 0. -1.
         -1   -1    0    0    0  501 -0.00000000000E+00 -0.00000000000E+00 -0.97147655868E+03  0.97147655868E+03  0.00000000000E+00 0.  1.
         23    2    1    2    0    0  0.25108475551E+03 -0.30082789467E+03  0.10631868549E+04  0.11360618683E+04  0.82032332722E+02 0.  0.
         11    1    3    3    0    0  0.66415423277E+02 -0.11664764662E+03  0.45305286136E+03  0.47251939336E+03  0.00000000000E+00 0. -1.
        -11    1    3    3    0    0  0.18466933223E+03 -0.18418024805E+03  0.61013399349E+03  0.66354247494E+03  0.00000000000E+00 0.  1.
         22    1    1    2    0    0 -0.25108475551E+03  0.30082789467E+03 -0.89398702950E+03  0.97609107442E+03  0.00000000000E+00 0.  1.
<mgrwt>
<rscale>  0 0.21053649E+04</rscale>
<asrwt>0</asrwt>
<pdfrwt beam="1">  1        1 0.17548867E+00 0.21053649E+04</pdfrwt>
<pdfrwt beam="2">  1       -1 0.14945793E+00 0.21053649E+04</pdfrwt>
<totfact> 0.38283630E+00</totfact>
</mgrwt>
</event>
<event>
 6    1  0.1780144E-005  0.1561830E+04  0.7818608E-02  0.8844347E-01
          2   -1    0    0  501    0  0.00000000000E+00  0.00000000000E+00  0.26166585275E+04  0.26166585275E+04  0.00000000000E+00 0. -1.
         -2   -1    0    0    0  501 -0.00000000000E+00 -0.00000000000E+00 -0.23305605360E+03  0.23305605360E+03  0.00000000000E+00 0.  1.
         23    2    1    2    0    0  0.12758552942E+03  0.36609861559E+03  0.24271617749E+04  0.24595816853E+04  0.90119483043E+02 0.  0.
         13    1    3    3    0    0  0.11484781667E+03  0.27111335932E+03  0.20167067568E+04  0.20380869995E+04  0.00000000000E+00 0. -1.
        -13    1    3    3    0    0  0.12737712748E+02  0.94985256273E+02  0.41045501818E+03  0.42149468583E+03  0.00000000000E+00 0.  1.
         22    1    1    2    0    0 -0.12758552942E+03 -0.36609861559E+03 -0.43559301070E+02  0.39013289578E+03  0.00000000000E+00 0.  1.
<mgrwt>
<rscale>  0 0.15618298E+04</rscale>
<asrwt>0</asrwt>
<pdfrwt beam="1">  1        2 0.40256283E+00 0.15618298E+04</pdfrwt>
<pdfrwt beam="2">  1       -2 0.35854779E-01 0.15618298E+04</pdfrwt>
<totfact> 0.20994482E+01</totfact>
</mgrwt>
</event>
<event>
 6    1  0.1780144E-005  0.3061877E+04  0.7818608E-02  0.8226279E-01
         -2   -1    0    0    0  501 -0.00000000000E+00  0.00000000000E+00  0.87276096853E+03  0.87276096853E+03  0.00000000000E+00 0. -1.
          2   -1    0    0  501    0  0.00000000000E+00 -0.00000000000E+00 -0.26854689606E+04  0.26854689606E+04  0.00000000000E+00 0.  1.
         23    2    1    2    0    0  0.68837553882E+03  0.36955443228E+03 -0.24352701051E+04  0.25592229494E+04  0.93006769102E+02 0.  0.
         13    1    3    3    0    0  0.56370827012E+03  0.26687191669E+03 -0.19977886716E+04  0.20928801232E+04  0.00000000000E+00 0.  1.
        -13    1    3    3    0    0  0.12466726870E+03  0.10268251559E+03 -0.43748143347E+03  0.46634282618E+03  0.00000000000E+00 0. -1.
         22    1    1    2    0    0 -0.68837553882E+03 -0.36955443228E+03  0.62256211306E+03  0.99900697969E+03  0.00000000000E+00 0. -1.
<mgrwt>
<rscale>  0 0.30618769E+04</rscale>
<asrwt>0</asrwt>
<pdfrwt beam="1">  1        2 0.41314906E+00 0.30618769E+04</pdfrwt>
<pdfrwt beam="2">  1       -2 0.13427092E+00 0.30618769E+04</pdfrwt>
<totfact> 0.92256113E-01</totfact>
</mgrwt>
</event>
<event>
 6    1  0.1780144E-005  0.5247613E+04  0.7818608E-02  0.7791406E-01
          1   -1    0    0  501    0  0.00000000000E+00  0.00000000000E+00  0.31788635157E+04  0.31788635157E+04  0.00000000000E+00 0. -1.
         -1   -1    0    0    0  501 -0.00000000000E+00 -0.00000000000E+00 -0.21656673885E+04  0.21656673885E+04  0.00000000000E+00 0.  1.
         23    2    1    2    0    0 -0.41246366369E+03 -0.30994580333E+03  0.31259668913E+04  0.31696762019E+04  0.94792114816E+02 0.  0.
         13    1    3    3    0    0 -0.11688157822E+03 -0.10744726329E+03  0.12242227499E+04  0.12344746086E+04  0.00000000000E+00 0.  1.
        -13    1    3    3    0    0 -0.29558208547E+03 -0.20249854004E+03  0.19017441413E+04  0.19352015934E+04  0.00000000000E+00 0. -1.
         22    1    1    2    0    0  0.41246366369E+03  0.30994580333E+03 -0.21127707640E+04  0.21748547023E+04  0.00000000000E+00 0.  1.
<mgrwt>
<rscale>  0 0.52476132E+04</rscale>
<asrwt>0</asrwt>
<pdfrwt beam="1">  1        1 0.48905592E+00 0.52476132E+04</pdfrwt>
<pdfrwt beam="2">  1       -1 0.33317960E+00 0.52476132E+04</pdfrwt>
<totfact> 0.62609103E-03</totfact>
</mgrwt>
</event>
<event>
 6    1  0.1780144E-005  0.3676149E+04  0.7818608E-02  0.8073268E-01
         -1   -1    0    0    0  501 -0.00000000000E+00  0.00000000000E+00  0.20570777026E+04  0.20570777026E+04  0.00000000000E+00 0.  1.
          1   -1    0    0  501    0  0.00000000000E+00 -0.00000000000E+00 -0.16423866945E+04  0.16423866945E+04  0.00000000000E+00 0. -1.
         23    2    1    2    0    0 -0.16702182925E+04  0.62535609780E+03  0.64973893040E+03  0.19005906051E+04  0.96874025313E+02 0.  0.
         11    1    3    3    0    0 -0.14302928432E+04  0.49870722045E+03  0.54666075579E+03  0.16103678123E+04  0.00000000000E+00 0. -1.
        -11    1    3    3    0    0 -0.23992544933E+03  0.12664887736E+03  0.10307817461E+03  0.29022279278E+03  0.00000000000E+00 0.  1.
         22    1    1    2    0    0  0.16702182925E+04 -0.62535609780E+03 -0.23504792227E+03  0.17988737920E+04  0.00000000000E+00 0. -1.
<mgrwt>
<rscale>  0 0.36761486E+04</rscale>
<asrwt>0</asrwt>
<pdfrwt beam="1">  1        1 0.25267488E+00 0.36761486E+04</pdfrwt>
<pdfrwt beam="2">  1       -1 0.31647349E+00 0.36761486E+04</pdfrwt>
<totfact> 0.10824718E-01</totfact>
</mgrwt>
</event>
<event>
 6    1  0.1780144E-005  0.2412532E+04  0.7818608E-02  0.8434826E-01
         -1   -1    0    0    0  501 -0.00000000000E+00  0.00000000000E+00  0.13632223127E+04  0.13632223127E+04  0.00000000000E+00 0.  1.
          1   -1    0    0  501    0  0.00000000000E+00 -0.00000000000E+00 -0.10673814290E+04  0.10673814290E+04  0.00000000000E+00 0. -1.
         23    2    1    2    0    0 -0.69365160286E+03  0.61262469121E+03 -0.62857278883E+03  0.11225509154E+04  0.92494586062E+02 0.  0.
         11    1    3    3    0    0 -0.53502205632E+03  0.50709487788E+03 -0.46602883912E+03  0.87211048314E+03  0.00000000000E+00 0.  1.
        -11    1    3    3    0    0 -0.15862954654E+03  0.10552981333E+03 -0.16254394971E+03  0.25044043229E+03  0.00000000000E+00 0. -1.
         22    1    1    2    0    0  0.69365160286E+03 -0.61262469121E+03  0.92441367249E+03  0.13080528263E+04  0.00000000000E+00 0.  1.
<mgrwt>
<rscale>  0 0.24125324E+04</rscale>
<asrwt>0</asrwt>
<pdfrwt beam="1">  1        1 0.16421253E+00 0.24125324E+04</pdfrwt>
<pdfrwt beam="2">  1       -1 0.20972651E+00 0.24125324E+04</pdfrwt>
<totfact> 0.15511838E+00</totfact>
</mgrwt>
</event>
<event>
 6    1  0.1780144E-005  0.3317108E+04  0.7818608E-02  0.8158556E-01
          2   -1    0    0  501    0  0.00000000000E+00  0.00000000000E+00  0.44633114721E+04  0.44633114721E+04  0.00000000000E+00 0. -1.
         -2   -1    0    0    0  501 -0.00000000000E+00 -0.00000000000E+00 -0.61631404187E+03  0.61631404187E+03  0.00000000000E+00 0.  1.
         23    2    1    2    0    0  0.29414945793E+03 -0.15972195843E+04  0.14191093825E+04  0.21586197495E+04  0.90185803827E+02 0.  0.
         13    1    3    3    0    0  0.11410329082E+03 -0.46701096827E+03  0.37978362654E+03  0.61266174064E+03  0.00000000000E+00 0. -1.
        -13    1    3    3    0    0  0.18004616711E+03 -0.11302086160E+04  0.10393257560E+04  0.15459580088E+04  0.00000000000E+00 0.  1.
         22    1    1    2    0    0 -0.29414945793E+03  0.15972195843E+04  0.24278880477E+04  0.29210057645E+04  0.00000000000E+00 0. -1.
<mgrwt>
<rscale>  0 0.33171081E+04</rscale>
<asrwt>0</asrwt>
<pdfrwt beam="1">  1        2 0.68666328E+00 0.33171081E+04</pdfrwt>
<pdfrwt beam="2">  1       -2 0.94817548E-01 0.33171081E+04</pdfrwt>
<totfact> 0.10396027E-01</totfact>
</mgrwt>
</event>
<event>
 6    1  0.1780144E-005  0.4730693E+04  0.7818608E-02  0.7871449E-01
          1   -1    0    0  501    0  0.00000000000E+00  0.00000000000E+00  0.17705204585E+04  0.17705204585E+04  0.00000000000E+00 0. -1.
         -1   -1    0    0    0  501 -0.00000000000E+00 -0.00000000000E+00 -0.31600113318E+04  0.31600113318E+04  0.00000000000E+00 0.  1.
         23    2    1    2    0    0 -0.18817962542E+04  0.12774037500E+04 -0.21548414197E+02  0.22764436127E+04  0.93881333225E+02 0.  0.
         13    1    3    3    0    0 -0.60903801490E+03  0.37766121011E+03  0.25241399653E+02  0.71707211735E+03  0.00000000000E+00 0. -1.
        -13    1    3    3    0    0 -0.12727582393E+04  0.89974253987E+03 -0.46789813851E+02  0.15593714954E+04  0.00000000000E+00 0.  1.
         22    1    1    2    0    0  0.18817962542E+04 -0.12774037500E+04 -0.13679424591E+04  0.26540881776E+04  0.00000000000E+00 0.  1.
<mgrwt>
<rscale>  0 0.47306933E+04</rscale>
<asrwt>0</asrwt>
<pdfrwt beam="1">  1        1 0.27238776E+00 0.47306933E+04</pdfrwt>
<pdfrwt beam="2">  1       -1 0.48615559E+00 0.47306933E+04</pdfrwt>
<totfact> 0.58015463E-03</totfact>
</mgrwt>
</event>
<event>
 6    1  0.1780144E-005  0.2029863E+04  0.7818608E-02  0.8592785E-01
         -2   -1    0    0    0  501 -0.00000000000E+00  0.00000000000E+00  0.10034113043E+04  0.10034113043E+04  0.00000000000E+00 0. -1.
          2   -1    0    0  501    0  0.00000000000E+00 -0.00000000000E+00 -0.10265840145E+04  0.10265840145E+04  0.00000000000E+00 0.  1.
         23    2    1    2    0    0  0.12117088685E+02 -0.79779960171E+03  0.61230109784E+03  0.10099668932E+04  0.92138280095E+02 0.  0.
         11    1    3    3    0    0 -0.25267554125E+02 -0.64218937022E+03  0.50381419736E+03  0.81662377015E+03  0.00000000000E+00 0.  1.
        -11    1    3    3    0    0  0.37384642810E+02 -0.15561023149E+03  0.10848690048E+03  0.19334312307E+03  0.00000000000E+00 0. -1.
         22    1    1    2    0    0 -0.12117088685E+02  0.79779960171E+03 -0.63547380799E+03  0.10200284256E+04  0.00000000000E+00 0.  1.
<mgrwt>
<rscale>  0 0.20298631E+04</rscale>
<asrwt>0</asrwt>
<pdfrwt beam="1">  1        2 0.15793600E+00 0.20298631E+04</pdfrwt>
<pdfrwt beam="2">  1       -2 0.15437097E+00 0.20298631E+04</pdfrwt>
<totfact> 0.62295831E+00</totfact>
</mgrwt>
</event>
<event>
 6    1  0.1780144E-005  0.1728499E+04  0.7818608E-02  0.8745275E-01
          2   -1    0    0  501    0  0.00000000000E+00  0.00000000000E+00  0.22699386588E+04  0.22699386588E+04  0.00000000000E+00 0. -1.
         -2   -1    0    0    0  501 -0.00000000000E+00 -0.00000000000E+00 -0.32905152707E+03  0.32905152707E+03  0.00000000000E+00 0.  1.
         23    2    1    2    0    0 -0.48619820411E+03  0.12561411126E+03  0.20263479356E+04  0.20896070809E+04  0.90577025903E+02 0.  0.
         13    1    3    3    0    0 -0.16713345023E+03  0.69688868444E+02  0.58885162626E+03  0.61606522895E+03  0.00000000000E+00 0.  1.
        -13    1    3    3    0    0 -0.31906475388E+03  0.55925242818E+02  0.14374963094E+04  0.14735418519E+04  0.00000000000E+00 0. -1.
         22    1    1    2    0    0  0.48619820411E+03 -0.12561411126E+03 -0.85460803922E+02  0.50938310497E+03  0.00000000000E+00 0.  1.
<mgrwt>
<rscale>  0 0.17284985E+04</rscale>
<asrwt>0</asrwt>
<pdfrwt beam="1">  1        2 0.34922132E+00 0.17284985E+04</pdfrwt>
<pdfrwt beam="2">  1       -2 0.50623313E-01 0.17284985E+04</pdfrwt>
<totfact> 0.16527279E+01</totfact>
</mgrwt>
</event>
<event>
 6    1  0.1780144E-005  0.2552647E+04  0.7818608E-02  0.8384466E-01
         -2   -1    0    0    0  501 -0.00000000000E+00  0.00000000000E+00  0.94812563903E+03  0.94812563903E+03  0.00000000000E+00 0.  1.
          2   -1    0    0  501    0  0.00000000000E+00 -0.00000000000E+00 -0.17181283442E+04  0.17181283442E+04  0.00000000000E+00 0. -1.
         23    2    1    2    0    0  0.10937041662E+04 -0.35838450432E+02  0.29750952418E+03  0.11375108532E+04  0.89139365654E+02 0.  0.
         11    1    3    3    0    0  0.53933259575E+03  0.22929356354E+02  0.12728288951E+03  0.55462269894E+03  0.00000000000E+00 0.  1.
        -11    1    3    3    0    0  0.55437157046E+03 -0.58767806786E+02  0.17022663467E+03  0.58288815428E+03  0.00000000000E+00 0. -1.
         22    1    1    2    0    0 -0.10937041662E+04  0.35838450432E+02 -0.10675122293E+04  0.15287431300E+04  0.00000000000E+00 0. -1.
<mgrwt>
<rscale>  0 0.25526469E+04</rscale>
<asrwt>0</asrwt>
<pdfrwt beam="1">  1        2 0.26432744E+00 0.25526469E+04</pdfrwt>
<pdfrwt beam="2">  1       -2 0.14586548E+00 0.25526469E+04</pdfrwt>
<totfact> 0.27452531E+00</totfact>
</mgrwt>
</event>
<event>
 6    1  0.1780144E-005  0.2333756E+04  0.7818608E-02  0.8464729E-01
          1   -1    0    0  501    0  0.00000000000E+00  0.00000000000E+00  0.11047093689E+04  0.11047093689E+04  0.00000000000E+00 0. -1.
         -1   -1    0    0    0  501 -0.00000000000E+00 -0.00000000000E+00 -0.12325455109E+04  0.12325455109E+04  0.00000000000E+00 0.  1.
         23    2    1    2    0    0  0.84156049559E+03  0.29760357031E+03  0.68492158637E+03  0.11300402850E+04  0.10526876710E+03 0.  0.
         13    1    3    3    0    0  0.16522270215E+03  0.94695491784E+02  0.11365708075E+03  0.22177400541E+03  0.00000000000E+00 0. -1.
        -13    1    3    3    0    0  0.67633779345E+03  0.20290807853E+03  0.57126450562E+03  0.90826627954E+03  0.00000000000E+00 0.  1.
         22    1    1    2    0    0 -0.84156049559E+03 -0.29760357031E+03 -0.81275772843E+03  0.12072145948E+04  0.00000000000E+00 0.  1.
<mgrwt>
<rscale>  0 0.23337563E+04</rscale>
<asrwt>0</asrwt>
<pdfrwt beam="1">  1        1 0.16995529E+00 0.23337563E+04</pdfrwt>
<pdfrwt beam="2">  1       -1 0.18962239E+00 0.23337563E+04</pdfrwt>
<totfact> 0.20149949E+00</totfact>
</mgrwt>
</event>
<event>
 6    1  0.1780144E-005  0.4364260E+04  0.7818608E-02  0.7934842E-01
         -1   -1    0    0    0  501 -0.00000000000E+00  0.00000000000E+00  0.13563712702E+04  0.13563712702E+04  0.00000000000E+00 0.  1.
          1   -1    0    0  501    0  0.00000000000E+00 -0.00000000000E+00 -0.35106105977E+04  0.35106105977E+04  0.00000000000E+00 0. -1.
         23    2    1    2    0    0  0.27811676499E+03 -0.19498481175E+04 -0.21227364612E+04  0.28971470913E+04  0.90523858393E+02 0.  0.
         13    1    3    3    0    0  0.14644080189E+03 -0.73799757812E+03 -0.78599679099E+03  0.10880607930E+04  0.00000000000E+00 0. -1.
        -13    1    3    3    0    0  0.13167596310E+03 -0.12118505394E+04 -0.13367396702E+04  0.18090862984E+04  0.00000000000E+00 0.  1.
         22    1    1    2    0    0 -0.27811676499E+03  0.19498481175E+04 -0.31502866362E+02  0.19698347765E+04  0.00000000000E+00 0.  1.
<mgrwt>
<rscale>  0 0.43642600E+04</rscale>
<asrwt>0</asrwt>
<pdfrwt beam="1">  1        1 0.54009394E+00 0.43642600E+04</pdfrwt>
<pdfrwt beam="2">  1       -1 0.20867250E+00 0.43642600E+04</pdfrwt>
<totfact> 0.24409094E-02</totfact>
</mgrwt>
</event>
<event>
 6    1  0.1780144E-005  0.3884838E+04  0.7818608E-02  0.8028190E-01
         -2   -1    0    0    0  501 -0.00000000000E+00  0.00000000000E+00  0.25826405446E+04  0.25826405446E+04  0.00000000000E+00 0.  1.
          2   -1    0    0  501    0  0.00000000000E+00 -0.00000000000E+00 -0.14609046161E+04  0.14609046161E+04  0.00000000000E+00 0. -1.
         23    2    1    2    0    0  0.53607653969E+03  0.54654758767E+03  0.24180660258E+04  0.25380339375E+04  0.92090392504E+02 0.  0.
         11    1    3    3    0    0  0.12203233746E+03  0.17901900676E+03  0.62934246492E+03  0.66559119159E+03  0.00000000000E+00 0.  1.
        -11    1    3    3    0    0  0.41404420223E+03  0.36752858091E+03  0.17887235609E+04  0.18724427459E+04  0.00000000000E+00 0. -1.
         22    1    1    2    0    0 -0.53607653969E+03 -0.54654758767E+03 -0.12963300973E+04  0.15055112232E+04  0.00000000000E+00 0. -1.
<mgrwt>
<rscale>  0 0.38848380E+04</rscale>
<asrwt>0</asrwt>
<pdfrwt beam="1">  1        2 0.22475456E+00 0.38848380E+04</pdfrwt>
<pdfrwt beam="2">  1       -2 0.39732931E+00 0.38848380E+04</pdfrwt>
<totfact> 0.82138461E-02</totfact>
</mgrwt>
</event>
<event>
 6    1  0.1780144E-005  0.1723440E+04  0.7818608E-02  0.8748108E-01
          2   -1    0    0  501    0  0.00000000000E+00  0.00000000000E+00  0.10424334569E+04  0.10424334569E+04  0.00000000000E+00 0.  1.
         -2   -1    0    0    0  501 -0.00000000000E+00 -0.00000000000E+00 -0.71233426727E+03  0.71233426727E+03  0.00000000000E+00 0. -1.
         23    2    1    2    0    0  0.73182505691E+03  0.27478489950E+03 -0.19787743913E+03  0.81145760791E+03  0.90737608550E+02 0.  0.
         11    1    3    3    0    0  0.40901704489E+03  0.11956816522E+03 -0.74373458857E+02  0.43257704577E+03  0.00000000000E+00 0.  1.
        -11    1    3    3    0    0  0.32280801202E+03  0.15521673428E+03 -0.12350398027E+03  0.37888056214E+03  0.00000000000E+00 0. -1.
         22    1    1    2    0    0 -0.73182505691E+03 -0.27478489950E+03  0.52797662878E+03  0.94331011627E+03  0.00000000000E+00 0.  1.
<mgrwt>
<rscale>  0 0.17234397E+04</rscale>
<asrwt>0</asrwt>
<pdfrwt beam="1">  1        2 0.16037438E+00 0.17234397E+04</pdfrwt>
<pdfrwt beam="2">  1       -2 0.10958989E+00 0.17234397E+04</pdfrwt>
<totfact> 0.14905651E+01</totfact>
</mgrwt>
</event>
<event>
 6    1  0.1780144E-005  0.1097443E+04  0.7818608E-02  0.9207688E-01
          2   -1    0    0  501    0  0.00000000000E+00  0.00000000000E+00  0.11672873369E+04  0.11672873369E+04  0.00000000000E+00 0. -1.
         -2   -1    0    0    0  501 -0.00000000000E+00 -0.00000000000E+00 -0.25794443513E+03  0.25794443513E+03  0.00000000000E+00 0.  1.
         23    2    1    2    0    0 -0.48252727131E+03 -0.89100133653E+02  0.15081494704E+03  0.52182928172E+03  0.93750998087E+02 0.  0.
         11    1    3    3    0    0 -0.11319388261E+03 -0.15069029917E+02 -0.47471770835E+01  0.11429114757E+03  0.00000000000E+00 0. -1.
        -11    1    3    3    0    0 -0.36933338869E+03 -0.74031103736E+02  0.15556212412E+03  0.40753813415E+03  0.00000000000E+00 0.  1.
         22    1    1    2    0    0  0.48252727131E+03  0.89100133653E+02  0.75852795473E+03  0.90340249030E+03  0.00000000000E+00 0.  1.
<mgrwt>
<rscale>  0 0.10974430E+04</rscale>
<asrwt>0</asrwt>
<pdfrwt beam="1">  1        2 0.17958266E+00 0.10974430E+04</pdfrwt>
<pdfrwt beam="2">  1       -2 0.39683760E-01 0.10974430E+04</pdfrwt>
<totfact> 0.11812171E+02</totfact>
</mgrwt>
</event>
<event>
 6    1  0.1780144E-005  0.1471741E+04  0.7818608E-02  0.8903465E-01
          2   -1    0    0  501    0  0.00000000000E+00  0.00000000000E+00  0.65324076426E+03  0.65324076426E+03  0.00000000000E+00 0. -1.
         -2   -1    0    0    0  501 -0.00000000000E+00 -0.00000000000E+00 -0.82895220242E+03  0.82895220242E+03  0.00000000000E+00 0.  1.
         23    2    1    2    0    0 -0.23531089768E+03 -0.23335293553E+03 -0.74672700706E+03  0.82197815997E+03  0.90675582741E+02 0.  0.
         13    1    3    3    0    0 -0.18151417884E+02 -0.51512195305E+01 -0.10978202572E+03  0.11139166129E+03  0.00000000000E+00 0.  1.
        -13    1    3    3    0    0 -0.21715947980E+03 -0.22820171599E+03 -0.63694498134E+03  0.71058649868E+03  0.00000000000E+00 0. -1.
         22    1    1    2    0    0  0.23531089768E+03  0.23335293553E+03  0.57101556890E+03  0.66021480672E+03  0.00000000000E+00 0. -1.
<mgrwt>
<rscale>  0 0.14717410E+04</rscale>
<asrwt>0</asrwt>
<pdfrwt beam="1">  1        2 0.10049858E+00 0.14717410E+04</pdfrwt>
<pdfrwt beam="2">  1       -2 0.12753111E+00 0.14717410E+04</pdfrwt>
<totfact> 0.19718203E+01</totfact>
</mgrwt>
</event>
<event>
 6    1  0.1780144E-005  0.4299765E+04  0.7818608E-02  0.7946662E-01
          1   -1    0    0  501    0  0.00000000000E+00  0.00000000000E+00  0.32556100130E+04  0.32556100130E+04  0.00000000000E+00 0. -1.
         -1   -1    0    0    0  501 -0.00000000000E+00 -0.00000000000E+00 -0.14197015487E+04  0.14197015487E+04  0.00000000000E+00 0.  1.
         23    2    1    2    0    0  0.12997643945E+04  0.16555716011E+03  0.27704083003E+04  0.30659369633E+04  0.89502279862E+02 0.  0.
         11    1    3    3    0    0  0.92860395119E+03  0.14222541230E+03  0.19067549135E+04  0.21256170084E+04  0.00000000000E+00 0. -1.
        -11    1    3    3    0    0  0.37116044327E+03  0.23331747816E+02  0.86365338674E+03  0.94031995488E+03  0.00000000000E+00 0.  1.
         22    1    1    2    0    0 -0.12997643945E+04 -0.16555716011E+03 -0.93449983598E+03  0.16093745984E+04  0.00000000000E+00 0.  1.
<mgrwt>
<rscale>  0 0.42997649E+04</rscale>
<asrwt>0</asrwt>
<pdfrwt beam="1">  1        1 0.50086308E+00 0.42997649E+04</pdfrwt>
<pdfrwt beam="2">  1       -1 0.21841562E+00 0.42997649E+04</pdfrwt>
<totfact> 0.33217713E-02</totfact>
</mgrwt>
</event>
<event>
 6    1  0.1780144E-005  0.3822720E+04  0.7818608E-02  0.8041297E-01
          2   -1    0    0  501    0  0.00000000000E+00  0.00000000000E+00  0.18924107147E+04  0.18924107147E+04  0.00000000000E+00 0.  1.
         -2   -1    0    0    0  501 -0.00000000000E+00 -0.00000000000E+00 -0.19304994149E+04  0.19304994149E+04  0.00000000000E+00 0. -1.
         23    2    1    2    0    0 -0.40679685700E+03 -0.10666808667E+04  0.15126991868E+04  0.18972323723E+04  0.89107184596E+02 0.  0.
         11    1    3    3    0    0 -0.89178707286E+02 -0.17007376373E+03  0.29609281673E+03  0.35291483826E+03  0.00000000000E+00 0. -1.
        -11    1    3    3    0    0 -0.31761814971E+03 -0.89660710300E+03  0.12166063701E+04  0.15443175340E+04  0.00000000000E+00 0.  1.
         22    1    1    2    0    0  0.40679685700E+03  0.10666808667E+04 -0.15507878870E+04  0.19256777573E+04  0.00000000000E+00 0. -1.
<mgrwt>
<rscale>  0 0.38227204E+04</rscale>
<asrwt>0</asrwt>
<pdfrwt beam="1">  1        2 0.29114011E+00 0.38227204E+04</pdfrwt>
<pdfrwt beam="2">  1       -2 0.29699991E+00 0.38227204E+04</pdfrwt>
<totfact> 0.20346194E-01</totfact>
</mgrwt>
</event>
<event>
 6    1  0.1780144E-005  0.3129102E+04  0.7818608E-02  0.8207796E-01
         -1   -1    0    0    0  501 -0.00000000000E+00  0.00000000000E+00  0.21935924181E+04  0.21935924181E+04  0.00000000000E+00 0.  1.
          1   -1    0    0  501    0  0.00000000000E+00 -0.00000000000E+00 -0.11158955820E+04  0.11158955820E+04  0.00000000000E+00 0. -1.
         23    2    1    2    0    0 -0.81885177696E+03  0.84991041638E+03 -0.54490879136E+03  0.13030695565E+04  0.90546836796E+02 0.  0.
         11    1    3    3    0    0 -0.22470927022E+03  0.18322242542E+03 -0.15314114614E+03  0.32789773397E+03  0.00000000000E+00 0. -1.
        -11    1    3    3    0    0 -0.59414250674E+03  0.66668799096E+03 -0.39176764521E+03  0.97517182252E+03  0.00000000000E+00 0.  1.
         22    1    1    2    0    0  0.81885177696E+03 -0.84991041638E+03  0.16226056274E+04  0.20064184436E+04  0.00000000000E+00 0.  1.
<mgrwt>
<rscale>  0 0.31291022E+04</rscale>
<asrwt>0</asrwt>
<pdfrwt beam="1">  1        1 0.17167624E+00 0.31291022E+04</pdfrwt>
<pdfrwt beam="2">  1       -1 0.33747575E+00 0.31291022E+04</pdfrwt>
<totfact> 0.19513167E-01</totfact>
</mgrwt>
</event>
<event>
 6    1  0.1780144E-005  0.1606849E+04  0.7818608E-02  0.8816351E-01
         -2   -1    0    0    0  501 -0.00000000000E+00  0.00000000000E+00  0.10411792455E+04  0.10411792455E+04  0.00000000000E+00 0.  1.
          2   -1    0    0  501    0  0.00000000000E+00 -0.00000000000E+00 -0.61996162364E+03  0.61996162364E+03  0.00000000000E+00 0. -1.
         23    2    1    2    0    0  0.83236250459E+02  0.30100117567E+03 -0.55118119528E+03  0.63982336674E+03  0.89684165025E+02 0.  0.
         11    1    3    3    0    0  0.97974041043E+02  0.21820124195E+03 -0.43460670835E+03  0.49607830596E+03  0.00000000000E+00 0. -1.
        -11    1    3    3    0    0 -0.14737790585E+02  0.82799933716E+02 -0.11657448693E+03  0.14374506078E+03  0.00000000000E+00 0.  1.
         22    1    1    2    0    0 -0.83236250459E+02 -0.30100117567E+03  0.97239881718E+03  0.10213175024E+04  0.00000000000E+00 0.  1.
<mgrwt>
<rscale>  0 0.16068493E+04</rscale>
<asrwt>0</asrwt>
<pdfrwt beam="1">  1        2 0.95378711E-01 0.16068493E+04</pdfrwt>
<pdfrwt beam="2">  1       -2 0.16018142E+00 0.16068493E+04</pdfrwt>
<totfact> 0.11461262E+01</totfact>
</mgrwt>
</event>
<event>
 6    1  0.1780144E-005  0.3097660E+04  0.7818608E-02  0.8216380E-01
          2   -1    0    0  501    0  0.00000000000E+00  0.00000000000E+00  0.25700392532E+04  0.25700392532E+04  0.00000000000E+00 0. -1.
         -2   -1    0    0    0  501 -0.00000000000E+00 -0.00000000000E+00 -0.93339997303E+03  0.93339997303E+03  0.00000000000E+00 0.  1.
         23    2    1    2    0    0  0.97218869089E+03  0.39288632911E+03  0.21062082310E+04  0.23545242956E+04  0.90338407269E+02 0.  0.
         11    1    3    3    0    0  0.79813934858E+03  0.31943912146E+03  0.16442346541E+04  0.18554178424E+04  0.00000000000E+00 0.  1.
        -11    1    3    3    0    0  0.17404934231E+03  0.73447207653E+02  0.46197357689E+03  0.49910645319E+03  0.00000000000E+00 0. -1.
         22    1    1    2    0    0 -0.97218869089E+03 -0.39288632911E+03 -0.46956895083E+03  0.11489149307E+04  0.00000000000E+00 0.  1.
<mgrwt>
<rscale>  0 0.30976601E+04</rscale>
<asrwt>0</asrwt>
<pdfrwt beam="1">  1        2 0.39539065E+00 0.30976601E+04</pdfrwt>
<pdfrwt beam="2">  1       -2 0.14360000E+00 0.30976601E+04</pdfrwt>
<totfact> 0.90426409E-01</totfact>
</mgrwt>
</event>
<event>
 6    1  0.1780144E-005  0.3640053E+04  0.7818608E-02  0.8081378E-01
         -1   -1    0    0    0  501 -0.00000000000E+00  0.00000000000E+00  0.15853853883E+04  0.15853853883E+04  0.00000000000E+00 0.  1.
          1   -1    0    0  501    0  0.00000000000E+00 -0.00000000000E+00 -0.20893948227E+04  0.20893948227E+04  0.00000000000E+00 0. -1.
         23    2    1    2    0    0 -0.24374988288E+03 -0.15561207724E+04  0.66612943366E+03  0.17126000882E+04  0.91349745520E+02 0.  0.
         13    1    3    3    0    0 -0.24357692978E+03 -0.15081970349E+04  0.62980555583E+03  0.16524657500E+04  0.00000000000E+00 0.  1.
        -13    1    3    3    0    0 -0.17295310153E+00 -0.47923737508E+02  0.36323877830E+02  0.60134338195E+02  0.00000000000E+00 0. -1.
         22    1    1    2    0    0  0.24374988288E+03  0.15561207724E+04 -0.11701388681E+04  0.19621801228E+04  0.00000000000E+00 0. -1.
<mgrwt>
<rscale>  0 0.36400528E+04</rscale>
<asrwt>0</asrwt>
<pdfrwt beam="1">  1        1 0.32144536E+00 0.36400528E+04</pdfrwt>
<pdfrwt beam="2">  1       -1 0.24390544E+00 0.36400528E+04</pdfrwt>
<totfact> 0.15969449E-01</totfact>
</mgrwt>
</event>
<event>
 6    1  0.1780144E-005  0.1779148E+04  0.7818608E-02  0.8717468E-01
         -1   -1    0    0    0  501 -0.00000000000E+00  0.00000000000E+00  0.87700629983E+03  0.87700629983E+03  0.00000000000E+00 0.  1.
          1   -1    0    0  501    0  0.00000000000E+00 -0.00000000000E+00 -0.90232142923E+03  0.90232142923E+03  0.00000000000E+00 0. -1.
         23    2    1    2    0    0 -0.76514595836E+03 -0.40723889354E+03 -0.20231223508E+03  0.89466969941E+03  0.90618853371E+02 0.  0.
         13    1    3    3    0    0 -0.25940259465E+03 -0.14644309636E+03 -0.26301856103E+02  0.29904359919E+03  0.00000000000E+00 0.  1.
        -13    1    3    3    0    0 -0.50574336370E+03 -0.26079579718E+03 -0.17601037897E+03  0.59562610022E+03  0.00000000000E+00 0. -1.
         22    1    1    2    0    0  0.76514595836E+03  0.40723889354E+03  0.17699710568E+03  0.88465802965E+03  0.00000000000E+00 0.  1.
<mgrwt>
<rscale>  0 0.17791476E+04</rscale>
<asrwt>0</asrwt>
<pdfrwt beam="1">  1        1 0.13881868E+00 0.17791476E+04</pdfrwt>
<pdfrwt beam="2">  1       -1 0.13492405E+00 0.17791476E+04</pdfrwt>
<totfact> 0.79013708E+00</totfact>
</mgrwt>
</event>
<event>
 6    1  0.1780144E-005  0.1776895E+04  0.7818608E-02  0.8718684E-01
         -1   -1    0    0    0  501 -0.00000000000E+00  0.00000000000E+00  0.88560263543E+03  0.88560263543E+03  0.00000000000E+00 0.  1.
          1   -1    0    0  501    0  0.00000000000E+00 -0.00000000000E+00 -0.89130162326E+03  0.89130162326E+03  0.00000000000E+00 0. -1.
         23    2    1    2    0    0 -0.26368217784E+03  0.73031701395E+03 -0.42977519941E+03  0.89218290990E+03  0.91609993476E+02 0.  0.
         11    1    3    3    0    0 -0.14915670032E+03  0.30950280104E+03 -0.15663851919E+03  0.37759148666E+03  0.00000000000E+00 0. -1.
        -11    1    3    3    0    0 -0.11452547752E+03  0.42081421291E+03 -0.27313668022E+03  0.51459142324E+03  0.00000000000E+00 0.  1.
         22    1    1    2    0    0  0.26368217784E+03 -0.73031701395E+03  0.42407621158E+03  0.88472134879E+03  0.00000000000E+00 0.  1.
<mgrwt>
<rscale>  0 0.17768951E+04</rscale>
<asrwt>0</asrwt>
<pdfrwt beam="1">  1        1 0.13712333E+00 0.17768951E+04</pdfrwt>
<pdfrwt beam="2">  1       -1 0.13624656E+00 0.17768951E+04</pdfrwt>
<totfact> 0.78696574E+00</totfact>
</mgrwt>
</event>
<event>
 6    1  0.1780144E-005  0.1974260E+04  0.7818608E-02  0.8618750E-01
          1   -1    0    0  501    0  0.00000000000E+00  0.00000000000E+00  0.21601047713E+04  0.21601047713E+04  0.00000000000E+00 0. -1.
         -1   -1    0    0    0  501 -0.00000000000E+00 -0.00000000000E+00 -0.45110129765E+03  0.45110129765E+03  0.00000000000E+00 0.  1.
         23    2    1    2    0    0  0.58653124687E+03 -0.46708465759E+03  0.17010829192E+04  0.18613729434E+04  0.94016784175E+02 0.  0.
         11    1    3    3    0    0  0.52432561927E+03 -0.38432829911E+03  0.15112397551E+04  0.16451356157E+04  0.00000000000E+00 0. -1.
        -11    1    3    3    0    0  0.62205627597E+02 -0.82756358474E+02  0.18984316405E+03  0.21623732774E+03  0.00000000000E+00 0.  1.
         22    1    1    2    0    0 -0.58653124687E+03  0.46708465759E+03  0.79205544386E+01  0.74983312549E+03  0.00000000000E+00 0.  1.
<mgrwt>
<rscale>  0 0.19742604E+04</rscale>
<asrwt>0</asrwt>
<pdfrwt beam="1">  1        1 0.33232381E+00 0.19742604E+04</pdfrwt>
<pdfrwt beam="2">  1       -1 0.69400201E-01 0.19742604E+04</pdfrwt>
<totfact> 0.45286001E+00</totfact>
</mgrwt>
</event>
<event>
 6    1  0.1780144E-005  0.4055604E+04  0.7818608E-02  0.7993422E-01
          1   -1    0    0  501    0  0.00000000000E+00  0.00000000000E+00  0.18479871482E+04  0.18479871482E+04  0.00000000000E+00 0. -1.
         -1   -1    0    0    0  501 -0.00000000000E+00 -0.00000000000E+00 -0.22251138997E+04  0.22251138997E+04  0.00000000000E+00 0.  1.
         23    2    1    2    0    0 -0.22064814417E+03 -0.15228069493E+04  0.11361875193E+04  0.19149197092E+04  0.91481174840E+02 0.  0.
         11    1    3    3    0    0 -0.16066051448E+03 -0.96074851371E+03  0.67054698242E+03  0.11825746332E+04  0.00000000000E+00 0.  1.
        -11    1    3    3    0    0 -0.59987629686E+02 -0.56205843554E+03  0.46564053692E+03  0.73234507597E+03  0.00000000000E+00 0. -1.
         22    1    1    2    0    0  0.22064814417E+03  0.15228069493E+04 -0.15133142708E+04  0.21581813387E+04  0.00000000000E+00 0.  1.
<mgrwt>
<rscale>  0 0.40556045E+04</rscale>
<asrwt>0</asrwt>
<pdfrwt beam="1">  1        1 0.28430572E+00 0.40556045E+04</pdfrwt>
<pdfrwt beam="2">  1       -1 0.34232521E+00 0.40556045E+04</pdfrwt>
<totfact> 0.51412453E-02</totfact>
</mgrwt>
</event>
<event>
 6    1  0.1780144E-005  0.1019298E+04  0.7818608E-02  0.9287629E-01
          2   -1    0    0  501    0  0.00000000000E+00  0.00000000000E+00  0.61695777835E+03  0.61695777835E+03  0.00000000000E+00 0. -1.
         -2   -1    0    0    0  501 -0.00000000000E+00 -0.00000000000E+00 -0.42100456306E+03  0.42100456306E+03  0.00000000000E+00 0.  1.
         23    2    1    2    0    0 -0.17965606383E+03  0.34738099488E+03  0.42467571338E+03  0.58490181785E+03  0.93865958249E+02 0.  0.
         13    1    3    3    0    0  0.17933922720E+01  0.24130572451E+01  0.30170257025E+02  0.30319688489E+02  0.00000000000E+00 0. -1.
        -13    1    3    3    0    0 -0.18144945610E+03  0.34496793764E+03  0.39450545635E+03  0.55458212936E+03  0.00000000000E+00 0.  1.
         22    1    1    2    0    0  0.17965606383E+03 -0.34738099488E+03 -0.22872249808E+03  0.45306052356E+03  0.00000000000E+00 0.  1.
<mgrwt>
<rscale>  0 0.10192979E+04</rscale>
<asrwt>0</asrwt>
<pdfrwt beam="1">  1        2 0.94916582E-01 0.10192979E+04</pdfrwt>
<pdfrwt beam="2">  1       -2 0.64769932E-01 0.10192979E+04</pdfrwt>
<totfact> 0.10526255E+02</totfact>
</mgrwt>
</event>
<event>
 6    1  0.1780144E-005  0.2659279E+04  0.7818608E-02  0.8348340E-01
          2   -1    0    0  501    0  0.00000000000E+00  0.00000000000E+00  0.12293342002E+04  0.12293342002E+04  0.00000000000E+00 0. -1.
         -2   -1    0    0    0  501 -0.00000000000E+00 -0.00000000000E+00 -0.14381288675E+04  0.14381288675E+04  0.00000000000E+00 0.  1.
         23    2    1    2    0    0 -0.12005210008E+04  0.71850766847E+02  0.46054642445E+03  0.12910798714E+04  0.91493273520E+02 0.  0.
         11    1    3    3    0    0 -0.19528819053E+03  0.34836553044E+01  0.11074181367E+03  0.22452920191E+03  0.00000000000E+00 0. -1.
        -11    1    3    3    0    0 -0.10052328103E+04  0.68367111543E+02  0.34980461077E+03  0.10665506695E+04  0.00000000000E+00 0.  1.
         22    1    1    2    0    0  0.12005210008E+04 -0.71850766847E+02 -0.66934109174E+03  0.13763831964E+04  0.00000000000E+00 0.  1.
<mgrwt>
<rscale>  0 0.26592789E+04</rscale>
<asrwt>0</asrwt>
<pdfrwt beam="1">  1        2 0.18912834E+00 0.26592789E+04</pdfrwt>
<pdfrwt beam="2">  1       -2 0.22125059E+00 0.26592789E+04</pdfrwt>
<totfact> 0.15541693E+00</totfact>
</mgrwt>
</event>
<event>
 6    1  0.1780144E-005  0.2868721E+04  0.7818608E-02  0.8282245E-01
         -1   -1    0    0    0  501 -0.00000000000E+00  0.00000000000E+00  0.70016282573E+03  0.70016282573E+03  0.00000000000E+00 0.  1.
          1   -1    0    0  501    0  0.00000000000E+00 -0.00000000000E+00 -0.29384460107E+04  0.29384460107E+04  0.00000000000E+00 0. -1.
         23    2    1    2    0    0  0.70138155251E+03  0.41743824130E+03 -0.26143271631E+04  0.27399432474E+04  0.79948208253E+02 0.  0.
         11    1    3    3    0    0  0.20208350413E+03  0.87473399109E+02 -0.77705961805E+03  0.80765771723E+03  0.00000000000E+00 0. -1.
        -11    1    3    3    0    0  0.49929804837E+03  0.32996484219E+03 -0.18372675450E+04  0.19322855302E+04  0.00000000000E+00 0.  1.
         22    1    1    2    0    0 -0.70138155251E+03 -0.41743824130E+03  0.37604397807E+03  0.89866558905E+03  0.00000000000E+00 0.  1.
<mgrwt>
<rscale>  0 0.28687214E+04</rscale>
<asrwt>0</asrwt>
<pdfrwt beam="1">  1        1 0.45206862E+00 0.28687214E+04</pdfrwt>
<pdfrwt beam="2">  1       -1 0.10771736E+00 0.28687214E+04</pdfrwt>
<totfact> 0.45705311E-01</totfact>
</mgrwt>
</event>
<event>
 6    1  0.1780144E-005  0.2738937E+04  0.7818608E-02  0.8322481E-01
          2   -1    0    0  501    0  0.00000000000E+00  0.00000000000E+00  0.33467226368E+04  0.33467226368E+04  0.00000000000E+00 0.  1.
         -2   -1    0    0    0  501 -0.00000000000E+00 -0.00000000000E+00 -0.56038235094E+03  0.56038235094E+03  0.00000000000E+00 0. -1.
         23    2    1    2    0    0  0.93677479295E+03 -0.25101488959E+03  0.18333464604E+02  0.97411721927E+03  0.89513984666E+02 0.  0.
         13    1    3    3    0    0  0.78633023651E+03 -0.17591583541E+03  0.12282802796E+02  0.80586133376E+03  0.00000000000E+00 0.  1.
        -13    1    3    3    0    0  0.15044455643E+03 -0.75099054187E+02  0.60506618073E+01  0.16825588551E+03  0.00000000000E+00 0. -1.
         22    1    1    2    0    0 -0.93677479295E+03  0.25101488959E+03  0.27680068212E+04  0.29329877684E+04  0.00000000000E+00 0.  1.
<mgrwt>
<rscale>  0 0.27389372E+04</rscale>
<asrwt>0</asrwt>
<pdfrwt beam="1">  1        2 0.51488039E+00 0.27389372E+04</pdfrwt>
<pdfrwt beam="2">  1       -2 0.86212671E-01 0.27389372E+04</pdfrwt>
<totfact> 0.10570102E+00</totfact>
</mgrwt>
</event>
<event>
 6    1  0.1780144E-005  0.2734102E+04  0.7818608E-02  0.8324024E-01
         -2   -1    0    0    0  501 -0.00000000000E+00  0.00000000000E+00  0.98285374003E+03  0.98285374003E+03  0.00000000000E+00 0.  1.
          2   -1    0    0  501    0  0.00000000000E+00 -0.00000000000E+00 -0.19014311216E+04  0.19014311216E+04  0.00000000000E+00 0. -1.
         23    2    1    2    0    0  0.60025015430E+03 -0.31841750687E+03 -0.17094063877E+04  0.18416437569E+04  0.88834524942E+02 0.  0.
         13    1    3    3    0    0  0.32256719893E+03 -0.21054733480E+03 -0.89078528719E+03  0.97050409885E+03  0.00000000000E+00 0.  1.
        -13    1    3    3    0    0  0.27768295537E+03 -0.10787017206E+03 -0.81862110050E+03  0.87113965809E+03  0.00000000000E+00 0. -1.
         22    1    1    2    0    0 -0.60025015430E+03  0.31841750687E+03  0.79082900607E+03  0.10426411047E+04  0.00000000000E+00 0.  1.
<mgrwt>
<rscale>  0 0.27341022E+04</rscale>
<asrwt>0</asrwt>
<pdfrwt beam="1">  1        2 0.29252786E+00 0.27341022E+04</pdfrwt>
<pdfrwt beam="2">  1       -2 0.15120827E+00 0.27341022E+04</pdfrwt>
<totfact> 0.19450879E+00</totfact>
</mgrwt>
</event>
<event>
 6    1  0.1780144E-005  0.7635678E+03  0.7818608E-02  0.9614302E-01
         -1   -1    0    0    0  501 -0.00000000000E+00  0.00000000000E+00  0.15003142308E+03  0.15003142308E+03  0.00000000000E+00 0.  1.
          1   -1    0    0  501    0  0.00000000000E+00 -0.00000000000E+00 -0.97152287977E+03  0.97152287977E+03  0.00000000000E+00 0. -1.
         23    2    1    2    0    0 -0.77528524277E+02  0.93314997782E+02 -0.93987925053E+03  0.95204315095E+03  0.91075764182E+02 0.  0.
         11    1    3    3    0    0 -0.15907226569E+02  0.74209368208E+02 -0.68226743734E+03  0.68647572881E+03  0.00000000000E+00 0.  1.
        -11    1    3    3    0    0 -0.61621297708E+02  0.19105629574E+02 -0.25761181319E+03  0.26556742215E+03  0.00000000000E+00 0. -1.
         22    1    1    2    0    0  0.77528524277E+02 -0.93314997782E+02  0.11838779384E+03  0.16951115190E+03  0.00000000000E+00 0.  1.
<mgrwt>
<rscale>  0 0.76356784E+03</rscale>
<asrwt>0</asrwt>
<pdfrwt beam="1">  1        1 0.14946505E+00 0.76356784E+03</pdfrwt>
<pdfrwt beam="2">  1       -1 0.23081758E-01 0.76356784E+03</pdfrwt>
<totfact> 0.25856483E+02</totfact>
</mgrwt>
</event>
<event>
 6    1  0.1780144E-005  0.4166718E+04  0.7818608E-02  0.7971733E-01
         -2   -1    0    0    0  501 -0.00000000000E+00  0.00000000000E+00  0.14023353811E+04  0.14023353811E+04  0.00000000000E+00 0. -1.
          2   -1    0    0  501    0  0.00000000000E+00 -0.00000000000E+00 -0.30951121206E+04  0.30951121206E+04  0.00000000000E+00 0.  1.
         23    2    1    2    0    0 -0.74809011746E+03 -0.13676801873E+04 -0.23369549050E+04  0.28106892417E+04  0.91803415697E+02 0.  0.
         11    1    3    3    0    0 -0.22537579907E+03 -0.34972311754E+03 -0.57457070253E+03  0.70938847041E+03  0.00000000000E+00 0.  1.
        -11    1    3    3    0    0 -0.52271431839E+03 -0.10179570698E+04 -0.17623842025E+04  0.21013007713E+04  0.00000000000E+00 0. -1.
         22    1    1    2    0    0  0.74809011746E+03  0.13676801873E+04  0.64417816548E+03  0.16867582599E+04  0.00000000000E+00 0. -1.
<mgrwt>
<rscale>  0 0.41667182E+04</rscale>
<asrwt>0</asrwt>
<pdfrwt beam="1">  1        2 0.47617109E+00 0.41667182E+04</pdfrwt>
<pdfrwt beam="2">  1       -2 0.21574391E+00 0.41667182E+04</pdfrwt>
<totfact> 0.12400893E-01</totfact>
</mgrwt>
</event>
<event>
 6    1  0.1780144E-005  0.8578537E+03  0.7818608E-02  0.9479856E-01
         -1   -1    0    0    0  501 -0.00000000000E+00  0.00000000000E+00  0.25266596163E+03  0.25266596163E+03  0.00000000000E+00 0.  1.
          1   -1    0    0  501    0  0.00000000000E+00 -0.00000000000E+00 -0.72814817153E+03  0.72814817153E+03  0.00000000000E+00 0. -1.
         23    2    1    2    0    0  0.13045811821E+03 -0.12024591542E+03 -0.68088719001E+03  0.70939267742E+03  0.90289559094E+02 0.  0.
         11    1    3    3    0    0  0.73371353564E+02 -0.11992066568E+03 -0.44409758444E+03  0.46581861930E+03  0.00000000000E+00 0. -1.
        -11    1    3    3    0    0  0.57086764643E+02 -0.32524973697E+00 -0.23678960556E+03  0.24357405812E+03  0.00000000000E+00 0.  1.
         22    1    1    2    0    0 -0.13045811821E+03  0.12024591542E+03  0.20540498011E+03  0.27142145574E+03  0.00000000000E+00 0.  1.
<mgrwt>
<rscale>  0 0.85785374E+03</rscale>
<asrwt>0</asrwt>
<pdfrwt beam="1">  1        1 0.11202280E+00 0.85785374E+03</pdfrwt>
<pdfrwt beam="2">  1       -1 0.38871687E-01 0.85785374E+03</pdfrwt>
<totfact> 0.16598279E+02</totfact>
</mgrwt>
</event>
<event>
 6    1  0.1780144E-005  0.6797982E+03  0.7818608E-02  0.9752418E-01
          1   -1    0    0  501    0  0.00000000000E+00  0.00000000000E+00  0.26987259270E+04  0.26987259270E+04  0.00000000000E+00 0. -1.
         -1   -1    0    0    0  501 -0.00000000000E+00 -0.00000000000E+00 -0.42809607296E+02  0.42809607296E+02  0.00000000000E+00 0.  1.
         23    2    1    2    0    0  0.26338053985E+03  0.19249218004E+03  0.16190823330E+04  0.16545915320E+04  0.99110991189E+02 0.  0.
         13    1    3    3    0    0  0.23265175726E+03  0.16561720488E+03  0.15323234116E+04  0.15587080985E+04  0.00000000000E+00 0.  1.
        -13    1    3    3    0    0  0.30728782589E+02  0.26874975161E+02  0.86758921388E+02  0.95883433447E+02  0.00000000000E+00 0. -1.
         22    1    1    2    0    0 -0.26338053985E+03 -0.19249218004E+03  0.10368339867E+04  0.10869440023E+04  0.00000000000E+00 0. -1.
<mgrwt>
<rscale>  0 0.67979820E+03</rscale>
<asrwt>0</asrwt>
<pdfrwt beam="1">  1        1 0.41518847E+00 0.67979820E+03</pdfrwt>
<pdfrwt beam="2">  1       -1 0.65860955E-02 0.67979820E+03</pdfrwt>
<totfact> 0.12613295E+02</totfact>
</mgrwt>
</event>
<event>
 6    1  0.1780144E-005  0.2717784E+04  0.7818608E-02  0.8329258E-01
          1   -1    0    0  501    0  0.00000000000E+00  0.00000000000E+00  0.14766882223E+04  0.14766882223E+04  0.00000000000E+00 0. -1.
         -1   -1    0    0    0  501 -0.00000000000E+00 -0.00000000000E+00 -0.12504924634E+04  0.12504924634E+04  0.00000000000E+00 0.  1.
         23    2    1    2    0    0  0.38618789120E+03 -0.12197740813E+04 -0.34198245250E+03  0.13272462670E+04  0.87411433845E+02 0.  0.
         11    1    3    3    0    0  0.34997988637E+03 -0.10669520932E+04 -0.32672725802E+03  0.11694543134E+04  0.00000000000E+00 0.  1.
        -11    1    3    3    0    0  0.36208004832E+02 -0.15282198807E+03 -0.15255194478E+02  0.15779195356E+03  0.00000000000E+00 0. -1.
         22    1    1    2    0    0 -0.38618789120E+03  0.12197740813E+04  0.56817821143E+03  0.13999344187E+04  0.00000000000E+00 0. -1.
<mgrwt>
<rscale>  0 0.27177840E+04</rscale>
<asrwt>0</asrwt>
<pdfrwt beam="1">  1        1 0.22718280E+00 0.27177840E+04</pdfrwt>
<pdfrwt beam="2">  1       -1 0.19238346E+00 0.27177840E+04</pdfrwt>
<totfact> 0.10066157E+00</totfact>
</mgrwt>
</event>
<event>
 6    1  0.1780144E-005  0.1811429E+04  0.7818608E-02  0.8700245E-01
          2   -1    0    0  501    0  0.00000000000E+00  0.00000000000E+00  0.24035631085E+04  0.24035631085E+04  0.00000000000E+00 0. -1.
         -2   -1    0    0    0  501 -0.00000000000E+00 -0.00000000000E+00 -0.34129260010E+03  0.34129260010E+03  0.00000000000E+00 0.  1.
         23    2    1    2    0    0  0.36270609943E+03 -0.10769688029E+03 -0.20813983104E+03  0.44313516909E+03  0.99459822238E+02 0.  0.
         13    1    3    3    0    0  0.46738558797E+02 -0.48392554520E+02 -0.55683768602E+02  0.87332779053E+02  0.00000000000E+00 0. -1.
        -13    1    3    3    0    0  0.31596754063E+03 -0.59304325766E+02 -0.15245606243E+03  0.35580239004E+03  0.00000000000E+00 0.  1.
         22    1    1    2    0    0 -0.36270609943E+03  0.10769688029E+03  0.22704103395E+04  0.23017205395E+04  0.00000000000E+00 0. -1.
<mgrwt>
<rscale>  0 0.18114285E+04</rscale>
<asrwt>0</asrwt>
<pdfrwt beam="1">  1        2 0.36977893E+00 0.18114285E+04</pdfrwt>
<pdfrwt beam="2">  1       -2 0.52506555E-01 0.18114285E+04</pdfrwt>
<totfact> 0.12784125E+01</totfact>
</mgrwt>
</event>
<event>
 6    1  0.1780144E-005  0.2701543E+04  0.7818608E-02  0.8334504E-01
         -2   -1    0    0    0  501 -0.00000000000E+00  0.00000000000E+00  0.37076576713E+03  0.37076576713E+03  0.00000000000E+00 0.  1.
          2   -1    0    0  501    0  0.00000000000E+00 -0.00000000000E+00 -0.49211228390E+04  0.49211228390E+04  0.00000000000E+00 0. -1.
         23    2    1    2    0    0  0.10386643860E+04  0.33424263466E+03 -0.72396115262E+03  0.13129631763E+04  0.95972424553E+02 0.  0.
         13    1    3    3    0    0  0.77149219286E+03  0.24013488293E+03 -0.58437799169E+03  0.99717731764E+03  0.00000000000E+00 0. -1.
        -13    1    3    3    0    0  0.26717219309E+03  0.94107751726E+02 -0.13958316093E+03  0.31578585863E+03  0.00000000000E+00 0.  1.
         22    1    1    2    0    0 -0.10386643860E+04 -0.33424263466E+03 -0.38263959192E+04  0.39789254298E+04  0.00000000000E+00 0. -1.
<mgrwt>
<rscale>  0 0.27015432E+04</rscale>
<asrwt>0</asrwt>
<pdfrwt beam="1">  1        2 0.75709581E+00 0.27015432E+04</pdfrwt>
<pdfrwt beam="2">  1       -2 0.57040888E-01 0.27015432E+04</pdfrwt>
<totfact> 0.10908877E-01</totfact>
</mgrwt>
</event>
<event>
 6    1  0.1780144E-005  0.2708473E+04  0.7818608E-02  0.8332261E-01
         -1   -1    0    0    0  501 -0.00000000000E+00  0.00000000000E+00  0.13900279761E+04  0.13900279761E+04  0.00000000000E+00 0.  1.
          1   -1    0    0  501    0  0.00000000000E+00 -0.00000000000E+00 -0.13193668319E+04  0.13193668319E+04  0.00000000000E+00 0. -1.
         23    2    1    2    0    0 -0.11564421230E+04  0.36316774188E+03  0.63618475858E+03  0.13718350332E+04  0.89169046219E+02 0.  0.
         11    1    3    3    0    0 -0.70436430562E+03  0.18170596399E+03  0.40592583501E+03  0.83301975722E+03  0.00000000000E+00 0.  1.
        -11    1    3    3    0    0 -0.45207781736E+03  0.18146177789E+03  0.23025892357E+03  0.53881527602E+03  0.00000000000E+00 0. -1.
         22    1    1    2    0    0  0.11564421230E+04 -0.36316774188E+03 -0.56552361442E+03  0.13375597747E+04  0.00000000000E+00 0. -1.
<mgrwt>
<rscale>  0 0.27084732E+04</rscale>
<asrwt>0</asrwt>
<pdfrwt beam="1">  1        1 0.20297951E+00 0.27084732E+04</pdfrwt>
<pdfrwt beam="2">  1       -1 0.21385046E+00 0.27084732E+04</pdfrwt>
<totfact> 0.92552811E-01</totfact>
</mgrwt>
</event>
<event>
 6    1  0.1780144E-005  0.1939749E+04  0.7818608E-02  0.8635320E-01
          1   -1    0    0  501    0  0.00000000000E+00  0.00000000000E+00  0.33251930617E+03  0.33251930617E+03  0.00000000000E+00 0. -1.
         -1   -1    0    0    0  501 -0.00000000000E+00 -0.00000000000E+00 -0.28288785014E+04  0.28288785014E+04  0.00000000000E+00 0.  1.
         23    2    1    2    0    0 -0.26431672211E+03 -0.62756727930E+03 -0.23714407767E+04  0.24690766170E+04  0.94360816570E+02 0.  0.
         13    1    3    3    0    0 -0.18627573180E+03 -0.32454706276E+03 -0.13307019431E+04  0.13823158487E+04  0.00000000000E+00 0. -1.
        -13    1    3    3    0    0 -0.78040990311E+02 -0.30302021654E+03 -0.10407388336E+04  0.10867607684E+04  0.00000000000E+00 0.  1.
         22    1    1    2    0    0  0.26431672211E+03  0.62756727930E+03 -0.12491841857E+03  0.69232119059E+03  0.00000000000E+00 0. -1.
<mgrwt>
<rscale>  0 0.19397492E+04</rscale>
<asrwt>0</asrwt>
<pdfrwt beam="1">  1        1 0.51156817E-01 0.19397492E+04</pdfrwt>
<pdfrwt beam="2">  1       -1 0.43521207E+00 0.19397492E+04</pdfrwt>
<totfact> 0.29292047E-01</totfact>
</mgrwt>
</event>
<event>
 6    1  0.1780144E-005  0.1100668E+04  0.7818608E-02  0.9204541E-01
          2   -1    0    0  501    0  0.00000000000E+00  0.00000000000E+00  0.61880604180E+03  0.61880604180E+03  0.00000000000E+00 0. -1.
         -2   -1    0    0    0  501 -0.00000000000E+00 -0.00000000000E+00 -0.48943811250E+03  0.48943811250E+03  0.00000000000E+00 0.  1.
         23    2    1    2    0    0  0.12999093175E+03 -0.39981132268E+03 -0.28650351189E+03  0.51689333484E+03  0.91365864524E+02 0.  0.
         11    1    3    3    0    0  0.78269842855E+01 -0.13570410076E+03 -0.12183655102E+03  0.18254043336E+03  0.00000000000E+00 0. -1.
        -11    1    3    3    0    0  0.12216394746E+03 -0.26410722192E+03 -0.16466696087E+03  0.33435290148E+03  0.00000000000E+00 0.  1.
         22    1    1    2    0    0 -0.12999093175E+03  0.39981132268E+03  0.41587144118E+03  0.59135081946E+03  0.00000000000E+00 0. -1.
<mgrwt>
<rscale>  0 0.11006675E+04</rscale>
<asrwt>0</asrwt>
<pdfrwt beam="1">  1        2 0.95200929E-01 0.11006675E+04</pdfrwt>
<pdfrwt beam="2">  1       -2 0.75298171E-01 0.11006675E+04</pdfrwt>
<totfact> 0.75113107E+01</totfact>
</mgrwt>
</event>
<event>
 6    1  0.1780144E-005  0.4911617E+04  0.7818608E-02  0.7842288E-01
          1   -1    0    0  501    0  0.00000000000E+00  0.00000000000E+00  0.23933743982E+04  0.23933743982E+04  0.00000000000E+00 0. -1.
         -1   -1    0    0    0  501 -0.00000000000E+00 -0.00000000000E+00 -0.25198716035E+04  0.25198716035E+04  0.00000000000E+00 0.  1.
         23    2    1    2    0    0  0.67788013619E+03  0.20379168556E+04  0.11263052856E+04  0.24268549081E+04  0.91839853968E+02 0.  0.
         13    1    3    3    0    0  0.37850907751E+03  0.11821735914E+04  0.60204064153E+03  0.13795856103E+04  0.00000000000E+00 0.  1.
        -13    1    3    3    0    0  0.29937105867E+03  0.85574326422E+03  0.52426464412E+03  0.10472692978E+04  0.00000000000E+00 0. -1.
         22    1    1    2    0    0 -0.67788013619E+03 -0.20379168556E+04 -0.12528024909E+04  0.24863910937E+04  0.00000000000E+00 0.  1.
<mgrwt>
<rscale>  0 0.49116173E+04</rscale>
<asrwt>0</asrwt>
<pdfrwt beam="1">  1        1 0.36821145E+00 0.49116173E+04</pdfrwt>
<pdfrwt beam="2">  1       -1 0.38767255E+00 0.49116173E+04</pdfrwt>
<totfact> 0.10134299E-02</totfact>
</mgrwt>
</event>
<event>
 6    1  0.1780144E-005  0.2077501E+04  0.7818608E-02  0.8571219E-01
         -2   -1    0    0    0  501 -0.00000000000E+00  0.00000000000E+00  0.36084172213E+03  0.36084172213E+03  0.00000000000E+00 0.  1.
          2   -1    0    0  501    0  0.00000000000E+00 -0.00000000000E+00 -0.29902389757E+04  0.29902389757E+04  0.00000000000E+00 0. -1.
         23    2    1    2    0    0 -0.80282068511E+03 -0.54385202052E+03 -0.19086743992E+04  0.21428847264E+04  0.92848885868E+02 0.  0.
         13    1    3    3    0    0 -0.59853067571E+03 -0.39025720035E+03 -0.13163859566E+04  0.14978022696E+04  0.00000000000E+00 0.  1.
        -13    1    3    3    0    0 -0.20429000940E+03 -0.15359482017E+03 -0.59228844264E+03  0.64508245676E+03  0.00000000000E+00 0. -1.
         22    1    1    2    0    0  0.80282068511E+03  0.54385202052E+03 -0.72072285435E+03  0.12081959715E+04  0.00000000000E+00 0. -1.
<mgrwt>
<rscale>  0 0.20775014E+04</rscale>
<asrwt>0</asrwt>
<pdfrwt beam="1">  1        2 0.46003678E+00 0.20775014E+04</pdfrwt>
<pdfrwt beam="2">  1       -2 0.55514109E-01 0.20775014E+04</pdfrwt>
<totfact> 0.49806094E+00</totfact>
</mgrwt>
</event>
<event>
 6    1  0.1780144E-005  0.2203141E+04  0.7818608E-02  0.8517122E-01
         -1   -1    0    0    0  501 -0.00000000000E+00  0.00000000000E+00  0.12714311729E+04  0.12714311729E+04  0.00000000000E+00 0. -1.
          1   -1    0    0  501    0  0.00000000000E+00 -0.00000000000E+00 -0.95440257981E+03  0.95440257981E+03  0.00000000000E+00 0.  1.
         23    2    1    2    0    0 -0.74136163277E+03 -0.71884394835E+03  0.54062984874E+03  0.11692585239E+04  0.92364332090E+02 0.  0.
         13    1    3    3    0    0 -0.65063024307E+03 -0.66762723081E+03  0.49529282198E+03  0.10556328964E+04  0.00000000000E+00 0. -1.
        -13    1    3    3    0    0 -0.90731389706E+02 -0.51216717536E+02  0.45337026767E+02  0.11362562752E+03  0.00000000000E+00 0.  1.
         22    1    1    2    0    0  0.74136163277E+03  0.71884394835E+03 -0.22360125561E+03  0.10565752288E+04  0.00000000000E+00 0.  1.
<mgrwt>
<rscale>  0 0.22031407E+04</rscale>
<asrwt>0</asrwt>
<pdfrwt beam="1">  1        1 0.14683117E+00 0.22031407E+04</pdfrwt>
<pdfrwt beam="2">  1       -1 0.19560480E+00 0.22031407E+04</pdfrwt>
<totfact> 0.24192267E+00</totfact>
</mgrwt>
</event>
<event>
 6    1  0.1780144E-005  0.2239119E+04  0.7818608E-02  0.8502320E-01
         -2   -1    0    0    0  501 -0.00000000000E+00  0.00000000000E+00  0.13938651278E+04  0.13938651278E+04  0.00000000000E+00 0. -1.
          2   -1    0    0  501    0  0.00000000000E+00 -0.00000000000E+00 -0.89923569096E+03  0.89923569096E+03  0.00000000000E+00 0.  1.
         23    2    1    2    0    0  0.76660400139E+03 -0.58847204822E+03 -0.32777551414E+03  0.10241126589E+04  0.85958733970E+02 0.  0.
         13    1    3    3    0    0  0.38864850094E+03 -0.33378117950E+03 -0.20763007149E+03  0.55278185540E+03  0.00000000000E+00 0. -1.
        -13    1    3    3    0    0  0.37795550045E+03 -0.25469086872E+03 -0.12014544265E+03  0.47133080349E+03  0.00000000000E+00 0.  1.
         22    1    1    2    0    0 -0.76660400139E+03  0.58847204822E+03  0.82240495097E+03  0.12689881599E+04  0.00000000000E+00 0. -1.
<mgrwt>
<rscale>  0 0.22391188E+04</rscale>
<asrwt>0</asrwt>
<pdfrwt beam="1">  1        2 0.13834395E+00 0.22391188E+04</pdfrwt>
<pdfrwt beam="2">  1       -2 0.21444079E+00 0.22391188E+04</pdfrwt>
<totfact> 0.28672040E+00</totfact>
</mgrwt>
</event>
<event>
 6    1  0.1780144E-005  0.1126934E+04  0.7818608E-02  0.9179330E-01
          1   -1    0    0  501    0  0.00000000000E+00  0.00000000000E+00  0.14177668900E+04  0.14177668900E+04  0.00000000000E+00 0.  1.
         -1   -1    0    0    0  501 -0.00000000000E+00 -0.00000000000E+00 -0.22394033947E+03  0.22394033947E+03  0.00000000000E+00 0. -1.
         23    2    1    2    0    0  0.95280338906E+02 -0.55059829045E+03  0.55517581438E+03  0.79311334356E+03  0.92583856220E+02 0.  0.
         13    1    3    3    0    0  0.84764752199E+02 -0.38867694708E+03  0.33799629662E+03  0.52201180919E+03  0.00000000000E+00 0. -1.
        -13    1    3    3    0    0  0.10515586707E+02 -0.16192134337E+03  0.21717951776E+03  0.27110153437E+03  0.00000000000E+00 0.  1.
         22    1    1    2    0    0 -0.95280338906E+02  0.55059829045E+03  0.63865073615E+03  0.84859388592E+03  0.00000000000E+00 0. -1.
<mgrwt>
<rscale>  0 0.11269342E+04</rscale>
<asrwt>0</asrwt>
<pdfrwt beam="1">  1        1 0.21811798E+00 0.11269342E+04</pdfrwt>
<pdfrwt beam="2">  1       -1 0.34452361E-01 0.11269342E+04</pdfrwt>
<totfact> 0.59249073E+01</totfact>
</mgrwt>
</event>
<event>
 6    1  0.1780144E-005  0.1238012E+04  0.7818608E-02  0.9080220E-01
          2   -1    0    0  501    0  0.00000000000E+00  0.00000000000E+00  0.27431920313E+04  0.27431920313E+04  0.00000000000E+00 0. -1.
         -2   -1    0    0    0  501 -0.00000000000E+00 -0.00000000000E+00 -0.13967973284E+03  0.13967973284E+03  0.00000000000E+00 0.  1.
         23    2    1    2    0    0  0.44556239689E+03 -0.35886040770E+03  0.18384328171E+04  0.19275428917E+04  0.90993046406E+02 0.  0.
         11    1    3    3    0    0  0.36493983451E+03 -0.26152760655E+03  0.13344402459E+04  0.14079447935E+04  0.00000000000E+00 0.  1.
        -11    1    3    3    0    0  0.80622562378E+02 -0.97332801149E+02  0.50399257127E+03  0.51959809819E+03  0.00000000000E+00 0. -1.
         22    1    1    2    0    0 -0.44556239689E+03  0.35886040770E+03  0.76507948130E+03  0.95532887240E+03  0.00000000000E+00 0.  1.
<mgrwt>
<rscale>  0 0.12380118E+04</rscale>
<asrwt>0</asrwt>
<pdfrwt beam="1">  1        2 0.42202950E+00 0.12380118E+04</pdfrwt>
<pdfrwt beam="2">  1       -2 0.21489192E-01 0.12380118E+04</pdfrwt>
<totfact> 0.46785181E+01</totfact>
</mgrwt>
</event>
<event>
 6    1  0.1780144E-005  0.2115920E+04  0.7818608E-02  0.8554263E-01
          1   -1    0    0  501    0  0.00000000000E+00  0.00000000000E+00  0.37732611681E+03  0.37732611681E+03  0.00000000000E+00 0. -1.
         -1   -1    0    0    0  501 -0.00000000000E+00 -0.00000000000E+00 -0.29663453543E+04  0.29663453543E+04  0.00000000000E+00 0.  1.
         23    2    1    2    0    0 -0.37044786847E+03 -0.27194015372E+03 -0.27993495326E+04  0.28382786501E+04  0.91020982928E+02 0.  0.
         11    1    3    3    0    0 -0.26240043437E+03 -0.14370771792E+03 -0.16781795988E+04  0.17046385722E+04  0.00000000000E+00 0. -1.
        -11    1    3    3    0    0 -0.10804743410E+03 -0.12823243580E+03 -0.11211699339E+04  0.11336400779E+04  0.00000000000E+00 0.  1.
         22    1    1    2    0    0  0.37044786847E+03  0.27194015372E+03  0.21033029515E+03  0.50539282100E+03  0.00000000000E+00 0. -1.
<mgrwt>
<rscale>  0 0.21159202E+04</rscale>
<asrwt>0</asrwt>
<pdfrwt beam="1">  1        1 0.58050172E-01 0.21159202E+04</pdfrwt>
<pdfrwt beam="2">  1       -1 0.45636083E+00 0.21159202E+04</pdfrwt>
<totfact> 0.17417266E-01</totfact>
</mgrwt>
</event>
<event>
 6    1  0.1780144E-005  0.6688419E+04  0.7818608E-02  0.7610451E-01
          2   -1    0    0  501    0  0.00000000000E+00  0.00000000000E+00  0.24089291584E+04  0.24089291584E+04  0.00000000000E+00 0. -1.
         -2   -1    0    0    0  501 -0.00000000000E+00 -0.00000000000E+00 -0.46426173480E+04  0.46426173480E+04  0.00000000000E+00 0.  1.
         23    2    1    2    0    0 -0.12702764534E+04 -0.46960602380E+03 -0.43400633981E+04  0.45473602904E+04  0.90571662474E+02 0.  0.
         13    1    3    3    0    0 -0.23040578057E+03 -0.10928666086E+03 -0.91131184853E+03  0.94631901769E+03  0.00000000000E+00 0. -1.
        -13    1    3    3    0    0 -0.10398706728E+04 -0.36031936294E+03 -0.34287515495E+04  0.36010412727E+04  0.00000000000E+00 0.  1.
         22    1    1    2    0    0  0.12702764534E+04  0.46960602380E+03  0.21063752084E+04  0.25041862160E+04  0.00000000000E+00 0. -1.
<mgrwt>
<rscale>  0 0.66884187E+04</rscale>
<asrwt>0</asrwt>
<pdfrwt beam="1">  1        2 0.37060449E+00 0.66884187E+04</pdfrwt>
<pdfrwt beam="2">  1       -2 0.71424881E+00 0.66884187E+04</pdfrwt>
<totfact> 0.51704777E-04</totfact>
</mgrwt>
</event>
<event>
 6    1  0.1780144E-005  0.2585764E+04  0.7818608E-02  0.8373053E-01
         -1   -1    0    0    0  501 -0.00000000000E+00  0.00000000000E+00  0.12363520010E+04  0.12363520010E+04  0.00000000000E+00 0.  1.
          1   -1    0    0  501    0  0.00000000000E+00 -0.00000000000E+00 -0.13519972326E+04  0.13519972326E+04  0.00000000000E+00 0. -1.
         23    2    1    2    0    0  0.10693077968E+03 -0.12457514115E+04 -0.37992454032E+03  0.13103921435E+04  0.97232414235E+02 0.  0.
         11    1    3    3    0    0 -0.77524707221E+01 -0.45649545855E+03 -0.13927144949E+03  0.47733085079E+03  0.00000000000E+00 0. -1.
        -11    1    3    3    0    0  0.11468325040E+03 -0.78925595300E+03 -0.24065309084E+03  0.83306129270E+03  0.00000000000E+00 0.  1.
         22    1    1    2    0    0 -0.10693077968E+03  0.12457514115E+04  0.26427930874E+03  0.12779570901E+04  0.00000000000E+00 0.  1.
<mgrwt>
<rscale>  0 0.25857645E+04</rscale>
<asrwt>0</asrwt>
<pdfrwt beam="1">  1        1 0.20799957E+00 0.25857645E+04</pdfrwt>
<pdfrwt beam="2">  1       -1 0.19020800E+00 0.25857645E+04</pdfrwt>
<totfact> 0.12899970E+00</totfact>
</mgrwt>
</event>
<event>
 6    1  0.1780144E-005  0.5012137E+03  0.7818608E-02  0.1013463E+00
         -2   -1    0    0    0  501 -0.00000000000E+00  0.00000000000E+00  0.49931914605E+02  0.49931914605E+02  0.00000000000E+00 0.  1.
          2   -1    0    0  501    0  0.00000000000E+00 -0.00000000000E+00 -0.12577886243E+04  0.12577886243E+04  0.00000000000E+00 0. -1.
         23    2    1    2    0    0 -0.17850193448E+03 -0.12881312527E+03 -0.35993912000E+03  0.43169542467E+03  0.91372904743E+02 0.  0.
         13    1    3    3    0    0 -0.93840756631E+01 -0.46157172331E+02 -0.10224927107E+03  0.11257645788E+03  0.00000000000E+00 0.  1.
        -13    1    3    3    0    0 -0.16911785882E+03 -0.82655952942E+02 -0.25768984893E+03  0.31911896680E+03  0.00000000000E+00 0. -1.
         22    1    1    2    0    0  0.17850193448E+03  0.12881312527E+03 -0.84791758973E+03  0.87602511427E+03  0.00000000000E+00 0. -1.
<mgrwt>
<rscale>  0 0.50121370E+03</rscale>
<asrwt>0</asrwt>
<pdfrwt beam="1">  1        2 0.19350593E+00 0.50121370E+03</pdfrwt>
<pdfrwt beam="2">  1       -2 0.76818335E-02 0.50121370E+03</pdfrwt>
<totfact> 0.18605029E+03</totfact>
</mgrwt>
</event>
<event>
 6    1  0.1780144E-005  0.1889367E+04  0.7818608E-02  0.8660167E-01
         -4   -1    0    0    0  501 -0.00000000000E+00  0.00000000000E+00  0.12923064825E+04  0.12923064825E+04  0.00000000000E+00 0.  1.
          4   -1    0    0  501    0  0.00000000000E+00 -0.00000000000E+00 -0.69056925687E+03  0.69056925687E+03  0.00000000000E+00 0. -1.
         23    2    1    2    0    0  0.48327149226E+03  0.53753335395E+03 -0.33318419008E+03  0.80110947847E+03  0.90946413477E+02 0.  0.
         13    1    3    3    0    0  0.12238126140E+03  0.11345082220E+03 -0.39219781892E+02  0.17142477502E+03  0.00000000000E+00 0. -1.
        -13    1    3    3    0    0  0.36089023086E+03  0.42408253175E+03 -0.29396440819E+03  0.62968470344E+03  0.00000000000E+00 0.  1.
         22    1    1    2    0    0 -0.48327149226E+03 -0.53753335395E+03  0.93492141567E+03  0.11817662609E+04  0.00000000000E+00 0.  1.
<mgrwt>
<rscale>  0 0.18893672E+04</rscale>
<asrwt>0</asrwt>
<pdfrwt beam="1">  1        4 0.10624142E+00 0.18893672E+04</pdfrwt>
<pdfrwt beam="2">  1       -4 0.19881638E+00 0.18893672E+04</pdfrwt>
<totfact> 0.17929366E-01</totfact>
</mgrwt>
</event>
<event>
 6    1  0.1780144E-005  0.4482646E+03  0.7818608E-02  0.1028241E+00
         -2   -1    0    0    0  501 -0.00000000000E+00  0.00000000000E+00  0.83596576310E+02  0.83596576310E+02  0.00000000000E+00 0.  1.
          2   -1    0    0  501    0  0.00000000000E+00 -0.00000000000E+00 -0.60092511357E+03  0.60092511357E+03  0.00000000000E+00 0. -1.
         23    2    1    2    0    0  0.12798218752E+03  0.10951820121E+03 -0.66806257569E+02  0.20353936046E+03  0.92690444415E+02 0.  0.
         11    1    3    3    0    0  0.13049725536E+02  0.68338284570E+02 -0.32056799218E+02  0.76603230028E+02  0.00000000000E+00 0. -1.
        -11    1    3    3    0    0  0.11493246199E+03  0.41179916638E+02 -0.34749458351E+02  0.12693613043E+03  0.00000000000E+00 0.  1.
         22    1    1    2    0    0 -0.12798218752E+03 -0.10951820121E+03 -0.45052227969E+03  0.48098232942E+03  0.00000000000E+00 0. -1.
<mgrwt>
<rscale>  0 0.44826457E+03</rscale>
<asrwt>0</asrwt>
<pdfrwt beam="1">  1        2 0.92450018E-01 0.44826457E+03</pdfrwt>
<pdfrwt beam="2">  1       -2 0.12861012E-01 0.44826457E+03</pdfrwt>
<totfact> 0.22358123E+03</totfact>
</mgrwt>
</event>
<event>
 6    1  0.1780144E-005  0.1877085E+04  0.7818608E-02  0.8666348E-01
         -2   -1    0    0    0  501 -0.00000000000E+00  0.00000000000E+00  0.55562373204E+03  0.55562373204E+03  0.00000000000E+00 0.  1.
          2   -1    0    0  501    0  0.00000000000E+00 -0.00000000000E+00 -0.15853563998E+04  0.15853563998E+04  0.00000000000E+00 0. -1.
         23    2    1    2    0    0  0.39316430350E+03 -0.26537440698E+03 -0.14364217196E+04  0.15161619740E+04  0.10216667567E+03 0.  0.
         13    1    3    3    0    0  0.33602130580E+03 -0.24638232221E+03 -0.11418435205E+04  0.12154921604E+04  0.00000000000E+00 0.  1.
        -13    1    3    3    0    0  0.57142997706E+02 -0.18992084761E+02 -0.29457819907E+03  0.30066981365E+03  0.00000000000E+00 0. -1.
         22    1    1    2    0    0 -0.39316430350E+03  0.26537440698E+03  0.40668905183E+03  0.62481815779E+03  0.00000000000E+00 0.  1.
<mgrwt>
<rscale>  0 0.18770846E+04</rscale>
<asrwt>0</asrwt>
<pdfrwt beam="1">  1        2 0.24390099E+00 0.18770846E+04</pdfrwt>
<pdfrwt beam="2">  1       -2 0.85480574E-01 0.18770846E+04</pdfrwt>
<totfact> 0.12683913E+01</totfact>
</mgrwt>
</event>
<event>
 6    1  0.1780144E-005  0.2312626E+04  0.7818608E-02  0.8472959E-01
          1   -1    0    0  501    0  0.00000000000E+00  0.00000000000E+00  0.95677268066E+03  0.95677268066E+03  0.00000000000E+00 0. -1.
         -1   -1    0    0    0  501 -0.00000000000E+00 -0.00000000000E+00 -0.13974689947E+04  0.13974689947E+04  0.00000000000E+00 0.  1.
         23    2    1    2    0    0 -0.22201441183E+02  0.10637691237E+04  0.23569514517E+03  0.10934470614E+04  0.89311936328E+02 0.  0.
         13    1    3    3    0    0 -0.15890649830E+02  0.33077400579E+02  0.13173345992E+02  0.38989283473E+02  0.00000000000E+00 0.  1.
        -13    1    3    3    0    0 -0.63107913529E+01  0.10306917231E+04  0.22252179917E+03  0.10544577779E+04  0.00000000000E+00 0. -1.
         22    1    1    2    0    0  0.22201441183E+02 -0.10637691237E+04 -0.67639145920E+03  0.12607946140E+04  0.00000000000E+00 0.  1.
<mgrwt>
<rscale>  0 0.23126263E+04</rscale>
<asrwt>0</asrwt>
<pdfrwt beam="1">  1        1 0.14719580E+00 0.23126263E+04</pdfrwt>
<pdfrwt beam="2">  1       -1 0.21499523E+00 0.23126263E+04</pdfrwt>
<totfact> 0.17575744E+00</totfact>
</mgrwt>
</event>
<event>
 6    1  0.1780144E-005  0.4366888E+04  0.7818608E-02  0.7934364E-01
          2   -1    0    0  501    0  0.00000000000E+00  0.00000000000E+00  0.20064623477E+04  0.20064623477E+04  0.00000000000E+00 0. -1.
         -2   -1    0    0    0  501 -0.00000000000E+00 -0.00000000000E+00 -0.23760365296E+04  0.23760365296E+04  0.00000000000E+00 0.  1.
         23    2    1    2    0    0  0.14648059519E+04  0.57302955024E+03 -0.17032778142E+04  0.23202707810E+04  0.92096918290E+02 0.  0.
         11    1    3    3    0    0  0.30832618346E+03  0.84326290459E+02 -0.32370053231E+03  0.45492636029E+03  0.00000000000E+00 0. -1.
        -11    1    3    3    0    0  0.11564797684E+04  0.48870325978E+03 -0.13795772819E+04  0.18653444207E+04  0.00000000000E+00 0.  1.
         22    1    1    2    0    0 -0.14648059519E+04 -0.57302955024E+03  0.13337036323E+04  0.20622280963E+04  0.00000000000E+00 0. -1.
<mgrwt>
<rscale>  0 0.43668881E+04</rscale>
<asrwt>0</asrwt>
<pdfrwt beam="1">  1        2 0.30868651E+00 0.43668881E+04</pdfrwt>
<pdfrwt beam="2">  1       -2 0.36554408E+00 0.43668881E+04</pdfrwt>
<totfact> 0.62906880E-02</totfact>
</mgrwt>
</event>
<event>
 6    1  0.1780144E-005  0.2343384E+04  0.7818608E-02  0.8461009E-01
          2   -1    0    0  501    0  0.00000000000E+00  0.00000000000E+00  0.14576745286E+04  0.14576745286E+04  0.00000000000E+00 0. -1.
         -2   -1    0    0    0  501 -0.00000000000E+00 -0.00000000000E+00 -0.94181643107E+03  0.94181643107E+03  0.00000000000E+00 0.  1.
         23    2    1    2    0    0  0.53423040116E+03  0.10345337922E+04  0.37572380495E+03  0.12267591451E+04  0.90040733865E+02 0.  0.
         13    1    3    3    0    0  0.83413023596E+02  0.12971455684E+03  0.22147757852E+02  0.15580154666E+03  0.00000000000E+00 0. -1.
        -13    1    3    3    0    0  0.45081737756E+03  0.90481923539E+03  0.35357604710E+03  0.10709575985E+04  0.00000000000E+00 0.  1.
         22    1    1    2    0    0 -0.53423040116E+03 -0.10345337922E+04  0.14013429254E+03  0.11727318145E+04  0.00000000000E+00 0. -1.
<mgrwt>
<rscale>  0 0.23433837E+04</rscale>
<asrwt>0</asrwt>
<pdfrwt beam="1">  1        2 0.22425762E+00 0.23433837E+04</pdfrwt>
<pdfrwt beam="2">  1       -2 0.14489484E+00 0.23433837E+04</pdfrwt>
<totfact> 0.39793447E+00</totfact>
</mgrwt>
</event>
<event>
 6    1  0.1780144E-005  0.3246349E+04  0.7818608E-02  0.8176683E-01
          1   -1    0    0  501    0  0.00000000000E+00  0.00000000000E+00  0.33124229009E+04  0.33124229009E+04  0.00000000000E+00 0. -1.
         -1   -1    0    0    0  501 -0.00000000000E+00 -0.00000000000E+00 -0.79539821384E+03  0.79539821384E+03  0.00000000000E+00 0.  1.
         23    2    1    2    0    0 -0.39598942637E+03 -0.10162233403E+04 -0.25942664421E+03  0.11248361168E+04  0.91850980719E+02 0.  0.
         11    1    3    3    0    0 -0.12957807985E+03 -0.44804181875E+03 -0.12855631420E+03  0.48379611000E+03  0.00000000000E+00 0. -1.
        -11    1    3    3    0    0 -0.26641134653E+03 -0.56818152157E+03 -0.13087033001E+03  0.64104000677E+03  0.00000000000E+00 0.  1.
         22    1    1    2    0    0  0.39598942637E+03  0.10162233403E+04  0.27764513313E+04  0.29829849980E+04  0.00000000000E+00 0. -1.
<mgrwt>
<rscale>  0 0.32463489E+04</rscale>
<asrwt>0</asrwt>
<pdfrwt beam="1">  1        1 0.50960352E+00 0.32463489E+04</pdfrwt>
<pdfrwt beam="2">  1       -1 0.12236896E+00 0.32463489E+04</pdfrwt>
<totfact> 0.17159482E-01</totfact>
</mgrwt>
</event>
<event>
 6    1  0.1780144E-005  0.2734983E+04  0.7818608E-02  0.8323743E-01
          1   -1    0    0  501    0  0.00000000000E+00  0.00000000000E+00  0.24928253501E+04  0.24928253501E+04  0.00000000000E+00 0. -1.
         -1   -1    0    0    0  501 -0.00000000000E+00 -0.00000000000E+00 -0.75016630745E+03  0.75016630745E+03  0.00000000000E+00 0.  1.
         23    2    1    2    0    0  0.67057725563E+02  0.13359333858E+04  0.54442341708E+03  0.14471677897E+04  0.93182641806E+02 0.  0.
         11    1    3    3    0    0  0.75761514462E+02  0.81166929904E+03  0.36257634057E+03  0.89219306252E+03  0.00000000000E+00 0. -1.
        -11    1    3    3    0    0 -0.87037888998E+01  0.52426408676E+03  0.18184707651E+03  0.55497472721E+03  0.00000000000E+00 0.  1.
         22    1    1    2    0    0 -0.67057725563E+02 -0.13359333858E+04  0.11982356256E+04  0.17958238678E+04  0.00000000000E+00 0.  1.
<mgrwt>
<rscale>  0 0.27349834E+04</rscale>
<asrwt>0</asrwt>
<pdfrwt beam="1">  1        1 0.38351159E+00 0.27349834E+04</pdfrwt>
<pdfrwt beam="2">  1       -1 0.11541020E+00 0.27349834E+04</pdfrwt>
<totfact> 0.81152677E-01</totfact>
</mgrwt>
</event>
<event>
 6    1  0.1780144E-005  0.9155612E+03  0.7818608E-02  0.9406335E-01
         -2   -1    0    0    0  501 -0.00000000000E+00  0.00000000000E+00  0.11209333903E+03  0.11209333903E+03  0.00000000000E+00 0.  1.
          2   -1    0    0  501    0  0.00000000000E+00 -0.00000000000E+00 -0.18695410362E+04  0.18695410362E+04  0.00000000000E+00 0. -1.
         23    2    1    2    0    0  0.39380544328E+03  0.17654454610E+03 -0.11892232516E+04  0.12681011073E+04  0.87050400697E+02 0.  0.
         13    1    3    3    0    0  0.12147071342E+03  0.99771387977E+02 -0.43886515350E+03  0.46616744527E+03  0.00000000000E+00 0. -1.
        -13    1    3    3    0    0  0.27233472986E+03  0.76773158121E+02 -0.75035809812E+03  0.80193366204E+03  0.00000000000E+00 0.  1.
         22    1    1    2    0    0 -0.39380544328E+03 -0.17654454610E+03 -0.56822444560E+03  0.71353326796E+03  0.00000000000E+00 0.  1.
<mgrwt>
<rscale>  0 0.91556124E+03</rscale>
<asrwt>0</asrwt>
<pdfrwt beam="1">  1        2 0.28762170E+00 0.91556124E+03</pdfrwt>
<pdfrwt beam="2">  1       -2 0.17245129E-01 0.91556124E+03</pdfrwt>
<totfact> 0.21978074E+02</totfact>
</mgrwt>
</event>
<event>
 6    1  0.1780144E-005  0.2079025E+04  0.7818608E-02  0.8570540E-01
          2   -1    0    0  501    0  0.00000000000E+00  0.00000000000E+00  0.99230813011E+03  0.99230813011E+03  0.00000000000E+00 0. -1.
         -2   -1    0    0    0  501 -0.00000000000E+00 -0.00000000000E+00 -0.10889624278E+04  0.10889624278E+04  0.00000000000E+00 0.  1.
         23    2    1    2    0    0  0.26247262149E+03  0.65555486183E+03  0.71254608728E+03  0.10072829803E+04  0.90846144218E+02 0.  0.
         11    1    3    3    0    0  0.85411981870E+02  0.21951881781E+03  0.30017662734E+03  0.38156221723E+03  0.00000000000E+00 0.  1.
        -11    1    3    3    0    0  0.17706063962E+03  0.43603604402E+03  0.41236945994E+03  0.62572076302E+03  0.00000000000E+00 0. -1.
         22    1    1    2    0    0 -0.26247262149E+03 -0.65555486183E+03 -0.80920038497E+03  0.10739875776E+04  0.00000000000E+00 0.  1.
<mgrwt>
<rscale>  0 0.20790250E+04</rscale>
<asrwt>0</asrwt>
<pdfrwt beam="1">  1        2 0.15266279E+00 0.20790250E+04</pdfrwt>
<pdfrwt beam="2">  1       -2 0.16753268E+00 0.20790250E+04</pdfrwt>
<totfact> 0.52196245E+00</totfact>
</mgrwt>
</event>
<event>
 6    1  0.1780144E-005  0.2422332E+04  0.7818608E-02  0.8431190E-01
          1   -1    0    0  501    0  0.00000000000E+00  0.00000000000E+00  0.15530056126E+04  0.15530056126E+04  0.00000000000E+00 0. -1.
         -1   -1    0    0    0  501 -0.00000000000E+00 -0.00000000000E+00 -0.94457033509E+03  0.94457033509E+03  0.00000000000E+00 0.  1.
         23    2    1    2    0    0  0.49598161600E+03 -0.10178636097E+04 -0.13363426070E+03  0.11437992708E+04  0.91512649296E+02 0.  0.
         11    1    3    3    0    0  0.77475383400E+02 -0.15797865518E+03 -0.54542366137E+02  0.18421335518E+03  0.00000000000E+00 0. -1.
        -11    1    3    3    0    0  0.41850623260E+03 -0.85988495450E+03 -0.79091894564E+02  0.95958591564E+03  0.00000000000E+00 0.  1.
         22    1    1    2    0    0 -0.49598161600E+03  0.10178636097E+04  0.74206953823E+03  0.13537766769E+04  0.00000000000E+00 0. -1.
<mgrwt>
<rscale>  0 0.24223320E+04</rscale>
<asrwt>0</asrwt>
<pdfrwt beam="1">  1        1 0.23892394E+00 0.24223320E+04</pdfrwt>
<pdfrwt beam="2">  1       -1 0.14531851E+00 0.24223320E+04</pdfrwt>
<totfact> 0.20425153E+00</totfact>
</mgrwt>
</event>
<event>
 6    1  0.1780144E-005  0.1554228E+04  0.7818608E-02  0.8849172E-01
          2   -1    0    0  501    0  0.00000000000E+00  0.00000000000E+00  0.15342196066E+04  0.15342196066E+04  0.00000000000E+00 0. -1.
         -2   -1    0    0    0  501 -0.00000000000E+00 -0.00000000000E+00 -0.39362424568E+03  0.39362424568E+03  0.00000000000E+00 0.  1.
         23    2    1    2    0    0  0.71889114868E+03  0.31920412012E+02  0.92751971562E+03  0.11773609231E+04  0.89791558971E+02 0.  0.
         11    1    3    3    0    0  0.46682737244E+03 -0.29000001148E+01  0.54065730889E+03  0.71431542844E+03  0.00000000000E+00 0. -1.
        -11    1    3    3    0    0  0.25206377624E+03  0.34820412127E+02  0.38686240673E+03  0.46304549467E+03  0.00000000000E+00 0.  1.
         22    1    1    2    0    0 -0.71889114868E+03 -0.31920412012E+02  0.21307564530E+03  0.75048292917E+03  0.00000000000E+00 0.  1.
<mgrwt>
<rscale>  0 0.15542278E+04</rscale>
<asrwt>0</asrwt>
<pdfrwt beam="1">  1        2 0.23603378E+00 0.15542278E+04</pdfrwt>
<pdfrwt beam="2">  1       -2 0.60557577E-01 0.15542278E+04</pdfrwt>
<totfact> 0.29668896E+01</totfact>
</mgrwt>
</event>
<event>
 6    1  0.1780144E-005  0.1010113E+04  0.7818608E-02  0.9297522E-01
          2   -1    0    0  501    0  0.00000000000E+00  0.00000000000E+00  0.11662143114E+04  0.11662143114E+04  0.00000000000E+00 0.  1.
         -2   -1    0    0    0  501 -0.00000000000E+00 -0.00000000000E+00 -0.21872641175E+03  0.21872641175E+03  0.00000000000E+00 0. -1.
         23    2    1    2    0    0 -0.18033801080E+03  0.39229918575E+03  0.12978584914E+03  0.46024775103E+03  0.92537432502E+02 0.  0.
         11    1    3    3    0    0 -0.13753764664E+02  0.11936981407E+03  0.53447745914E+02  0.13151038019E+03  0.00000000000E+00 0.  1.
        -11    1    3    3    0    0 -0.16658424614E+03  0.27292937168E+03  0.76338103227E+02  0.32873737085E+03  0.00000000000E+00 0. -1.
         22    1    1    2    0    0  0.18033801080E+03 -0.39229918575E+03  0.81770205056E+03  0.92469297216E+03  0.00000000000E+00 0. -1.
<mgrwt>
<rscale>  0 0.10101126E+04</rscale>
<asrwt>0</asrwt>
<pdfrwt beam="1">  1        2 0.17941758E+00 0.10101126E+04</pdfrwt>
<pdfrwt beam="2">  1       -2 0.33650218E-01 0.10101126E+04</pdfrwt>
<totfact> 0.16334469E+02</totfact>
</mgrwt>
</event>
<event>
 6    1  0.1780144E-005  0.4052660E+04  0.7818608E-02  0.7994007E-01
          2   -1    0    0  501    0  0.00000000000E+00  0.00000000000E+00  0.16612922463E+04  0.16612922463E+04  0.00000000000E+00 0. -1.
         -2   -1    0    0    0  501 -0.00000000000E+00 -0.00000000000E+00 -0.24715778316E+04  0.24715778316E+04  0.00000000000E+00 0.  1.
         23    2    1    2    0    0  0.10233636699E+04 -0.47559790700E+03 -0.21204163999E+04  0.24037346519E+04  0.91148218117E+02 0.  0.
         13    1    3    3    0    0  0.68815364201E+03 -0.34871776427E+03 -0.13754072443E+04  0.15769922643E+04  0.00000000000E+00 0.  1.
        -13    1    3    3    0    0  0.33521002794E+03 -0.12688014273E+03 -0.74500915567E+03  0.82674238762E+03  0.00000000000E+00 0. -1.
         22    1    1    2    0    0 -0.10233636699E+04  0.47559790700E+03  0.13101308146E+04  0.17291354260E+04  0.00000000000E+00 0. -1.
<mgrwt>
<rscale>  0 0.40526599E+04</rscale>
<asrwt>0</asrwt>
<pdfrwt beam="1">  1        2 0.25558342E+00 0.40526599E+04</pdfrwt>
<pdfrwt beam="2">  1       -2 0.38024274E+00 0.40526599E+04</pdfrwt>
<totfact> 0.80735453E-02</totfact>
</mgrwt>
</event>
<event>
 6    1  0.1780144E-005  0.2638378E+04  0.7818608E-02  0.8355281E-01
          2   -1    0    0  501    0  0.00000000000E+00  0.00000000000E+00  0.29837824472E+04  0.29837824472E+04  0.00000000000E+00 0. -1.
         -2   -1    0    0    0  501 -0.00000000000E+00 -0.00000000000E+00 -0.58323950549E+03  0.58323950549E+03  0.00000000000E+00 0.  1.
         23    2    1    2    0    0 -0.69007086277E+03  0.47521496403E+03 -0.17273700380E+03  0.86077053503E+03  0.95188149515E+02 0.  0.
         13    1    3    3    0    0 -0.11651962565E+03  0.39937236034E+02 -0.29078880735E+02  0.12655981703E+03  0.00000000000E+00 0.  1.
        -13    1    3    3    0    0 -0.57355123713E+03  0.43527772800E+03 -0.14365812306E+03  0.73421071800E+03  0.00000000000E+00 0. -1.
         22    1    1    2    0    0  0.69007086277E+03 -0.47521496403E+03  0.25732799455E+04  0.27062514177E+04  0.00000000000E+00 0. -1.
<mgrwt>
<rscale>  0 0.26383781E+04</rscale>
<asrwt>0</asrwt>
<pdfrwt beam="1">  1        2 0.45904344E+00 0.26383781E+04</pdfrwt>
<pdfrwt beam="2">  1       -2 0.89729157E-01 0.26383781E+04</pdfrwt>
<totfact> 0.16721977E+00</totfact>
</mgrwt>
</event>
<event>
 6    1  0.1780144E-005  0.2907682E+04  0.7818608E-02  0.8270596E-01
          1   -1    0    0  501    0  0.00000000000E+00  0.00000000000E+00  0.10977898005E+04  0.10977898005E+04  0.00000000000E+00 0. -1.
         -1   -1    0    0    0  501 -0.00000000000E+00 -0.00000000000E+00 -0.19253716108E+04  0.19253716108E+04  0.00000000000E+00 0.  1.
         23    2    1    2    0    0  0.13647657062E+04 -0.38279522333E+03 -0.84640009131E+02  0.14228239044E+04  0.90256944320E+02 0.  0.
         11    1    3    3    0    0  0.73301442482E+03 -0.15897346928E+03 -0.48544049068E+02  0.75162439798E+03  0.00000000000E+00 0.  1.
        -11    1    3    3    0    0  0.63175128139E+03 -0.22382175405E+03 -0.36095960063E+02  0.67119950645E+03  0.00000000000E+00 0. -1.
         22    1    1    2    0    0 -0.13647657062E+04  0.38279522333E+03 -0.74294180126E+03  0.16003375069E+04  0.00000000000E+00 0.  1.
<mgrwt>
<rscale>  0 0.29076818E+04</rscale>
<asrwt>0</asrwt>
<pdfrwt beam="1">  1        1 0.16889074E+00 0.29076818E+04</pdfrwt>
<pdfrwt beam="2">  1       -1 0.29621101E+00 0.29076818E+04</pdfrwt>
<totfact> 0.38149909E-01</totfact>
</mgrwt>
</event>
<event>
 6    1  0.1780144E-005  0.3809555E+04  0.7818608E-02  0.8044108E-01
         -2   -1    0    0    0  501 -0.00000000000E+00  0.00000000000E+00  0.12625147868E+04  0.12625147868E+04  0.00000000000E+00 0.  1.
          2   -1    0    0  501    0  0.00000000000E+00 -0.00000000000E+00 -0.28737701097E+04  0.28737701097E+04  0.00000000000E+00 0. -1.
         23    2    1    2    0    0 -0.85441057180E+03 -0.13953575186E+02 -0.26531029694E+04  0.27888211137E+04  0.91409576925E+02 0.  0.
         13    1    3    3    0    0 -0.15831399593E+03 -0.12697515569E+02 -0.39057219278E+03  0.42162920437E+03  0.00000000000E+00 0.  1.
        -13    1    3    3    0    0 -0.69609657587E+03 -0.12560596173E+01 -0.22625307766E+04  0.23671919093E+04  0.00000000000E+00 0. -1.
         22    1    1    2    0    0  0.85441057180E+03  0.13953575186E+02  0.10418476464E+04  0.13474637828E+04  0.00000000000E+00 0.  1.
<mgrwt>
<rscale>  0 0.38095550E+04</rscale>
<asrwt>0</asrwt>
<pdfrwt beam="1">  1        2 0.44211848E+00 0.38095550E+04</pdfrwt>
<pdfrwt beam="2">  1       -2 0.19423304E+00 0.38095550E+04</pdfrwt>
<totfact> 0.24247740E-01</totfact>
</mgrwt>
</event>
<event>
 6    1  0.1780144E-005  0.1371113E+04  0.7818608E-02  0.8974998E-01
         -1   -1    0    0    0  501 -0.00000000000E+00  0.00000000000E+00  0.31757040208E+03  0.31757040208E+03  0.00000000000E+00 0.  1.
          1   -1    0    0  501    0  0.00000000000E+00 -0.00000000000E+00 -0.14799479914E+04  0.14799479914E+04  0.00000000000E+00 0. -1.
         23    2    1    2    0    0 -0.42899979379E+03  0.21949492112E+03  0.50498057905E+02  0.49241832869E+03  0.87789026162E+02 0.  0.
         11    1    3    3    0    0 -0.28027360973E+03  0.17981737098E+03  0.59309918891E+02  0.33823845094E+03  0.00000000000E+00 0. -1.
        -11    1    3    3    0    0 -0.14872618406E+03  0.39677550141E+02 -0.88118609865E+01  0.15417987775E+03  0.00000000000E+00 0.  1.
         22    1    1    2    0    0  0.42899979379E+03 -0.21949492112E+03 -0.12128756472E+04  0.13051000647E+04  0.00000000000E+00 0. -1.
<mgrwt>
<rscale>  0 0.13711129E+04</rscale>
<asrwt>0</asrwt>
<pdfrwt beam="1">  1        1 0.22768431E+00 0.13711129E+04</pdfrwt>
<pdfrwt beam="2">  1       -1 0.48856984E-01 0.13711129E+04</pdfrwt>
<totfact> 0.27685426E+01</totfact>
</mgrwt>
</event>
<event>
 6    1  0.2240006E-005  0.3792717E+04  0.7818608E-02  0.8047720E-01
          2   -1    0    0  501    0  0.00000000000E+00  0.00000000000E+00  0.18261989293E+04  0.18261989293E+04  0.00000000000E+00 0. -1.
         -2   -1    0    0    0  501 -0.00000000000E+00 -0.00000000000E+00 -0.19692134905E+04  0.19692134905E+04  0.00000000000E+00 0.  1.
         23    2    1    2    0    0 -0.13573806165E+03  0.11423777883E+04 -0.15787906399E+04  0.19556013478E+04  0.91350501391E+02 0.  0.
         13    1    3    3    0    0 -0.36478810388E+02  0.48955737228E+03 -0.74109530799E+03  0.88894284399E+03  0.00000000000E+00 0.  1.
        -13    1    3    3    0    0 -0.99259251262E+02  0.65282041603E+03 -0.83769533192E+03  0.10666585038E+04  0.00000000000E+00 0. -1.
         22    1    1    2    0    0  0.13573806165E+03 -0.11423777883E+04  0.14357760787E+04  0.18398110720E+04  0.00000000000E+00 0. -1.
<mgrwt>
<rscale>  0 0.37927170E+04</rscale>
<asrwt>0</asrwt>
<pdfrwt beam="1">  1        2 0.28095368E+00 0.37927170E+04</pdfrwt>
<pdfrwt beam="2">  1       -2 0.30295592E+00 0.37927170E+04</pdfrwt>
<totfact> 0.20408723E-01</totfact>
</mgrwt>
</event>
<event>
 6    1  0.1780144E-005  0.2346055E+04  0.7818608E-02  0.8459980E-01
          2   -1    0    0  501    0  0.00000000000E+00  0.00000000000E+00  0.66690711055E+03  0.66690711055E+03  0.00000000000E+00 0. -1.
         -2   -1    0    0    0  501 -0.00000000000E+00 -0.00000000000E+00 -0.20632463193E+04  0.20632463193E+04  0.00000000000E+00 0.  1.
         23    2    1    2    0    0 -0.10462889569E+04 -0.34418846581E+02 -0.13104821785E+04  0.16797836531E+04  0.91675202538E+02 0.  0.
         11    1    3    3    0    0 -0.36526008130E+03 -0.51373750802E+02 -0.49122025082E+03  0.61428944649E+03  0.00000000000E+00 0. -1.
        -11    1    3    3    0    0 -0.68102887562E+03  0.16954904221E+02 -0.81926192766E+03  0.10654942066E+04  0.00000000000E+00 0.  1.
         22    1    1    2    0    0  0.10462889569E+04  0.34418846581E+02 -0.85857030319E+02  0.10503697768E+04  0.00000000000E+00 0.  1.
<mgrwt>
<rscale>  0 0.23460551E+04</rscale>
<asrwt>0</asrwt>
<pdfrwt beam="1">  1        2 0.10260110E+00 0.23460551E+04</pdfrwt>
<pdfrwt beam="2">  1       -2 0.31742251E+00 0.23460551E+04</pdfrwt>
<totfact> 0.97750881E-01</totfact>
</mgrwt>
</event>
<event>
 6    1  0.1780144E-005  0.5400920E+04  0.7818608E-02  0.7769472E-01
         -2   -1    0    0    0  501 -0.00000000000E+00  0.00000000000E+00  0.19350136116E+04  0.19350136116E+04  0.00000000000E+00 0.  1.
          2   -1    0    0  501    0  0.00000000000E+00 -0.00000000000E+00 -0.37686996611E+04  0.37686996611E+04  0.00000000000E+00 0. -1.
         23    2    1    2    0    0  0.10722558792E+04 -0.14117749859E+03 -0.35293217204E+04  0.36925334984E+04  0.95016179265E+02 0.  0.
         11    1    3    3    0    0  0.59039161809E+03 -0.98280613197E+02 -0.20955559574E+04  0.21793522231E+04  0.00000000000E+00 0.  1.
        -11    1    3    3    0    0  0.48186426107E+03 -0.42896885390E+02 -0.14337657629E+04  0.15131812753E+04  0.00000000000E+00 0. -1.
         22    1    1    2    0    0 -0.10722558792E+04  0.14117749859E+03  0.16956356709E+04  0.20111797744E+04  0.00000000000E+00 0.  1.
<mgrwt>
<rscale>  0 0.54009203E+04</rscale>
<asrwt>0</asrwt>
<pdfrwt beam="1">  1        2 0.57979994E+00 0.54009203E+04</pdfrwt>
<pdfrwt beam="2">  1       -2 0.29769441E+00 0.54009203E+04</pdfrwt>
<totfact> 0.11970016E-02</totfact>
</mgrwt>
</event>
<event>
 6    1  0.1780144E-005  0.1081533E+04  0.7818608E-02  0.9223380E-01
         -2   -1    0    0    0  501 -0.00000000000E+00  0.00000000000E+00  0.15951882364E+03  0.15951882364E+03  0.00000000000E+00 0.  1.
          2   -1    0    0  501    0  0.00000000000E+00 -0.00000000000E+00 -0.18331922678E+04  0.18331922678E+04  0.00000000000E+00 0. -1.
         23    2    1    2    0    0 -0.19130926606E+03  0.34141451367E+03 -0.16726900683E+03  0.43629937398E+03  0.95995404368E+02 0.  0.
         13    1    3    3    0    0 -0.78566938230E+02  0.70227603571E+02 -0.71676438518E+02  0.12744485837E+03  0.00000000000E+00 0. -1.
        -13    1    3    3    0    0 -0.11274232783E+03  0.27118691010E+03 -0.95592568314E+02  0.30885451561E+03  0.00000000000E+00 0.  1.
         22    1    1    2    0    0  0.19130926606E+03 -0.34141451367E+03 -0.15064044373E+04  0.15564117175E+04  0.00000000000E+00 0. -1.
<mgrwt>
<rscale>  0 0.10815335E+04</rscale>
<asrwt>0</asrwt>
<pdfrwt beam="1">  1        2 0.28202957E+00 0.10815335E+04</pdfrwt>
<pdfrwt beam="2">  1       -2 0.24541359E-01 0.10815335E+04</pdfrwt>
<totfact> 0.12206429E+02</totfact>
</mgrwt>
</event>
<event>
 6    1  0.1780144E-005  0.2622148E+04  0.7818608E-02  0.8360717E-01
         -1   -1    0    0    0  501 -0.00000000000E+00  0.00000000000E+00  0.80865249612E+03  0.80865249612E+03  0.00000000000E+00 0.  1.
          1   -1    0    0  501    0  0.00000000000E+00 -0.00000000000E+00 -0.21256527402E+04  0.21256527402E+04  0.00000000000E+00 0. -1.
         23    2    1    2    0    0  0.29702437961E+03  0.10352494838E+04  0.17434836904E+03  0.10947167873E+04  0.89680069486E+02 0.  0.
         11    1    3    3    0    0  0.10575748656E+03  0.51242220482E+03  0.63333198722E+02  0.52704103826E+03  0.00000000000E+00 0. -1.
        -11    1    3    3    0    0  0.19126689306E+03  0.52282727898E+03  0.11101517032E+03  0.56767574906E+03  0.00000000000E+00 0.  1.
         22    1    1    2    0    0 -0.29702437961E+03 -0.10352494838E+04 -0.14913486131E+04  0.18395884490E+04  0.00000000000E+00 0.  1.
<mgrwt>
<rscale>  0 0.26221475E+04</rscale>
<asrwt>0</asrwt>
<pdfrwt beam="1">  1        1 0.32702349E+00 0.26221475E+04</pdfrwt>
<pdfrwt beam="2">  1       -1 0.12440808E+00 0.26221475E+04</pdfrwt>
<totfact> 0.12183533E+00</totfact>
</mgrwt>
</event>
<event>
 6    1  0.1780144E-005  0.1792589E+04  0.7818608E-02  0.8710250E-01
          4   -1    0    0  501    0  0.00000000000E+00  0.00000000000E+00  0.66570460708E+03  0.66570460708E+03  0.00000000000E+00 0. -1.
         -4   -1    0    0    0  501 -0.00000000000E+00 -0.00000000000E+00 -0.12067576257E+04  0.12067576257E+04  0.00000000000E+00 0.  1.
         23    2    1    2    0    0 -0.77513906754E+03  0.44157949322E+03 -0.20060213861E+03  0.91761155096E+03  0.77050097816E+02 0.  0.
         13    1    3    3    0    0 -0.18257561870E+03  0.79019530669E+02 -0.20712729727E+02  0.20001739910E+03  0.00000000000E+00 0.  1.
        -13    1    3    3    0    0 -0.59256344884E+03  0.36255996255E+03 -0.17988940888E+03  0.71759415186E+03  0.00000000000E+00 0. -1.
         22    1    1    2    0    0  0.77513906754E+03 -0.44157949322E+03 -0.34045088001E+03  0.95485068181E+03  0.00000000000E+00 0.  1.
<mgrwt>
<rscale>  0 0.17925893E+04</rscale>
<asrwt>0</asrwt>
<pdfrwt beam="1">  1        4 0.10241609E+00 0.17925893E+04</pdfrwt>
<pdfrwt beam="2">  1       -4 0.18565502E+00 0.17925893E+04</pdfrwt>
<totfact> 0.24213492E-01</totfact>
</mgrwt>
</event>
<event>
 6    1  0.1780144E-005  0.1674589E+04  0.7818608E-02  0.8775991E-01
          2   -1    0    0  501    0  0.00000000000E+00  0.00000000000E+00  0.28723818678E+04  0.28723818678E+04  0.00000000000E+00 0. -1.
         -2   -1    0    0    0  501 -0.00000000000E+00 -0.00000000000E+00 -0.24407003891E+03  0.24407003891E+03  0.00000000000E+00 0.  1.
         23    2    1    2    0    0  0.74792719103E+03 -0.30174342535E+03  0.17193376327E+04  0.19012653913E+04  0.90796559462E+02 0.  0.
         13    1    3    3    0    0  0.47868179952E+03 -0.15985826743E+03  0.99772911355E+03  0.11181029983E+04  0.00000000000E+00 0. -1.
        -13    1    3    3    0    0  0.26924539152E+03 -0.14188515791E+03  0.72160851917E+03  0.78316239301E+03  0.00000000000E+00 0.  1.
         22    1    1    2    0    0 -0.74792719103E+03  0.30174342535E+03  0.90897419616E+03  0.12151865154E+04  0.00000000000E+00 0. -1.
<mgrwt>
<rscale>  0 0.16745893E+04</rscale>
<asrwt>0</asrwt>
<pdfrwt beam="1">  1        2 0.44190488E+00 0.16745893E+04</pdfrwt>
<pdfrwt beam="2">  1       -2 0.37549239E-01 0.16745893E+04</pdfrwt>
<totfact> 0.13380284E+01</totfact>
</mgrwt>
</event>
<event>
 6    1  0.1780144E-005  0.1190975E+04  0.7818608E-02  0.9120793E-01
          1   -1    0    0  501    0  0.00000000000E+00  0.00000000000E+00  0.48027037490E+03  0.48027037490E+03  0.00000000000E+00 0. -1.
         -1   -1    0    0    0  501 -0.00000000000E+00 -0.00000000000E+00 -0.73834509905E+03  0.73834509905E+03  0.00000000000E+00 0.  1.
         23    2    1    2    0    0  0.35154322587E+03  0.14899346494E+03  0.33307837976E+03  0.51487995224E+03  0.91533960388E+02 0.  0.
         11    1    3    3    0    0  0.76998874051E+02  0.74920322491E+02  0.10665831993E+03  0.15138652033E+03  0.00000000000E+00 0. -1.
        -11    1    3    3    0    0  0.27454435182E+03  0.74073142450E+02  0.22642005983E+03  0.36349343191E+03  0.00000000000E+00 0.  1.
         22    1    1    2    0    0 -0.35154322587E+03 -0.14899346494E+03 -0.59115310391E+03  0.70373552171E+03  0.00000000000E+00 0.  1.
<mgrwt>
<rscale>  0 0.11909749E+04</rscale>
<asrwt>0</asrwt>
<pdfrwt beam="1">  1        1 0.73887750E-01 0.11909749E+04</pdfrwt>
<pdfrwt beam="2">  1       -1 0.11359155E+00 0.11909749E+04</pdfrwt>
<totfact> 0.32818754E+01</totfact>
</mgrwt>
</event>
<event>
 6    1  0.1780144E-005  0.2543885E+04  0.7818608E-02  0.8387516E-01
          2   -1    0    0  501    0  0.00000000000E+00  0.00000000000E+00  0.10020541937E+04  0.10020541937E+04  0.00000000000E+00 0. -1.
         -2   -1    0    0    0  501 -0.00000000000E+00 -0.00000000000E+00 -0.16145205843E+04  0.16145205843E+04  0.00000000000E+00 0.  1.
         23    2    1    2    0    0 -0.20289290623E+03 -0.71865284369E+03  0.75036803115E+03  0.10625654143E+04  0.91463853002E+02 0.  0.
         11    1    3    3    0    0 -0.89887095087E+02 -0.17914624948E+03  0.22035848615E+03  0.29787737576E+03  0.00000000000E+00 0.  1.
        -11    1    3    3    0    0 -0.11300581115E+03 -0.53950659421E+03  0.53000954500E+03  0.76468803857E+03  0.00000000000E+00 0. -1.
         22    1    1    2    0    0  0.20289290623E+03  0.71865284369E+03 -0.13628344218E+04  0.15540093637E+04  0.00000000000E+00 0.  1.
<mgrwt>
<rscale>  0 0.25438845E+04</rscale>
<asrwt>0</asrwt>
<pdfrwt beam="1">  1        2 0.15416218E+00 0.25438845E+04</pdfrwt>
<pdfrwt beam="2">  1       -2 0.24838778E+00 0.25438845E+04</pdfrwt>
<totfact> 0.14670729E+00</totfact>
</mgrwt>
</event>
<event>
 6    1  0.1780144E-005  0.3297704E+04  0.7818608E-02  0.8163480E-01
         -1   -1    0    0    0  501 -0.00000000000E+00  0.00000000000E+00  0.19778883152E+04  0.19778883152E+04  0.00000000000E+00 0.  1.
          1   -1    0    0  501    0  0.00000000000E+00 -0.00000000000E+00 -0.13745535148E+04  0.13745535148E+04  0.00000000000E+00 0. -1.
         23    2    1    2    0    0  0.52407599410E+03 -0.15616932701E+04  0.33457719262E+03  0.16833785689E+04  0.90994455467E+02 0.  0.
         11    1    3    3    0    0  0.32659747105E+03 -0.10999043479E+04  0.24425685680E+03  0.11730800888E+04  0.00000000000E+00 0.  1.
        -11    1    3    3    0    0  0.19747852305E+03 -0.46178892220E+03  0.90320335822E+02  0.51029848011E+03  0.00000000000E+00 0. -1.
         22    1    1    2    0    0 -0.52407599410E+03  0.15616932701E+04  0.26875760780E+03  0.16690632610E+04  0.00000000000E+00 0. -1.
<mgrwt>
<rscale>  0 0.32977043E+04</rscale>
<asrwt>0</asrwt>
<pdfrwt beam="1">  1        1 0.21146977E+00 0.32977043E+04</pdfrwt>
<pdfrwt beam="2">  1       -1 0.30429051E+00 0.32977043E+04</pdfrwt>
<totfact> 0.20574912E-01</totfact>
</mgrwt>
</event>
<event>
 6    1  0.1780144E-005  0.1737314E+04  0.7818608E-02  0.8740364E-01
         -1   -1    0    0    0  501 -0.00000000000E+00  0.00000000000E+00  0.43478174517E+03  0.43478174517E+03  0.00000000000E+00 0.  1.
          1   -1    0    0  501    0  0.00000000000E+00 -0.00000000000E+00 -0.17355032247E+04  0.17355032247E+04  0.00000000000E+00 0. -1.
         23    2    1    2    0    0  0.30576927052E+03  0.53635991399E+03 -0.14112350972E+04  0.15430768196E+04  0.91240162787E+02 0.  0.
         13    1    3    3    0    0  0.11218093927E+03  0.11806053174E+03 -0.39044071090E+03  0.42304467970E+03  0.00000000000E+00 0.  1.
        -13    1    3    3    0    0  0.19358833125E+03  0.41829938224E+03 -0.10207943863E+04  0.11200321399E+04  0.00000000000E+00 0. -1.
         22    1    1    2    0    0 -0.30576927052E+03 -0.53635991399E+03  0.11051361768E+03  0.62720815032E+03  0.00000000000E+00 0.  1.
<mgrwt>
<rscale>  0 0.17373142E+04</rscale>
<asrwt>0</asrwt>
<pdfrwt beam="1">  1        1 0.26700050E+00 0.17373142E+04</pdfrwt>
<pdfrwt beam="2">  1       -1 0.66889499E-01 0.17373142E+04</pdfrwt>
<totfact> 0.96816433E+00</totfact>
</mgrwt>
</event>
<event>
 6    1  0.1780144E-005  0.1680544E+04  0.7818608E-02  0.8772539E-01
          2   -1    0    0  501    0  0.00000000000E+00  0.00000000000E+00  0.13338206259E+04  0.13338206259E+04  0.00000000000E+00 0. -1.
         -2   -1    0    0    0  501 -0.00000000000E+00 -0.00000000000E+00 -0.52934935036E+03  0.52934935036E+03  0.00000000000E+00 0.  1.
         23    2    1    2    0    0  0.13522235006E+03  0.19861273722E+03  0.12931962666E+04  0.13185745116E+04  0.92466510275E+02 0.  0.
         11    1    3    3    0    0  0.76433153804E+02  0.59446231443E+02  0.34151006445E+03  0.35497183769E+03  0.00000000000E+00 0. -1.
        -11    1    3    3    0    0  0.58789196251E+02  0.13916650578E+03  0.95168620211E+03  0.96360267393E+03  0.00000000000E+00 0.  1.
         22    1    1    2    0    0 -0.13522235006E+03 -0.19861273722E+03 -0.48872499098E+03  0.54459546468E+03  0.00000000000E+00 0.  1.
<mgrwt>
<rscale>  0 0.16805441E+04</rscale>
<asrwt>0</asrwt>
<pdfrwt beam="1">  1        2 0.20520317E+00 0.16805441E+04</pdfrwt>
<pdfrwt beam="2">  1       -2 0.81438362E-01 0.16805441E+04</pdfrwt>
<totfact> 0.19993877E+01</totfact>
</mgrwt>
</event>
<event>
 6    1  0.1780144E-005  0.1326413E+04  0.7818608E-02  0.9008878E-01
          2   -1    0    0  501    0  0.00000000000E+00  0.00000000000E+00  0.10372307001E+04  0.10372307001E+04  0.00000000000E+00 0. -1.
         -2   -1    0    0    0  501 -0.00000000000E+00 -0.00000000000E+00 -0.42405489166E+03  0.42405489166E+03  0.00000000000E+00 0.  1.
         23    2    1    2    0    0 -0.56136506289E+03  0.26362588433E+03  0.59178064406E+02  0.62969504279E+03  0.91566712736E+02 0.  0.
         11    1    3    3    0    0 -0.31889768814E+03  0.13364065059E+03  0.76171205894E+02  0.35405876857E+03  0.00000000000E+00 0. -1.
        -11    1    3    3    0    0 -0.24246737475E+03  0.12998523374E+03 -0.16993141488E+02  0.27563627422E+03  0.00000000000E+00 0.  1.
         22    1    1    2    0    0  0.56136506289E+03 -0.26362588433E+03  0.55399774399E+03  0.83159054893E+03  0.00000000000E+00 0. -1.
<mgrwt>
<rscale>  0 0.13264128E+04</rscale>
<asrwt>0</asrwt>
<pdfrwt beam="1">  1        2 0.15957395E+00 0.13264128E+04</pdfrwt>
<pdfrwt beam="2">  1       -2 0.65239214E-01 0.13264128E+04</pdfrwt>
<totfact> 0.50543837E+01</totfact>
</mgrwt>
</event>
<event>
 6    1  0.1830776E-005  0.4611833E+04  0.7818608E-02  0.7891345E-01
         -2   -1    0    0    0  501 -0.00000000000E+00  0.00000000000E+00  0.23111096745E+04  0.23111096745E+04  0.00000000000E+00 0.  1.
          2   -1    0    0  501    0  0.00000000000E+00 -0.00000000000E+00 -0.23007354703E+04  0.23007354703E+04  0.00000000000E+00 0. -1.
         23    2    1    2    0    0  0.80119876680E+03  0.84243275254E+03 -0.19851707966E+04  0.23023403804E+04  0.90861041667E+02 0.  0.
         13    1    3    3    0    0  0.23431993677E+03  0.25476459303E+03 -0.51212335679E+03  0.61812714162E+03  0.00000000000E+00 0.  1.
        -13    1    3    3    0    0  0.56687883003E+03  0.58766815951E+03 -0.14730474398E+04  0.16842132388E+04  0.00000000000E+00 0. -1.
         22    1    1    2    0    0 -0.80119876680E+03 -0.84243275254E+03  0.19955450009E+04  0.23095047644E+04  0.00000000000E+00 0.  1.
<mgrwt>
<rscale>  0 0.46118335E+04</rscale>
<asrwt>0</asrwt>
<pdfrwt beam="1">  1        2 0.35395930E+00 0.46118335E+04</pdfrwt>
<pdfrwt beam="2">  1       -2 0.35555533E+00 0.46118335E+04</pdfrwt>
<totfact> 0.48805535E-02</totfact>
</mgrwt>
</event>
<event>
 6    1  0.1780144E-005  0.4266822E+04  0.7818608E-02  0.7952782E-01
         -2   -1    0    0    0  501 -0.00000000000E+00  0.00000000000E+00  0.22483066955E+04  0.22483066955E+04  0.00000000000E+00 0.  1.
          2   -1    0    0  501    0  0.00000000000E+00 -0.00000000000E+00 -0.20243870789E+04  0.20243870789E+04  0.00000000000E+00 0. -1.
         23    2    1    2    0    0 -0.50819869301E+03  0.42618779281E+03 -0.19173937535E+04  0.20310147397E+04  0.93381585327E+02 0.  0.
         13    1    3    3    0    0 -0.41904146095E+03  0.30038361087E+03 -0.14701167450E+04  0.15579054219E+04  0.00000000000E+00 0.  1.
        -13    1    3    3    0    0 -0.89157232058E+02  0.12580418194E+03 -0.44727700848E+03  0.47310931774E+03  0.00000000000E+00 0. -1.
         22    1    1    2    0    0  0.50819869301E+03 -0.42618779281E+03  0.21413133700E+04  0.22416790348E+04  0.00000000000E+00 0.  1.
<mgrwt>
<rscale>  0 0.42668222E+04</rscale>
<asrwt>0</asrwt>
<pdfrwt beam="1">  1        2 0.31144417E+00 0.42668222E+04</pdfrwt>
<pdfrwt beam="2">  1       -2 0.34589334E+00 0.42668222E+04</pdfrwt>
<totfact> 0.82551282E-02</totfact>
</mgrwt>
</event>
<event>
 6    1  0.1780144E-005  0.3225690E+04  0.7818608E-02  0.8182065E-01
         -2   -1    0    0    0  501 -0.00000000000E+00  0.00000000000E+00  0.90608160199E+03  0.90608160199E+03  0.00000000000E+00 0.  1.
          2   -1    0    0  501    0  0.00000000000E+00 -0.00000000000E+00 -0.28708984163E+04  0.28708984163E+04  0.00000000000E+00 0. -1.
         23    2    1    2    0    0 -0.94354509861E+03  0.59221527867E+03 -0.23467391596E+04  0.25993294048E+04  0.91281884027E+02 0.  0.
         13    1    3    3    0    0 -0.23945050766E+03  0.18760269017E+03 -0.70031471262E+03  0.76352603864E+03  0.00000000000E+00 0. -1.
        -13    1    3    3    0    0 -0.70409459095E+03  0.40461258850E+03 -0.16464244470E+04  0.18358033662E+04  0.00000000000E+00 0.  1.
         22    1    1    2    0    0  0.94354509861E+03 -0.59221527867E+03  0.38192234532E+03  0.11776506134E+04  0.00000000000E+00 0.  1.
<mgrwt>
<rscale>  0 0.32256895E+04</rscale>
<asrwt>0</asrwt>
<pdfrwt beam="1">  1        2 0.44167667E+00 0.32256895E+04</pdfrwt>
<pdfrwt beam="2">  1       -2 0.13939717E+00 0.32256895E+04</pdfrwt>
<totfact> 0.63857773E-01</totfact>
</mgrwt>
</event>
<event>
 6    1  0.1856250E-005  0.4286893E+04  0.7818608E-02  0.7949046E-01
         -2   -1    0    0    0  501 -0.00000000000E+00  0.00000000000E+00  0.17793307788E+04  0.17793307788E+04  0.00000000000E+00 0.  1.
          2   -1    0    0  501    0  0.00000000000E+00 -0.00000000000E+00 -0.25820729852E+04  0.25820729852E+04  0.00000000000E+00 0. -1.
         23    2    1    2    0    0 -0.11261228648E+03 -0.75581567570E+03  0.16346537178E+04  0.18070275673E+04  0.96524551814E+02 0.  0.
         11    1    3    3    0    0 -0.94182755915E+02 -0.38017189424E+03  0.76149518756E+03  0.85631535158E+03  0.00000000000E+00 0.  1.
        -11    1    3    3    0    0 -0.18429530567E+02 -0.37564378146E+03  0.87315853029E+03  0.95071221574E+03  0.00000000000E+00 0. -1.
         22    1    1    2    0    0  0.11261228648E+03  0.75581567570E+03 -0.24373959242E+04  0.25543761966E+04  0.00000000000E+00 0. -1.
<mgrwt>
<rscale>  0 0.42868926E+04</rscale>
<asrwt>0</asrwt>
<pdfrwt beam="1">  1        2 0.39724200E+00 0.42868926E+04</pdfrwt>
<pdfrwt beam="2">  1       -2 0.27374320E+00 0.42868926E+04</pdfrwt>
<totfact> 0.11050969E-01</totfact>
</mgrwt>
</event>
<event>
 6    1  0.1780144E-005  0.1053672E+04  0.7818608E-02  0.9251561E-01
          1   -1    0    0  501    0  0.00000000000E+00  0.00000000000E+00  0.11657279300E+04  0.11657279300E+04  0.00000000000E+00 0. -1.
         -1   -1    0    0    0  501 -0.00000000000E+00 -0.00000000000E+00 -0.23809693574E+03  0.23809693574E+03  0.00000000000E+00 0.  1.
         23    2    1    2    0    0 -0.37150987284E+03 -0.83312757876E+02  0.94461483152E+03  0.10227093295E+04  0.93148222900E+02 0.  0.
         11    1    3    3    0    0 -0.80228067971E+02  0.11922119228E+02  0.26634726089E+03  0.27842331656E+03  0.00000000000E+00 0. -1.
        -11    1    3    3    0    0 -0.29128180487E+03 -0.95234877103E+02  0.67826757062E+03  0.74428601292E+03  0.00000000000E+00 0.  1.
         22    1    1    2    0    0  0.37150987284E+03  0.83312757876E+02 -0.16983837271E+02  0.38111553625E+03  0.00000000000E+00 0.  1.
<mgrwt>
<rscale>  0 0.10536721E+04</rscale>
<asrwt>0</asrwt>
<pdfrwt beam="1">  1        1 0.17934275E+00 0.10536721E+04</pdfrwt>
<pdfrwt beam="2">  1       -1 0.36630299E-01 0.10536721E+04</pdfrwt>
<totfact> 0.80835171E+01</totfact>
</mgrwt>
</event>
<event>
 6    1  0.2608037E-005  0.3384047E+04  0.7818608E-02  0.8141833E-01
          1   -1    0    0  501    0  0.00000000000E+00  0.00000000000E+00  0.19343159078E+04  0.19343159078E+04  0.00000000000E+00 0. -1.
         -1   -1    0    0    0  501 -0.00000000000E+00 -0.00000000000E+00 -0.14800808026E+04  0.14800808026E+04  0.00000000000E+00 0.  1.
         23    2    1    2    0    0  0.13006740808E+04  0.29626186437E+03 -0.81883364677E+03  0.15704259394E+04  0.12737713109E+03 0.  0.
         11    1    3    3    0    0  0.85251079702E+03  0.22784092825E+03 -0.59941105250E+03  0.10667613405E+04  0.00000000000E+00 0. -1.
        -11    1    3    3    0    0  0.44816328375E+03  0.68420936122E+02 -0.21942259427E+03  0.50366459899E+03  0.00000000000E+00 0.  1.
         22    1    1    2    0    0 -0.13006740808E+04 -0.29626186437E+03  0.12730687520E+04  0.18439707709E+04  0.00000000000E+00 0. -1.
<mgrwt>
<rscale>  0 0.33840472E+04</rscale>
<asrwt>0</asrwt>
<pdfrwt beam="1">  1        1 0.29758706E+00 0.33840472E+04</pdfrwt>
<pdfrwt beam="2">  1       -1 0.22770474E+00 0.33840472E+04</pdfrwt>
<totfact> 0.26596944E-01</totfact>
</mgrwt>
</event>
<event>
 6    1  0.1780144E-005  0.1337815E+04  0.7818608E-02  0.9000103E-01
         -1   -1    0    0    0  501 -0.00000000000E+00  0.00000000000E+00  0.15256410189E+03  0.15256410189E+03  0.00000000000E+00 0.  1.
          1   -1    0    0  501    0  0.00000000000E+00 -0.00000000000E+00 -0.29327840219E+04  0.29327840219E+04  0.00000000000E+00 0. -1.
         23    2    1    2    0    0  0.23724642470E+03  0.47780202218E+03 -0.48040484616E+03  0.72447328332E+03  0.97427324718E+02 0.  0.
         11    1    3    3    0    0  0.49539292717E+02  0.59148186890E+02 -0.11230421047E+03  0.13625301914E+03  0.00000000000E+00 0. -1.
        -11    1    3    3    0    0  0.18770713198E+03  0.41865383529E+03 -0.36810063569E+03  0.58822026418E+03  0.00000000000E+00 0.  1.
         22    1    1    2    0    0 -0.23724642470E+03 -0.47780202218E+03 -0.22998150738E+04  0.23608748404E+04  0.00000000000E+00 0. -1.
<mgrwt>
<rscale>  0 0.13378155E+04</rscale>
<asrwt>0</asrwt>
<pdfrwt beam="1">  1        1 0.45119747E+00 0.13378155E+04</pdfrwt>
<pdfrwt beam="2">  1       -1 0.23471404E-01 0.13378155E+04</pdfrwt>
<totfact> 0.10313908E+01</totfact>
</mgrwt>
</event>
<event>
 6    1  0.1780144E-005  0.1234515E+04  0.7818608E-02  0.9083171E-01
         -2   -1    0    0    0  501 -0.00000000000E+00  0.00000000000E+00  0.23039869911E+03  0.23039869911E+03  0.00000000000E+00 0.  1.
          2   -1    0    0  501    0  0.00000000000E+00 -0.00000000000E+00 -0.16536835291E+04  0.16536835291E+04  0.00000000000E+00 0. -1.
         23    2    1    2    0    0  0.51782363641E+03  0.32936122098E+03 -0.69190854902E+03  0.92934069424E+03  0.91195139427E+02 0.  0.
         13    1    3    3    0    0  0.33750046647E+03  0.16865571728E+03 -0.38895862163E+03  0.54188571229E+03  0.00000000000E+00 0. -1.
        -13    1    3    3    0    0  0.18032316994E+03  0.16070550370E+03 -0.30294992739E+03  0.38745498196E+03  0.00000000000E+00 0.  1.
         22    1    1    2    0    0 -0.51782363641E+03 -0.32936122098E+03 -0.73137628093E+03  0.95474153394E+03  0.00000000000E+00 0. -1.
<mgrwt>
<rscale>  0 0.12345145E+04</rscale>
<asrwt>0</asrwt>
<pdfrwt beam="1">  1        2 0.25441284E+00 0.12345145E+04</pdfrwt>
<pdfrwt beam="2">  1       -2 0.35445956E-01 0.12345145E+04</pdfrwt>
<totfact> 0.76590603E+01</totfact>
</mgrwt>
</event>
<event>
 6    1  0.1780144E-005  0.1917099E+04  0.7818608E-02  0.8646392E-01
          2   -1    0    0  501    0  0.00000000000E+00  0.00000000000E+00  0.88211613000E+03  0.88211613000E+03  0.00000000000E+00 0. -1.
         -2   -1    0    0    0  501 -0.00000000000E+00 -0.00000000000E+00 -0.10416057694E+04  0.10416057694E+04  0.00000000000E+00 0.  1.
         23    2    1    2    0    0 -0.51885961308E+03  0.78969858043E+03 -0.22811510415E+03  0.97633148332E+03  0.91364755543E+02 0.  0.
         11    1    3    3    0    0 -0.47985818993E+03  0.67881082310E+03 -0.20988568643E+03  0.85737973930E+03  0.00000000000E+00 0. -1.
        -11    1    3    3    0    0 -0.39001423150E+02  0.11088775733E+03 -0.18229417728E+02  0.11895174402E+03  0.00000000000E+00 0.  1.
         22    1    1    2    0    0  0.51885961308E+03 -0.78969858043E+03  0.68625464769E+02  0.94739041606E+03  0.00000000000E+00 0. -1.
<mgrwt>
<rscale>  0 0.19170991E+04</rscale>
<asrwt>0</asrwt>
<pdfrwt beam="1">  1        2 0.13571017E+00 0.19170991E+04</pdfrwt>
<pdfrwt beam="2">  1       -2 0.16024704E+00 0.19170991E+04</pdfrwt>
<totfact> 0.70723361E+00</totfact>
</mgrwt>
</event>
<event>
 6    1  0.1780144E-005  0.3133490E+04  0.7818608E-02  0.8206606E-01
          4   -1    0    0  501    0  0.00000000000E+00  0.00000000000E+00  0.11569150792E+04  0.11569150792E+04  0.00000000000E+00 0. -1.
         -4   -1    0    0    0  501 -0.00000000000E+00 -0.00000000000E+00 -0.21217548411E+04  0.21217548411E+04  0.00000000000E+00 0.  1.
         23    2    1    2    0    0 -0.64108184136E+03  0.37950573814E+03  0.95779386912E+03  0.12167459131E+04  0.89949923353E+02 0.  0.
         11    1    3    3    0    0 -0.16096895782E+03  0.10944480981E+03  0.31411241119E+03  0.36953454323E+03  0.00000000000E+00 0. -1.
        -11    1    3    3    0    0 -0.48011288354E+03  0.27006092833E+03  0.64368145793E+03  0.84721136987E+03  0.00000000000E+00 0.  1.
         22    1    1    2    0    0  0.64108184136E+03 -0.37950573814E+03 -0.19226336310E+04  0.20619240073E+04  0.00000000000E+00 0.  1.
<mgrwt>
<rscale>  0 0.31334902E+04</rscale>
<asrwt>0</asrwt>
<pdfrwt beam="1">  1        4 0.17798694E+00 0.31334902E+04</pdfrwt>
<pdfrwt beam="2">  1       -4 0.32642382E+00 0.31334902E+04</pdfrwt>
<totfact> 0.65547640E-03</totfact>
</mgrwt>
</event>
<event>
 6    1  0.1780144E-005  0.1707483E+04  0.7818608E-02  0.8757108E-01
          2   -1    0    0  501    0  0.00000000000E+00  0.00000000000E+00  0.12705199129E+04  0.12705199129E+04  0.00000000000E+00 0. -1.
         -2   -1    0    0    0  501 -0.00000000000E+00 -0.00000000000E+00 -0.57368181384E+03  0.57368181384E+03  0.00000000000E+00 0.  1.
         23    2    1    2    0    0  0.58038286869E+03  0.12455780465E+03  0.10084229318E+04  0.11737958579E+04  0.92309185698E+02 0.  0.
         11    1    3    3    0    0  0.48947430556E+03  0.69445499359E+02  0.82429361278E+03  0.96118038539E+03  0.00000000000E+00 0. -1.
        -11    1    3    3    0    0  0.90908563122E+02  0.55112305290E+02  0.18412931898E+03  0.21261547251E+03  0.00000000000E+00 0.  1.
         22    1    1    2    0    0 -0.58038286869E+03 -0.12455780465E+03 -0.31158483272E+03  0.67040586882E+03  0.00000000000E+00 0.  1.
<mgrwt>
<rscale>  0 0.17074826E+04</rscale>
<asrwt>0</asrwt>
<pdfrwt beam="1">  1        2 0.19546460E+00 0.17074826E+04</pdfrwt>
<pdfrwt beam="2">  1       -2 0.88258740E-01 0.17074826E+04</pdfrwt>
<totfact> 0.18086829E+01</totfact>
</mgrwt>
</event>
<event>
 6    1  0.1780144E-005  0.1604382E+04  0.7818608E-02  0.8817861E-01
         -2   -1    0    0    0  501 -0.00000000000E+00  0.00000000000E+00  0.21480112188E+03  0.21480112188E+03  0.00000000000E+00 0.  1.
          2   -1    0    0  501    0  0.00000000000E+00 -0.00000000000E+00 -0.29958411956E+04  0.29958411956E+04  0.00000000000E+00 0. -1.
         23    2    1    2    0    0 -0.17554141637E+02  0.52817603621E+03 -0.19410649983E+03  0.57028185178E+03  0.90917457499E+02 0.  0.
         11    1    3    3    0    0  0.83895740034E+01  0.38325284026E+03 -0.17643462673E+03  0.42199798818E+03  0.00000000000E+00 0. -1.
        -11    1    3    3    0    0 -0.25943715640E+02  0.14492319595E+03 -0.17671873108E+02  0.14828386361E+03  0.00000000000E+00 0.  1.
         22    1    1    2    0    0  0.17554141637E+02 -0.52817603621E+03 -0.25869335738E+04  0.26403604657E+04  0.00000000000E+00 0. -1.
<mgrwt>
<rscale>  0 0.16043816E+04</rscale>
<asrwt>0</asrwt>
<pdfrwt beam="1">  1        2 0.46089865E+00 0.16043816E+04</pdfrwt>
<pdfrwt beam="2">  1       -2 0.33046326E-01 0.16043816E+04</pdfrwt>
<totfact> 0.14436944E+01</totfact>
</mgrwt>
</event>
<event>
 6    1  0.1780144E-005  0.1664240E+04  0.7818608E-02  0.8782027E-01
         -1   -1    0    0    0  501 -0.00000000000E+00  0.00000000000E+00  0.12275409924E+04  0.12275409924E+04  0.00000000000E+00 0.  1.
          1   -1    0    0  501    0  0.00000000000E+00 -0.00000000000E+00 -0.56407372509E+03  0.56407372509E+03  0.00000000000E+00 0. -1.
         23    2    1    2    0    0 -0.80348855267E+02  0.69388944717E+03 -0.14889199441E+03  0.72022959834E+03  0.92861966810E+02 0.  0.
         13    1    3    3    0    0 -0.34763401819E+01  0.38710824956E+03 -0.10351849894E+03  0.40072554378E+03  0.00000000000E+00 0. -1.
        -13    1    3    3    0    0 -0.76872515085E+02  0.30678119761E+03 -0.45373495476E+02  0.31950405455E+03  0.00000000000E+00 0.  1.
         22    1    1    2    0    0  0.80348855267E+02 -0.69388944717E+03  0.81235926170E+03  0.10713851191E+04  0.00000000000E+00 0.  1.
<mgrwt>
<rscale>  0 0.16642399E+04</rscale>
<asrwt>0</asrwt>
<pdfrwt beam="1">  1        1 0.86780573E-01 0.16642399E+04</pdfrwt>
<pdfrwt beam="2">  1       -1 0.18885246E+00 0.16642399E+04</pdfrwt>
<totfact> 0.64289573E+00</totfact>
</mgrwt>
</event>
<event>
 6    1  0.1780144E-005  0.1948762E+04  0.7818608E-02  0.8630958E-01
         -3   -1    0    0    0  501 -0.00000000000E+00  0.00000000000E+00  0.11295220815E+04  0.11295220815E+04  0.00000000000E+00 0.  1.
          3   -1    0    0  501    0  0.00000000000E+00 -0.00000000000E+00 -0.84054844995E+03  0.84054844995E+03  0.00000000000E+00 0. -1.
         23    2    1    2    0    0 -0.44851894458E+03  0.67543182132E+03  0.68751405196E+03  0.10666260917E+04  0.87397133410E+02 0.  0.
         11    1    3    3    0    0 -0.18377620916E+03  0.34808777615E+03  0.35670132142E+03  0.53120111790E+03  0.00000000000E+00 0. -1.
        -11    1    3    3    0    0 -0.26474273542E+03  0.32734404517E+03  0.33081273055E+03  0.53542497379E+03  0.00000000000E+00 0.  1.
         22    1    1    2    0    0  0.44851894458E+03 -0.67543182132E+03 -0.39854042046E+03  0.90344443971E+03  0.00000000000E+00 0. -1.
<mgrwt>
<rscale>  0 0.19487617E+04</rscale>
<asrwt>0</asrwt>
<pdfrwt beam="1">  1        3 0.12931515E+00 0.19487617E+04</pdfrwt>
<pdfrwt beam="2">  1       -3 0.17377263E+00 0.19487617E+04</pdfrwt>
<totfact> 0.25033995E-01</totfact>
</mgrwt>
</event>
<event>
 6    1  0.1780144E-005  0.2090083E+04  0.7818608E-02  0.8565624E-01
         -2   -1    0    0    0  501 -0.00000000000E+00  0.00000000000E+00  0.56926649854E+03  0.56926649854E+03  0.00000000000E+00 0.  1.
          2   -1    0    0  501    0  0.00000000000E+00 -0.00000000000E+00 -0.19184543275E+04  0.19184543275E+04  0.00000000000E+00 0. -1.
         23    2    1    2    0    0  0.35180562996E+03 -0.62953702921E+03 -0.15728011147E+04  0.17326797848E+04  0.91606865473E+02 0.  0.
         13    1    3    3    0    0  0.99793159788E+02 -0.11368999525E+03 -0.28364077641E+03  0.32145945281E+03  0.00000000000E+00 0. -1.
        -13    1    3    3    0    0  0.25201247017E+03 -0.51584703396E+03 -0.12891603382E+04  0.14112203319E+04  0.00000000000E+00 0.  1.
         22    1    1    2    0    0 -0.35180562996E+03  0.62953702921E+03  0.22361328573E+03  0.75504104125E+03  0.00000000000E+00 0.  1.
<mgrwt>
<rscale>  0 0.20900830E+04</rscale>
<asrwt>0</asrwt>
<pdfrwt beam="1">  1        2 0.29514682E+00 0.20900830E+04</pdfrwt>
<pdfrwt beam="2">  1       -2 0.87579461E-01 0.20900830E+04</pdfrwt>
<totfact> 0.76963755E+00</totfact>
</mgrwt>
</event>
<event>
 6    1  0.1780144E-005  0.3245013E+04  0.7818608E-02  0.8177030E-01
          2   -1    0    0  501    0  0.00000000000E+00  0.00000000000E+00  0.17105537509E+04  0.17105537509E+04  0.00000000000E+00 0. -1.
         -2   -1    0    0    0  501 -0.00000000000E+00 -0.00000000000E+00 -0.15389909844E+04  0.15389909844E+04  0.00000000000E+00 0.  1.
         23    2    1    2    0    0 -0.51534756713E+03  0.94077050515E+01 -0.14534433688E+04  0.15447525018E+04  0.89950240499E+02 0.  0.
         11    1    3    3    0    0 -0.49261318592E+02  0.15358997908E+02 -0.22517668283E+03  0.23101323515E+03  0.00000000000E+00 0. -1.
        -11    1    3    3    0    0 -0.46608624854E+03 -0.59512928569E+01 -0.12282666859E+04  0.13137392667E+04  0.00000000000E+00 0.  1.
         22    1    1    2    0    0  0.51534756713E+03 -0.94077050515E+01  0.16250061352E+04  0.17047922335E+04  0.00000000000E+00 0. -1.
<mgrwt>
<rscale>  0 0.32450127E+04</rscale>
<asrwt>0</asrwt>
<pdfrwt beam="1">  1        2 0.26316211E+00 0.32450127E+04</pdfrwt>
<pdfrwt beam="2">  1       -2 0.23676784E+00 0.32450127E+04</pdfrwt>
<totfact> 0.62973055E-01</totfact>
</mgrwt>
</event>
<event>
 6    1  0.1780144E-005  0.1318060E+04  0.7818608E-02  0.9015365E-01
          1   -1    0    0  501    0  0.00000000000E+00  0.00000000000E+00  0.18231905983E+04  0.18231905983E+04  0.00000000000E+00 0. -1.
         -1   -1    0    0    0  501 -0.00000000000E+00 -0.00000000000E+00 -0.23822007556E+03  0.23822007556E+03  0.00000000000E+00 0.  1.
         23    2    1    2    0    0 -0.27342626311E+02 -0.63673630297E+03  0.55374276797E+03  0.84913536646E+03  0.90659135087E+02 0.  0.
         11    1    3    3    0    0 -0.20215131791E+01 -0.24341648214E+03  0.15561580062E+03  0.28891512196E+03  0.00000000000E+00 0.  1.
        -11    1    3    3    0    0 -0.25321113132E+02 -0.39331982082E+03  0.39812696735E+03  0.56022024451E+03  0.00000000000E+00 0. -1.
         22    1    1    2    0    0  0.27342626311E+02  0.63673630297E+03  0.10312277548E+04  0.12122753074E+04  0.00000000000E+00 0. -1.
<mgrwt>
<rscale>  0 0.13180601E+04</rscale>
<asrwt>0</asrwt>
<pdfrwt beam="1">  1        1 0.28049085E+00 0.13180601E+04</pdfrwt>
<pdfrwt beam="2">  1       -1 0.36649244E-01 0.13180601E+04</pdfrwt>
<totfact> 0.27546875E+01</totfact>
</mgrwt>
</event>
<event>
 6    1  0.1780144E-005  0.1313194E+04  0.7818608E-02  0.9019167E-01
         -1   -1    0    0    0  501 -0.00000000000E+00  0.00000000000E+00  0.29327675768E+03  0.29327675768E+03  0.00000000000E+00 0.  1.
          1   -1    0    0  501    0  0.00000000000E+00 -0.00000000000E+00 -0.14700096693E+04  0.14700096693E+04  0.00000000000E+00 0. -1.
         23    2    1    2    0    0  0.45220319076E+03 -0.43561586765E+03 -0.83398658996E+03  0.10479375954E+04  0.91600555113E+02 0.  0.
         13    1    3    3    0    0  0.41000407630E+03 -0.36311062214E+03 -0.68580345144E+03  0.87765542242E+03  0.00000000000E+00 0.  1.
        -13    1    3    3    0    0  0.42199114469E+02 -0.72505245509E+02 -0.14818313852E+03  0.17028217297E+03  0.00000000000E+00 0. -1.
         22    1    1    2    0    0 -0.45220319076E+03  0.43561586765E+03 -0.34274632170E+03  0.71534883164E+03  0.00000000000E+00 0.  1.
<mgrwt>
<rscale>  0 0.13131941E+04</rscale>
<asrwt>0</asrwt>
<pdfrwt beam="1">  1        1 0.22615533E+00 0.13131941E+04</pdfrwt>
<pdfrwt beam="2">  1       -1 0.45119501E-01 0.13131941E+04</pdfrwt>
<totfact> 0.32824380E+01</totfact>
</mgrwt>
</event>
<event>
 6    1  0.1780144E-005  0.4978892E+04  0.7818608E-02  0.7831772E-01
         -2   -1    0    0    0  501 -0.00000000000E+00  0.00000000000E+00  0.21930971338E+04  0.21930971338E+04  0.00000000000E+00 0.  1.
          2   -1    0    0  501    0  0.00000000000E+00 -0.00000000000E+00 -0.28258401585E+04  0.28258401585E+04  0.00000000000E+00 0. -1.
         23    2    1    2    0    0 -0.22771381524E+04 -0.15008224551E+03  0.68417667859E+03  0.23841393208E+04  0.90220440872E+02 0.  0.
         11    1    3    3    0    0 -0.12615661670E+04 -0.62406072602E+02  0.33703839993E+03  0.13073020289E+04  0.00000000000E+00 0.  1.
        -11    1    3    3    0    0 -0.10155719853E+04 -0.87676172906E+02  0.34713827866E+03  0.10768372919E+04  0.00000000000E+00 0. -1.
         22    1    1    2    0    0  0.22771381524E+04  0.15008224551E+03 -0.13169197033E+04  0.26347979715E+04  0.00000000000E+00 0. -1.
<mgrwt>
<rscale>  0 0.49788922E+04</rscale>
<asrwt>0</asrwt>
<pdfrwt beam="1">  1        2 0.43474464E+00 0.49788922E+04</pdfrwt>
<pdfrwt beam="2">  1       -2 0.33739956E+00 0.49788922E+04</pdfrwt>
<totfact> 0.30356781E-02</totfact>
</mgrwt>
</event>
<event>
 6    1  0.1780144E-005  0.4431514E+04  0.7818608E-02  0.7922738E-01
          2   -1    0    0  501    0  0.00000000000E+00  0.00000000000E+00  0.24283247072E+04  0.24283247072E+04  0.00000000000E+00 0. -1.
         -2   -1    0    0    0  501 -0.00000000000E+00 -0.00000000000E+00 -0.20217967684E+04  0.20217967684E+04  0.00000000000E+00 0.  1.
         23    2    1    2    0    0 -0.14264681015E+04 -0.19665749502E+03 -0.14865849928E+04  0.20716005094E+04  0.90046182908E+02 0.  0.
         11    1    3    3    0    0 -0.64119527289E+03 -0.58685497987E+02 -0.61590447652E+03  0.89101834428E+03  0.00000000000E+00 0. -1.
        -11    1    3    3    0    0 -0.78527282857E+03 -0.13797199703E+03 -0.87068051625E+03  0.11805821651E+04  0.00000000000E+00 0.  1.
         22    1    1    2    0    0  0.14264681015E+04  0.19665749502E+03  0.18931129316E+04  0.23785209662E+04  0.00000000000E+00 0. -1.
<mgrwt>
<rscale>  0 0.44315140E+04</rscale>
<asrwt>0</asrwt>
<pdfrwt beam="1">  1        2 0.37358842E+00 0.44315140E+04</pdfrwt>
<pdfrwt beam="2">  1       -2 0.31104566E+00 0.44315140E+04</pdfrwt>
<totfact> 0.79329089E-02</totfact>
</mgrwt>
</event>
<event>
 6    1  0.1780144E-005  0.1321626E+04  0.7818608E-02  0.9012589E-01
         -1   -1    0    0    0  501 -0.00000000000E+00  0.00000000000E+00  0.23037441953E+03  0.23037441953E+03  0.00000000000E+00 0.  1.
          1   -1    0    0  501    0  0.00000000000E+00 -0.00000000000E+00 -0.18954964789E+04  0.18954964789E+04  0.00000000000E+00 0. -1.
         23    2    1    2    0    0 -0.33198304240E+03 -0.42744180217E+03 -0.23481185239E+03  0.59658788902E+03  0.88663795391E+02 0.  0.
         13    1    3    3    0    0 -0.23965963870E+03 -0.36595194863E+03 -0.19096033296E+03  0.47730851647E+03  0.00000000000E+00 0.  1.
        -13    1    3    3    0    0 -0.92323403702E+02 -0.61489853543E+02 -0.43851519430E+02  0.11927937255E+03  0.00000000000E+00 0. -1.
         22    1    1    2    0    0  0.33198304240E+03  0.42744180217E+03 -0.14303102070E+04  0.15292830095E+04  0.00000000000E+00 0. -1.
<mgrwt>
<rscale>  0 0.13216261E+04</rscale>
<asrwt>0</asrwt>
<pdfrwt beam="1">  1        1 0.29161483E+00 0.13216261E+04</pdfrwt>
<pdfrwt beam="2">  1       -1 0.35442220E-01 0.13216261E+04</pdfrwt>
<totfact> 0.26132173E+01</totfact>
</mgrwt>
</event>
<event>
 6    1  0.1780144E-005  0.2679034E+04  0.7818608E-02  0.8341840E-01
         -2   -1    0    0    0  501 -0.00000000000E+00  0.00000000000E+00  0.14405316913E+04  0.14405316913E+04  0.00000000000E+00 0.  1.
          2   -1    0    0  501    0  0.00000000000E+00 -0.00000000000E+00 -0.12455856895E+04  0.12455856895E+04  0.00000000000E+00 0. -1.
         23    2    1    2    0    0  0.13170637751E+04  0.22635272533E+03  0.16094226303E+03  0.13493119357E+04  0.94062446821E+02 0.  0.
         13    1    3    3    0    0  0.34362470687E+03  0.73309457329E+02  0.81722046309E+02  0.36073634216E+03  0.00000000000E+00 0. -1.
        -13    1    3    3    0    0  0.97343906819E+03  0.15304326800E+03  0.79220216724E+02  0.98857559351E+03  0.00000000000E+00 0.  1.
         22    1    1    2    0    0 -0.13170637751E+04 -0.22635272533E+03  0.34003738839E+02  0.13368054451E+04  0.00000000000E+00 0. -1.
<mgrwt>
<rscale>  0 0.26790339E+04</rscale>
<asrwt>0</asrwt>
<pdfrwt beam="1">  1        2 0.19162857E+00 0.26790339E+04</pdfrwt>
<pdfrwt beam="2">  1       -2 0.22162026E+00 0.26790339E+04</pdfrwt>
<totfact> 0.15094686E+00</totfact>
</mgrwt>
</event>
<event>
 6    1  0.1780144E-005  0.3357599E+04  0.7818608E-02  0.8148392E-01
         -2   -1    0    0    0  501 -0.00000000000E+00  0.00000000000E+00  0.81330103175E+03  0.81330103175E+03  0.00000000000E+00 0.  1.
          2   -1    0    0  501    0  0.00000000000E+00 -0.00000000000E+00 -0.34653448180E+04  0.34653448180E+04  0.00000000000E+00 0. -1.
         23    2    1    2    0    0  0.93789017575E+03  0.25492598894E+03  0.41550186964E+03  0.10608109266E+04  0.89737264919E+02 0.  0.
         11    1    3    3    0    0  0.27774683248E+03  0.99171613430E+02  0.16372573257E+03  0.33731947375E+03  0.00000000000E+00 0.  1.
        -11    1    3    3    0    0  0.66014334327E+03  0.15575437551E+03  0.25177613706E+03  0.72349145285E+03  0.00000000000E+00 0. -1.
         22    1    1    2    0    0 -0.93789017575E+03 -0.25492598894E+03 -0.30675456559E+04  0.32178349232E+04  0.00000000000E+00 0. -1.
<mgrwt>
<rscale>  0 0.33575994E+04</rscale>
<asrwt>0</asrwt>
<pdfrwt beam="1">  1        2 0.53312998E+00 0.33575994E+04</pdfrwt>
<pdfrwt beam="2">  1       -2 0.12512323E+00 0.33575994E+04</pdfrwt>
<totfact> 0.34126206E-01</totfact>
</mgrwt>
</event>
<event>
 6    1  0.1780144E-005  0.3150664E+04  0.7818608E-02  0.8201970E-01
         -1   -1    0    0    0  501 -0.00000000000E+00  0.00000000000E+00  0.12450419973E+04  0.12450419973E+04  0.00000000000E+00 0.  1.
          1   -1    0    0  501    0  0.00000000000E+00 -0.00000000000E+00 -0.19932421019E+04  0.19932421019E+04  0.00000000000E+00 0. -1.
         23    2    1    2    0    0 -0.11693876507E+04  0.10535277490E+04 -0.38552643556E+03  0.16230688238E+04  0.91288437353E+02 0.  0.
         13    1    3    3    0    0 -0.61302491078E+03  0.50861593463E+03 -0.16189115185E+03  0.81283359628E+03  0.00000000000E+00 0.  1.
        -13    1    3    3    0    0 -0.55636273990E+03  0.54491181437E+03 -0.22363528372E+03  0.81023522752E+03  0.00000000000E+00 0. -1.
         22    1    1    2    0    0  0.11693876507E+04 -0.10535277490E+04 -0.36267366902E+03  0.16152152753E+04  0.00000000000E+00 0.  1.
<mgrwt>
<rscale>  0 0.31506635E+04</rscale>
<asrwt>0</asrwt>
<pdfrwt beam="1">  1        1 0.30665263E+00 0.31506635E+04</pdfrwt>
<pdfrwt beam="2">  1       -1 0.19154492E+00 0.31506635E+04</pdfrwt>
<totfact> 0.43610034E-01</totfact>
</mgrwt>
</event>
<event>
 6    1  0.1780144E-005  0.4169377E+04  0.7818608E-02  0.7971223E-01
         -2   -1    0    0    0  501 -0.00000000000E+00  0.00000000000E+00  0.13225413292E+04  0.13225413292E+04  0.00000000000E+00 0.  1.
          2   -1    0    0  501    0  0.00000000000E+00 -0.00000000000E+00 -0.32860419612E+04  0.32860419612E+04  0.00000000000E+00 0. -1.
         23    2    1    2    0    0  0.12167944611E+04 -0.15205004344E+04 -0.18013274608E+04  0.26544055940E+04  0.92618059733E+02 0.  0.
         11    1    3    3    0    0  0.16093422803E+03 -0.25287667168E+03 -0.28824053785E+03  0.41584738125E+03  0.00000000000E+00 0. -1.
        -11    1    3    3    0    0  0.10558602330E+04 -0.12676237627E+04 -0.15130869230E+04  0.22385582127E+04  0.00000000000E+00 0.  1.
         22    1    1    2    0    0 -0.12167944611E+04  0.15205004344E+04 -0.16217317122E+03  0.19541776963E+04  0.00000000000E+00 0.  1.
<mgrwt>
<rscale>  0 0.41693771E+04</rscale>
<asrwt>0</asrwt>
<pdfrwt beam="1">  1        2 0.50554491E+00 0.41693771E+04</pdfrwt>
<pdfrwt beam="2">  1       -2 0.20346790E+00 0.41693771E+04</pdfrwt>
<totfact> 0.11164444E-01</totfact>
</mgrwt>
</event>
<event>
 6    1  0.1780144E-005  0.1834904E+04  0.7818608E-02  0.8687955E-01
          1   -1    0    0  501    0  0.00000000000E+00  0.00000000000E+00  0.10944849122E+04  0.10944849122E+04  0.00000000000E+00 0. -1.
         -1   -1    0    0    0  501 -0.00000000000E+00 -0.00000000000E+00 -0.76905450167E+03  0.76905450167E+03  0.00000000000E+00 0.  1.
         23    2    1    2    0    0 -0.18378758328E+03 -0.18273010581E+03  0.10545675559E+04  0.10897118206E+04  0.90503892965E+02 0.  0.
         11    1    3    3    0    0 -0.14148240042E+02 -0.25900943444E+02  0.27648946827E+03  0.27806016908E+03  0.00000000000E+00 0.  1.
        -11    1    3    3    0    0 -0.16963934324E+03 -0.15682916237E+03  0.77807808766E+03  0.81165165154E+03  0.00000000000E+00 0. -1.
         22    1    1    2    0    0  0.18378758328E+03  0.18273010581E+03 -0.72913714538E+03  0.77382759328E+03  0.00000000000E+00 0.  1.
<mgrwt>
<rscale>  0 0.18349044E+04</rscale>
<asrwt>0</asrwt>
<pdfrwt beam="1">  1        1 0.16838230E+00 0.18349044E+04</pdfrwt>
<pdfrwt beam="2">  1       -1 0.11831608E+00 0.18349044E+04</pdfrwt>
<totfact> 0.77191073E+00</totfact>
</mgrwt>
</event>
<event>
 6    1  0.1780144E-005  0.9825173E+03  0.7818608E-02  0.9327930E-01
          2   -1    0    0  501    0  0.00000000000E+00  0.00000000000E+00  0.15534289916E+04  0.15534289916E+04  0.00000000000E+00 0.  1.
         -2   -1    0    0    0  501 -0.00000000000E+00 -0.00000000000E+00 -0.15535634806E+03  0.15535634806E+03  0.00000000000E+00 0. -1.
         23    2    1    2    0    0  0.44856382712E+03 -0.16924505923E+03  0.85157232755E+03  0.98179428576E+03  0.94293125128E+02 0.  0.
         13    1    3    3    0    0  0.43759424843E+03 -0.14349694862E+03  0.80737657243E+03  0.92948213013E+03  0.00000000000E+00 0. -1.
        -13    1    3    3    0    0  0.10969578685E+02 -0.25748110618E+02  0.44195755120E+02  0.52312155638E+02  0.00000000000E+00 0.  1.
         22    1    1    2    0    0 -0.44856382712E+03  0.16924505923E+03  0.54650031598E+03  0.72699105389E+03  0.00000000000E+00 0. -1.
<mgrwt>
<rscale>  0 0.98251729E+03</rscale>
<asrwt>0</asrwt>
<pdfrwt beam="1">  1        2 0.23898906E+00 0.98251729E+03</pdfrwt>
<pdfrwt beam="2">  1       -2 0.23900978E-01 0.98251729E+03</pdfrwt>
<totfact> 0.18408029E+02</totfact>
</mgrwt>
</event>
<event>
 6    1  0.1780144E-005  0.9071200E+03  0.7818608E-02  0.9416725E-01
         -2   -1    0    0    0  501 -0.00000000000E+00  0.00000000000E+00  0.89015333314E+03  0.89015333314E+03  0.00000000000E+00 0.  1.
          2   -1    0    0  501    0  0.00000000000E+00 -0.00000000000E+00 -0.23110251113E+03  0.23110251113E+03  0.00000000000E+00 0. -1.
         23    2    1    2    0    0 -0.40409714116E+03  0.18878711946E+03  0.26813164384E+03  0.52816826235E+03  0.90177929433E+02 0.  0.
         13    1    3    3    0    0 -0.28814021047E+03  0.17728631228E+03  0.19240529944E+03  0.38919791451E+03  0.00000000000E+00 0. -1.
        -13    1    3    3    0    0 -0.11595693069E+03  0.11500807185E+02  0.75726344405E+02  0.13897034784E+03  0.00000000000E+00 0.  1.
         22    1    1    2    0    0  0.40409714116E+03 -0.18878711946E+03  0.39091917817E+03  0.59308758192E+03  0.00000000000E+00 0. -1.
<mgrwt>
<rscale>  0 0.90711999E+03</rscale>
<asrwt>0</asrwt>
<pdfrwt beam="1">  1        2 0.35554233E-01 0.90711999E+03</pdfrwt>
<pdfrwt beam="2">  1       -2 0.13694667E+00 0.90711999E+03</pdfrwt>
<totfact> 0.56025859E+01</totfact>
</mgrwt>
</event>
<event>
 6    1  0.1780144E-005  0.2177521E+04  0.7818608E-02  0.8527843E-01
         -1   -1    0    0    0  501 -0.00000000000E+00  0.00000000000E+00  0.19933986598E+04  0.19933986598E+04  0.00000000000E+00 0.  1.
          1   -1    0    0  501    0  0.00000000000E+00 -0.00000000000E+00 -0.59466256068E+03  0.59466256068E+03  0.00000000000E+00 0. -1.
         23    2    1    2    0    0 -0.10140274898E+04  0.28240748218E+03  0.10221873172E+04  0.14701190389E+04  0.91527815739E+02 0.  0.
         11    1    3    3    0    0 -0.69403712700E+03  0.14874677448E+03  0.68946377232E+03  0.98953192466E+03  0.00000000000E+00 0. -1.
        -11    1    3    3    0    0 -0.31999036284E+03  0.13366070770E+03  0.33272354489E+03  0.48058711429E+03  0.00000000000E+00 0.  1.
         22    1    1    2    0    0  0.10140274898E+04 -0.28240748218E+03  0.37654878194E+03  0.11179421816E+04  0.00000000000E+00 0. -1.
<mgrwt>
<rscale>  0 0.21775211E+04</rscale>
<asrwt>0</asrwt>
<pdfrwt beam="1">  1        1 0.91486549E-01 0.21775211E+04</pdfrwt>
<pdfrwt beam="2">  1       -1 0.30667671E+00 0.21775211E+04</pdfrwt>
<totfact> 0.94768516E-01</totfact>
</mgrwt>
</event>
<event>
 6    1  0.1780144E-005  0.4857511E+04  0.7818608E-02  0.7850871E-01
          1   -1    0    0  501    0  0.00000000000E+00  0.00000000000E+00  0.18628201292E+04  0.18628201292E+04  0.00000000000E+00 0. -1.
         -1   -1    0    0    0  501 -0.00000000000E+00 -0.00000000000E+00 -0.31666256988E+04  0.31666256988E+04  0.00000000000E+00 0.  1.
         23    2    1    2    0    0  0.20180926424E+04  0.12648595313E+03 -0.20438079109E+04  0.28762388999E+04  0.83083230083E+02 0.  0.
         13    1    3    3    0    0  0.11712064626E+04  0.67481658924E+02 -0.11278109245E+04  0.16273401100E+04  0.00000000000E+00 0. -1.
        -13    1    3    3    0    0  0.84688617981E+03  0.59004294209E+02 -0.91599698641E+03  0.12488987899E+04  0.00000000000E+00 0.  1.
         22    1    1    2    0    0 -0.20180926424E+04 -0.12648595313E+03  0.74000234130E+03  0.21532069280E+04  0.00000000000E+00 0. -1.
<mgrwt>
<rscale>  0 0.48575113E+04</rscale>
<asrwt>0</asrwt>
<pdfrwt beam="1">  1        1 0.28658771E+00 0.48575113E+04</pdfrwt>
<pdfrwt beam="2">  1       -1 0.48717318E+00 0.48575113E+04</pdfrwt>
<totfact> 0.48969101E-03</totfact>
</mgrwt>
</event>
<event>
 6    1  0.1780144E-005  0.2009691E+04  0.7818608E-02  0.8602103E-01
         -1   -1    0    0    0  501 -0.00000000000E+00  0.00000000000E+00  0.68768058415E+03  0.68768058415E+03  0.00000000000E+00 0.  1.
          1   -1    0    0  501    0  0.00000000000E+00 -0.00000000000E+00 -0.14682895622E+04  0.14682895622E+04  0.00000000000E+00 0. -1.
         23    2    1    2    0    0 -0.30300530829E+03  0.15467757428E+03 -0.14030252039E+04  0.14466469992E+04  0.92576718259E+02 0.  0.
         13    1    3    3    0    0 -0.78228658934E+02 -0.38011539331E+00 -0.36642425319E+03  0.37468199969E+03  0.00000000000E+00 0.  1.
        -13    1    3    3    0    0 -0.22477664935E+03  0.15505768968E+03 -0.10366009507E+04  0.10719649995E+04  0.00000000000E+00 0. -1.
         22    1    1    2    0    0  0.30300530829E+03 -0.15467757428E+03  0.62241622586E+03  0.70932314712E+03  0.00000000000E+00 0.  1.
<mgrwt>
<rscale>  0 0.20096907E+04</rscale>
<asrwt>0</asrwt>
<pdfrwt beam="1">  1        1 0.22589070E+00 0.20096907E+04</pdfrwt>
<pdfrwt beam="2">  1       -1 0.10579701E+00 0.20096907E+04</pdfrwt>
<totfact> 0.53357048E+00</totfact>
</mgrwt>
</event>
<event>
 6    1  0.1780144E-005  0.3511366E+04  0.7818608E-02  0.8111102E-01
          2   -1    0    0  501    0  0.00000000000E+00  0.00000000000E+00  0.18635514341E+04  0.18635514341E+04  0.00000000000E+00 0. -1.
         -2   -1    0    0    0  501 -0.00000000000E+00 -0.00000000000E+00 -0.16540579518E+04  0.16540579518E+04  0.00000000000E+00 0.  1.
         23    2    1    2    0    0  0.92175378430E+03 -0.94163908120E+03  0.12653146402E+04  0.18290974626E+04  0.90896594201E+02 0.  0.
         11    1    3    3    0    0  0.34931649561E+03 -0.32944549711E+03  0.51597533211E+03  0.70483110957E+03  0.00000000000E+00 0.  1.
        -11    1    3    3    0    0  0.57243728869E+03 -0.61219358409E+03  0.74933930804E+03  0.11242663530E+04  0.00000000000E+00 0. -1.
         22    1    1    2    0    0 -0.92175378430E+03  0.94163908120E+03 -0.10558211578E+04  0.16885119234E+04  0.00000000000E+00 0.  1.
<mgrwt>
<rscale>  0 0.35113656E+04</rscale>
<asrwt>0</asrwt>
<pdfrwt beam="1">  1        2 0.28670022E+00 0.35113656E+04</pdfrwt>
<pdfrwt beam="2">  1       -2 0.25447045E+00 0.35113656E+04</pdfrwt>
<totfact> 0.39398966E-01</totfact>
</mgrwt>
</event>
<event>
 6    1  0.1780144E-005  0.3600682E+04  0.7818608E-02  0.8090335E-01
          2   -1    0    0  501    0  0.00000000000E+00  0.00000000000E+00  0.35291106073E+04  0.35291106073E+04  0.00000000000E+00 0. -1.
         -2   -1    0    0    0  501 -0.00000000000E+00 -0.00000000000E+00 -0.91842646467E+03  0.91842646467E+03  0.00000000000E+00 0.  1.
         23    2    1    2    0    0 -0.12081354347E+04  0.31286754274E+03  0.29069582182E+04  0.31648618770E+04  0.92017881109E+02 0.  0.
         11    1    3    3    0    0 -0.45179161086E+02  0.31065138234E+01  0.72473075797E+02  0.85458491328E+02  0.00000000000E+00 0. -1.
        -11    1    3    3    0    0 -0.11629562736E+04  0.30976102891E+03  0.28344851424E+04  0.30794033857E+04  0.00000000000E+00 0.  1.
         22    1    1    2    0    0  0.12081354347E+04 -0.31286754274E+03 -0.29627407558E+03  0.12826751949E+04  0.00000000000E+00 0.  1.
<mgrwt>
<rscale>  0 0.36006825E+04</rscale>
<asrwt>0</asrwt>
<pdfrwt beam="1">  1        2 0.54294009E+00 0.36006825E+04</pdfrwt>
<pdfrwt beam="2">  1       -2 0.14129638E+00 0.36006825E+04</pdfrwt>
<totfact> 0.22123959E-01</totfact>
</mgrwt>
</event>
<event>
 6    1  0.1780144E-005  0.5519755E+04  0.7818608E-02  0.7752977E-01
          1   -1    0    0  501    0  0.00000000000E+00  0.00000000000E+00  0.46519285458E+04  0.46519285458E+04  0.00000000000E+00 0. -1.
         -1   -1    0    0    0  501 -0.00000000000E+00 -0.00000000000E+00 -0.16373693088E+04  0.16373693088E+04  0.00000000000E+00 0.  1.
         23    2    1    2    0    0  0.13132148253E+04 -0.60641510794E+03 -0.11698535233E+04  0.18619303966E+04  0.77169134481E+02 0.  0.
         11    1    3    3    0    0  0.11584945900E+04 -0.50894531908E+03 -0.10346249055E+04  0.16344980110E+04  0.00000000000E+00 0. -1.
        -11    1    3    3    0    0  0.15472023525E+03 -0.97469788859E+02 -0.13522861773E+03  0.22743238553E+03  0.00000000000E+00 0.  1.
         22    1    1    2    0    0 -0.13132148253E+04  0.60641510794E+03  0.41844127602E+04  0.44273674580E+04  0.00000000000E+00 0. -1.
<mgrwt>
<rscale>  0 0.55197554E+04</rscale>
<asrwt>0</asrwt>
<pdfrwt beam="1">  1        1 0.71568131E+00 0.55197554E+04</pdfrwt>
<pdfrwt beam="2">  1       -1 0.25190297E+00 0.55197554E+04</pdfrwt>
<totfact> 0.10341421E-03</totfact>
</mgrwt>
</event>
<event>
 6    1  0.1780144E-005  0.5222772E+04  0.7818608E-02  0.7795032E-01
          2   -1    0    0  501    0  0.00000000000E+00  0.00000000000E+00  0.31654117851E+04  0.31654117851E+04  0.00000000000E+00 0. -1.
         -2   -1    0    0    0  501 -0.00000000000E+00 -0.00000000000E+00 -0.21543286251E+04  0.21543286251E+04  0.00000000000E+00 0.  1.
         23    2    1    2    0    0  0.20041084962E+04  0.11001580717E+04  0.17894995932E+04  0.29046356938E+04  0.88323679393E+02 0.  0.
         13    1    3    3    0    0  0.89974385695E+03  0.54396309627E+03  0.81782196984E+03  0.13320163785E+04  0.00000000000E+00 0. -1.
        -13    1    3    3    0    0  0.11043646393E+04  0.55619497542E+03  0.97167762332E+03  0.15726193153E+04  0.00000000000E+00 0.  1.
         22    1    1    2    0    0 -0.20041084962E+04 -0.11001580717E+04 -0.77841643320E+03  0.24151047163E+04  0.00000000000E+00 0.  1.
<mgrwt>
<rscale>  0 0.52227721E+04</rscale>
<asrwt>0</asrwt>
<pdfrwt beam="1">  1        2 0.48698643E+00 0.52227721E+04</pdfrwt>
<pdfrwt beam="2">  1       -2 0.33143517E+00 0.52227721E+04</pdfrwt>
<totfact> 0.19850173E-02</totfact>
</mgrwt>
</event>
<event>
 6    1  0.1780144E-005  0.2358428E+04  0.7818608E-02  0.8455233E-01
         -1   -1    0    0    0  501 -0.00000000000E+00  0.00000000000E+00  0.15966840435E+04  0.15966840435E+04  0.00000000000E+00 0.  1.
          1   -1    0    0  501    0  0.00000000000E+00 -0.00000000000E+00 -0.87089619083E+03  0.87089619083E+03  0.00000000000E+00 0. -1.
         23    2    1    2    0    0  0.61670878812E+03  0.57511181323E+03 -0.49635193779E+03  0.98275398372E+03  0.91415640455E+02 0.  0.
         11    1    3    3    0    0  0.32216173255E+03  0.31409197847E+03 -0.21302130530E+03  0.49781525627E+03  0.00000000000E+00 0.  1.
        -11    1    3    3    0    0  0.29454705556E+03  0.26101983476E+03 -0.28333063249E+03  0.48493872745E+03  0.00000000000E+00 0. -1.
         22    1    1    2    0    0 -0.61670878812E+03 -0.57511181323E+03  0.12221397904E+04  0.14848262506E+04  0.00000000000E+00 0.  1.
<mgrwt>
<rscale>  0 0.23584283E+04</rscale>
<asrwt>0</asrwt>
<pdfrwt beam="1">  1        1 0.13398403E+00 0.23584283E+04</pdfrwt>
<pdfrwt beam="2">  1       -1 0.24564370E+00 0.23584283E+04</pdfrwt>
<totfact> 0.12877820E+00</totfact>
</mgrwt>
</event>
<event>
 6    1  0.1780144E-005  0.3257086E+04  0.7818608E-02  0.8173902E-01
         -2   -1    0    0    0  501 -0.00000000000E+00  0.00000000000E+00  0.22194457497E+04  0.22194457497E+04  0.00000000000E+00 0.  1.
          2   -1    0    0  501    0  0.00000000000E+00 -0.00000000000E+00 -0.11949613063E+04  0.11949613063E+04  0.00000000000E+00 0. -1.
         23    2    1    2    0    0  0.76654832551E+03  0.22314862537E+03 -0.97385809079E+03  0.12624859311E+04  0.89886043355E+02 0.  0.
         11    1    3    3    0    0  0.39564702235E+03  0.15772658470E+03 -0.54588397407E+03  0.69238974210E+03  0.00000000000E+00 0. -1.
        -11    1    3    3    0    0  0.37090130316E+03  0.65422040665E+02 -0.42797411672E+03  0.57009618896E+03  0.00000000000E+00 0.  1.
         22    1    1    2    0    0 -0.76654832551E+03 -0.22314862537E+03  0.19983425342E+04  0.21519211250E+04  0.00000000000E+00 0.  1.
<mgrwt>
<rscale>  0 0.32570857E+04</rscale>
<asrwt>0</asrwt>
<pdfrwt beam="1">  1        2 0.18384020E+00 0.32570857E+04</pdfrwt>
<pdfrwt beam="2">  1       -2 0.34145319E+00 0.32570857E+04</pdfrwt>
<totfact> 0.28137097E-01</totfact>
</mgrwt>
</event>
<event>
 6    1  0.1780144E-005  0.2436025E+04  0.7818608E-02  0.8426138E-01
         -2   -1    0    0    0  501 -0.00000000000E+00  0.00000000000E+00  0.81771814620E+03  0.81771814620E+03  0.00000000000E+00 0.  1.
          2   -1    0    0  501    0  0.00000000000E+00 -0.00000000000E+00 -0.18142614880E+04  0.18142614880E+04  0.00000000000E+00 0. -1.
         23    2    1    2    0    0  0.72561221460E+03 -0.93770614568E+03 -0.20566609405E+03  0.12067453648E+04  0.90166133495E+02 0.  0.
         13    1    3    3    0    0  0.58756761790E+03 -0.70110257642E+03 -0.14499522647E+03  0.92617716662E+03  0.00000000000E+00 0.  1.
        -13    1    3    3    0    0  0.13804459670E+03 -0.23660356925E+03 -0.60670867573E+02  0.28056819819E+03  0.00000000000E+00 0. -1.
         22    1    1    2    0    0 -0.72561221460E+03  0.93770614568E+03 -0.79087724772E+03  0.14252342694E+04  0.00000000000E+00 0. -1.
<mgrwt>
<rscale>  0 0.24360251E+04</rscale>
<asrwt>0</asrwt>
<pdfrwt beam="1">  1        2 0.27911715E+00 0.24360251E+04</pdfrwt>
<pdfrwt beam="2">  1       -2 0.12580279E+00 0.24360251E+04</pdfrwt>
<totfact> 0.35846166E+00</totfact>
</mgrwt>
</event>
<event>
 6    1  0.1780144E-005  0.1212233E+04  0.7818608E-02  0.9102216E-01
         -2   -1    0    0    0  501 -0.00000000000E+00  0.00000000000E+00  0.12643404458E+03  0.12643404458E+03  0.00000000000E+00 0.  1.
          2   -1    0    0  501    0  0.00000000000E+00 -0.00000000000E+00 -0.29056814692E+04  0.29056814692E+04  0.00000000000E+00 0. -1.
         23    2    1    2    0    0  0.31920789111E+03 -0.28944361942E+03 -0.34173351807E+03  0.55680839521E+03  0.87077580549E+02 0.  0.
         11    1    3    3    0    0  0.14320035248E+03 -0.17245495974E+03 -0.13785193229E+03  0.26315434506E+03  0.00000000000E+00 0. -1.
        -11    1    3    3    0    0  0.17600753863E+03 -0.11698865968E+03 -0.20388158578E+03  0.29365405015E+03  0.00000000000E+00 0.  1.
         22    1    1    2    0    0 -0.31920789111E+03  0.28944361942E+03 -0.24375139066E+04  0.24753071186E+04  0.00000000000E+00 0. -1.
<mgrwt>
<rscale>  0 0.12122328E+04</rscale>
<asrwt>0</asrwt>
<pdfrwt beam="1">  1        2 0.44702792E+00 0.12122328E+04</pdfrwt>
<pdfrwt beam="2">  1       -2 0.19451391E-01 0.12122328E+04</pdfrwt>
<totfact> 0.44652175E+01</totfact>
</mgrwt>
</event>
<event>
 6    1  0.1780144E-005  0.9630202E+03  0.7818608E-02  0.9350060E-01
         -1   -1    0    0    0  501 -0.00000000000E+00  0.00000000000E+00  0.12849128806E+03  0.12849128806E+03  0.00000000000E+00 0.  1.
          1   -1    0    0  501    0  0.00000000000E+00 -0.00000000000E+00 -0.18044178353E+04  0.18044178353E+04  0.00000000000E+00 0. -1.
         23    2    1    2    0    0  0.13079870274E+03  0.37465094361E+03 -0.13777479458E+04  0.14365401995E+04  0.89368408875E+02 0.  0.
         13    1    3    3    0    0  0.44214770662E+02  0.22764121316E+03 -0.68910233455E+03  0.72707461471E+03  0.00000000000E+00 0. -1.
        -13    1    3    3    0    0  0.86583932081E+02  0.14700973045E+03 -0.68864561124E+03  0.70946558480E+03  0.00000000000E+00 0.  1.
         22    1    1    2    0    0 -0.13079870274E+03 -0.37465094361E+03 -0.29817860145E+03  0.49636892384E+03  0.00000000000E+00 0.  1.
<mgrwt>
<rscale>  0 0.96302019E+03</rscale>
<asrwt>0</asrwt>
<pdfrwt beam="1">  1        1 0.27760271E+00 0.96302019E+03</pdfrwt>
<pdfrwt beam="2">  1       -1 0.19767893E-01 0.96302019E+03</pdfrwt>
<totfact> 0.85058204E+01</totfact>
</mgrwt>
</event>
<event>
 6    1  0.1780144E-005  0.3294965E+04  0.7818608E-02  0.8164178E-01
          1   -1    0    0  501    0  0.00000000000E+00  0.00000000000E+00  0.25035781884E+04  0.25035781884E+04  0.00000000000E+00 0. -1.
         -1   -1    0    0    0  501 -0.00000000000E+00 -0.00000000000E+00 -0.10841279837E+04  0.10841279837E+04  0.00000000000E+00 0.  1.
         23    2    1    2    0    0 -0.67310517939E+03 -0.97627973960E+02  0.23426080112E+04  0.24410492314E+04  0.91144130098E+02 0.  0.
         13    1    3    3    0    0 -0.54638504248E+03 -0.11489992476E+03  0.19045965111E+04  0.19847484670E+04  0.00000000000E+00 0.  1.
        -13    1    3    3    0    0 -0.12672013692E+03  0.17271950799E+02  0.43801150012E+03  0.45630076443E+03  0.00000000000E+00 0. -1.
         22    1    1    2    0    0  0.67310517939E+03  0.97627973960E+02 -0.92315780654E+03  0.11466569407E+04  0.00000000000E+00 0.  1.
<mgrwt>
<rscale>  0 0.32949654E+04</rscale>
<asrwt>0</asrwt>
<pdfrwt beam="1">  1        1 0.38516587E+00 0.32949654E+04</pdfrwt>
<pdfrwt beam="2">  1       -1 0.16678892E+00 0.32949654E+04</pdfrwt>
<totfact> 0.29046910E-01</totfact>
</mgrwt>
</event>
<event>
 6    1  0.1780144E-005  0.2556778E+04  0.7818608E-02  0.8383033E-01
         -2   -1    0    0    0  501 -0.00000000000E+00  0.00000000000E+00  0.23050150792E+04  0.23050150792E+04  0.00000000000E+00 0.  1.
          2   -1    0    0  501    0  0.00000000000E+00 -0.00000000000E+00 -0.70900988119E+03  0.70900988119E+03  0.00000000000E+00 0. -1.
         23    2    1    2    0    0 -0.10421838241E+03  0.76564578578E+03  0.19971510175E+04  0.21433970784E+04  0.91999501729E+02 0.  0.
         13    1    3    3    0    0 -0.86403143671E+02  0.53580906752E+03  0.12866194446E+04  0.13964048322E+04  0.00000000000E+00 0. -1.
        -13    1    3    3    0    0 -0.17815238737E+02  0.22983671826E+03  0.71053157287E+03  0.74699224617E+03  0.00000000000E+00 0.  1.
         22    1    1    2    0    0  0.10421838241E+03 -0.76564578578E+03 -0.40114581948E+03  0.87062788205E+03  0.00000000000E+00 0. -1.
<mgrwt>
<rscale>  0 0.25567780E+04</rscale>
<asrwt>0</asrwt>
<pdfrwt beam="1">  1        2 0.10907844E+00 0.25567780E+04</pdfrwt>
<pdfrwt beam="2">  1       -2 0.35461770E+00 0.25567780E+04</pdfrwt>
<totfact> 0.52078467E-01</totfact>
</mgrwt>
</event>
<event>
 6    1  0.1780144E-005  0.2198310E+04  0.7818608E-02  0.8519132E-01
         -2   -1    0    0    0  501 -0.00000000000E+00  0.00000000000E+00  0.68035908953E+03  0.68035908953E+03  0.00000000000E+00 0.  1.
          2   -1    0    0  501    0  0.00000000000E+00 -0.00000000000E+00 -0.17757411661E+04  0.17757411661E+04  0.00000000000E+00 0. -1.
         23    2    1    2    0    0  0.76106448997E+03 -0.42840158971E+02  0.33322716617E+03  0.83684771030E+03  0.90660403995E+02 0.  0.
         13    1    3    3    0    0  0.10091218487E+03  0.13716367488E+02  0.71612957638E+02  0.12449828711E+03  0.00000000000E+00 0. -1.
        -13    1    3    3    0    0  0.66015230510E+03 -0.56556526459E+02  0.26161420853E+03  0.71234942319E+03  0.00000000000E+00 0.  1.
         22    1    1    2    0    0 -0.76106448997E+03  0.42840158971E+02 -0.14286092427E+04  0.16192525453E+04  0.00000000000E+00 0. -1.
<mgrwt>
<rscale>  0 0.21983099E+04</rscale>
<asrwt>0</asrwt>
<pdfrwt beam="1">  1        2 0.27319095E+00 0.21983099E+04</pdfrwt>
<pdfrwt beam="2">  1       -2 0.10467063E+00 0.21983099E+04</pdfrwt>
<totfact> 0.60266372E+00</totfact>
</mgrwt>
</event>
<event>
 6    1  0.1780144E-005  0.3422889E+04  0.7818608E-02  0.8132311E-01
          2   -1    0    0  501    0  0.00000000000E+00  0.00000000000E+00  0.23574607604E+04  0.23574607604E+04  0.00000000000E+00 0. -1.
         -2   -1    0    0    0  501 -0.00000000000E+00 -0.00000000000E+00 -0.12424561528E+04  0.12424561528E+04  0.00000000000E+00 0.  1.
         23    2    1    2    0    0 -0.10847628313E+04 -0.60387354590E+03 -0.67915678503E+03  0.14180853976E+04  0.91315917764E+02 0.  0.
         11    1    3    3    0    0 -0.29326598013E+03 -0.21065504715E+03 -0.19731384506E+03  0.41147689782E+03  0.00000000000E+00 0.  1.
        -11    1    3    3    0    0 -0.79149685113E+03 -0.39321849875E+03 -0.48184293997E+03  0.10066084998E+04  0.00000000000E+00 0. -1.
         22    1    1    2    0    0  0.10847628313E+04  0.60387354590E+03  0.17941613926E+04  0.21818315155E+04  0.00000000000E+00 0. -1.
<mgrwt>
<rscale>  0 0.34228886E+04</rscale>
<asrwt>0</asrwt>
<pdfrwt beam="1">  1        2 0.36268627E+00 0.34228886E+04</pdfrwt>
<pdfrwt beam="2">  1       -2 0.19114710E+00 0.34228886E+04</pdfrwt>
<totfact> 0.52942384E-01</totfact>
</mgrwt>
</event>
<event>
 6    1  0.1780144E-005  0.2996763E+04  0.7818608E-02  0.8244656E-01
          2   -1    0    0  501    0  0.00000000000E+00  0.00000000000E+00  0.38783346471E+04  0.38783346471E+04  0.00000000000E+00 0. -1.
         -2   -1    0    0    0  501 -0.00000000000E+00 -0.00000000000E+00 -0.57889455687E+03  0.57889455687E+03  0.00000000000E+00 0.  1.
         23    2    1    2    0    0 -0.23533410957E+03  0.91002887021E+03 -0.81567472969E+02  0.94799184662E+03  0.92198703211E+02 0.  0.
         13    1    3    3    0    0 -0.41243406296E+02  0.15598116365E+03  0.20753814796E+02  0.16267102633E+03  0.00000000000E+00 0. -1.
        -13    1    3    3    0    0 -0.19409070328E+03  0.75404770655E+03 -0.10232128777E+03  0.78532082029E+03  0.00000000000E+00 0.  1.
         22    1    1    2    0    0  0.23533410957E+03 -0.91002887021E+03  0.33810075632E+04  0.35092373573E+04  0.00000000000E+00 0. -1.
<mgrwt>
<rscale>  0 0.29967628E+04</rscale>
<asrwt>0</asrwt>
<pdfrwt beam="1">  1        2 0.59666685E+00 0.29967628E+04</pdfrwt>
<pdfrwt beam="2">  1       -2 0.89060703E-01 0.29967628E+04</pdfrwt>
<totfact> 0.39598729E-01</totfact>
</mgrwt>
</event>
<event>
 6    1  0.1780144E-005  0.2591144E+04  0.7818608E-02  0.8371216E-01
          1   -1    0    0  501    0  0.00000000000E+00  0.00000000000E+00  0.24743012343E+04  0.24743012343E+04  0.00000000000E+00 0. -1.
         -1   -1    0    0    0  501 -0.00000000000E+00 -0.00000000000E+00 -0.67837590583E+03  0.67837590583E+03  0.00000000000E+00 0.  1.
         23    2    1    2    0    0 -0.57288320268E+03 -0.14926943189E+03 -0.50078600619E+03  0.78089311076E+03  0.92362867165E+02 0.  0.
         13    1    3    3    0    0 -0.76780328088E+02 -0.60891698736E+01 -0.31724370834E+02  0.83299054471E+02  0.00000000000E+00 0. -1.
        -13    1    3    3    0    0 -0.49610287459E+03 -0.14318026201E+03 -0.46906163536E+03  0.69759405629E+03  0.00000000000E+00 0.  1.
         22    1    1    2    0    0  0.57288320268E+03  0.14926943189E+03  0.22967113347E+04  0.23717840294E+04  0.00000000000E+00 0. -1.
<mgrwt>
<rscale>  0 0.25911436E+04</rscale>
<asrwt>0</asrwt>
<pdfrwt beam="1">  1        1 0.38066172E+00 0.25911436E+04</pdfrwt>
<pdfrwt beam="2">  1       -1 0.10436553E+00 0.25911436E+04</pdfrwt>
<totfact> 0.10738558E+00</totfact>
</mgrwt>
</event>
<event>
 6    1  0.1780144E-005  0.2683833E+04  0.7818608E-02  0.8340270E-01
          2   -1    0    0  501    0  0.00000000000E+00  0.00000000000E+00  0.14737798870E+04  0.14737798870E+04  0.00000000000E+00 0. -1.
         -2   -1    0    0    0  501 -0.00000000000E+00 -0.00000000000E+00 -0.12218516221E+04  0.12218516221E+04  0.00000000000E+00 0.  1.
         23    2    1    2    0    0  0.10724624117E+04  0.13805422367E+03 -0.66933545582E+03  0.12750818140E+04  0.92677326372E+02 0.  0.
         13    1    3    3    0    0  0.56421037620E+03  0.48336413916E+02 -0.30365981938E+03  0.64255664608E+03  0.00000000000E+00 0.  1.
        -13    1    3    3    0    0  0.50825203551E+03  0.89717809749E+02 -0.36567563643E+03  0.63252516794E+03  0.00000000000E+00 0. -1.
         22    1    1    2    0    0 -0.10724624117E+04 -0.13805422367E+03  0.92126372069E+03  0.14205496951E+04  0.00000000000E+00 0. -1.
<mgrwt>
<rscale>  0 0.26838333E+04</rscale>
<asrwt>0</asrwt>
<pdfrwt beam="1">  1        2 0.22673537E+00 0.26838333E+04</pdfrwt>
<pdfrwt beam="2">  1       -2 0.18797717E+00 0.26838333E+04</pdfrwt>
<totfact> 0.18457332E+00</totfact>
</mgrwt>
</event>
<event>
 6    1  0.1780144E-005  0.2763870E+04  0.7818608E-02  0.8314574E-01
         -2   -1    0    0    0  501 -0.00000000000E+00  0.00000000000E+00  0.17610783601E+04  0.17610783601E+04  0.00000000000E+00 0.  1.
          2   -1    0    0  501    0  0.00000000000E+00 -0.00000000000E+00 -0.10844172903E+04  0.10844172903E+04  0.00000000000E+00 0. -1.
         23    2    1    2    0    0  0.62642602015E+03  0.78857141177E+03  0.13106895209E+04  0.16554340945E+04  0.91107577600E+02 0.  0.
         13    1    3    3    0    0  0.49279847851E+03  0.57782770910E+03  0.93744927603E+03  0.12064602550E+04  0.00000000000E+00 0. -1.
        -13    1    3    3    0    0  0.13362754164E+03  0.21074370267E+03  0.37324024487E+03  0.44897383943E+03  0.00000000000E+00 0.  1.
         22    1    1    2    0    0 -0.62642602015E+03 -0.78857141177E+03 -0.63402845105E+03  0.11900615559E+04  0.00000000000E+00 0. -1.
<mgrwt>
<rscale>  0 0.27638696E+04</rscale>
<asrwt>0</asrwt>
<pdfrwt beam="1">  1        2 0.16683343E+00 0.27638696E+04</pdfrwt>
<pdfrwt beam="2">  1       -2 0.27093513E+00 0.27638696E+04</pdfrwt>
<totfact> 0.92990275E-01</totfact>
</mgrwt>
</event>
<event>
 6    1  0.1780144E-005  0.3544729E+04  0.7818608E-02  0.8103271E-01
         -2   -1    0    0    0  501 -0.00000000000E+00  0.00000000000E+00  0.13334658655E+04  0.13334658655E+04  0.00000000000E+00 0.  1.
          2   -1    0    0  501    0  0.00000000000E+00 -0.00000000000E+00 -0.23557229769E+04  0.23557229769E+04  0.00000000000E+00 0. -1.
         23    2    1    2    0    0 -0.13214659074E+03  0.13677121570E+04 -0.16749156525E+04  0.21679845704E+04  0.81947475097E+02 0.  0.
         11    1    3    3    0    0 -0.72218580581E+02  0.77901864961E+03 -0.88949409161E+03  0.11846034437E+04  0.00000000000E+00 0. -1.
        -11    1    3    3    0    0 -0.59928010160E+02  0.58869350737E+03 -0.78542156087E+03  0.98338112668E+03  0.00000000000E+00 0.  1.
         22    1    1    2    0    0  0.13214659074E+03 -0.13677121570E+04  0.65265854110E+03  0.15212042720E+04  0.00000000000E+00 0.  1.
<mgrwt>
<rscale>  0 0.35447291E+04</rscale>
<asrwt>0</asrwt>
<pdfrwt beam="1">  1        2 0.36241892E+00 0.35447291E+04</pdfrwt>
<pdfrwt beam="2">  1       -2 0.20514860E+00 0.35447291E+04</pdfrwt>
<totfact> 0.42467652E-01</totfact>
</mgrwt>
</event>
<event>
 6    1  0.1780144E-005  0.2470517E+04  0.7818608E-02  0.8413565E-01
         -2   -1    0    0    0  501 -0.00000000000E+00  0.00000000000E+00  0.89740683436E+03  0.89740683436E+03  0.00000000000E+00 0.  1.
          2   -1    0    0  501    0  0.00000000000E+00 -0.00000000000E+00 -0.17003024621E+04  0.17003024621E+04  0.00000000000E+00 0. -1.
         23    2    1    2    0    0 -0.10033767623E+04 -0.58725965607E+03 -0.83540872260E+03  0.14346547268E+04  0.93207406348E+02 0.  0.
         11    1    3    3    0    0 -0.12116126802E+03 -0.53029443314E+02 -0.12758801392E+03  0.18376853926E+03  0.00000000000E+00 0. -1.
        -11    1    3    3    0    0 -0.88221549423E+03 -0.53423021276E+03 -0.70782070867E+03  0.12508861875E+04  0.00000000000E+00 0.  1.
         22    1    1    2    0    0  0.10033767623E+04  0.58725965607E+03  0.32513094879E+02  0.11630545697E+04  0.00000000000E+00 0. -1.
<mgrwt>
<rscale>  0 0.24705166E+04</rscale>
<asrwt>0</asrwt>
<pdfrwt beam="1">  1        2 0.26158499E+00 0.24705166E+04</pdfrwt>
<pdfrwt beam="2">  1       -2 0.13806259E+00 0.24705166E+04</pdfrwt>
<totfact> 0.32642674E+00</totfact>
</mgrwt>
</event>
<event>
 6    1  0.1780144E-005  0.2986784E+04  0.7818608E-02  0.8247515E-01
         -2   -1    0    0    0  501 -0.00000000000E+00  0.00000000000E+00  0.54046619164E+03  0.54046619164E+03  0.00000000000E+00 0.  1.
          2   -1    0    0  501    0  0.00000000000E+00 -0.00000000000E+00 -0.41264730222E+04  0.41264730222E+04  0.00000000000E+00 0. -1.
         23    2    1    2    0    0 -0.12299758733E+04  0.48619647728E+03 -0.28738798076E+04  0.31648231862E+04  0.87709680826E+02 0.  0.
         11    1    3    3    0    0 -0.64174886890E+03  0.28904351943E+03 -0.14583751937E+04  0.16193350402E+04  0.00000000000E+00 0. -1.
        -11    1    3    3    0    0 -0.58822700444E+03  0.19715295785E+03 -0.14155046139E+04  0.15454881460E+04  0.00000000000E+00 0.  1.
         22    1    1    2    0    0  0.12299758733E+04 -0.48619647728E+03 -0.71212702293E+03  0.15021160276E+04  0.00000000000E+00 0.  1.
<mgrwt>
<rscale>  0 0.29867837E+04</rscale>
<asrwt>0</asrwt>
<pdfrwt beam="1">  1        2 0.63484201E+00 0.29867837E+04</pdfrwt>
<pdfrwt beam="2">  1       -2 0.83148644E-01 0.29867837E+04</pdfrwt>
<totfact> 0.29170178E-01</totfact>
</mgrwt>
</event>
<event>
 6    1  0.1780144E-005  0.7407292E+03  0.7818608E-02  0.9650008E-01
         -2   -1    0    0    0  501 -0.00000000000E+00  0.00000000000E+00  0.72902238015E+03  0.72902238015E+03  0.00000000000E+00 0.  1.
          2   -1    0    0  501    0  0.00000000000E+00 -0.00000000000E+00 -0.18815598385E+03  0.18815598385E+03  0.00000000000E+00 0. -1.
         23    2    1    2    0    0  0.19307077970E+03 -0.49043335217E+02 -0.10409272456E+03  0.24215699968E+03  0.90128477674E+02 0.  0.
         13    1    3    3    0    0  0.97890114138E+02 -0.14975532497E+02 -0.28302990354E+01  0.99069428242E+02  0.00000000000E+00 0. -1.
        -13    1    3    3    0    0  0.95180665558E+02 -0.34067802720E+02 -0.10126242552E+03  0.14308757144E+03  0.00000000000E+00 0.  1.
         22    1    1    2    0    0 -0.19307077970E+03  0.49043335217E+02  0.64495912086E+03  0.67502136432E+03  0.00000000000E+00 0.  1.
<mgrwt>
<rscale>  0 0.74072916E+03</rscale>
<asrwt>0</asrwt>
<pdfrwt beam="1">  1        2 0.28947075E-01 0.74072916E+03</pdfrwt>
<pdfrwt beam="2">  1       -2 0.11215729E+00 0.74072916E+03</pdfrwt>
<totfact> 0.11724918E+02</totfact>
</mgrwt>
</event>
<event>
 6    1  0.1780144E-005  0.2265275E+04  0.7818608E-02  0.8491740E-01
         -2   -1    0    0    0  501 -0.00000000000E+00  0.00000000000E+00  0.77841074496E+03  0.77841074496E+03  0.00000000000E+00 0.  1.
          2   -1    0    0  501    0  0.00000000000E+00 -0.00000000000E+00 -0.16480600531E+04  0.16480600531E+04  0.00000000000E+00 0. -1.
         23    2    1    2    0    0 -0.52951381021E+03  0.10031310284E+03  0.62930972214E+03  0.83357225507E+03  0.91457007602E+02 0.  0.
         11    1    3    3    0    0 -0.32019576046E+03  0.82493022393E+02  0.44292787956E+03  0.55273459296E+03  0.00000000000E+00 0.  1.
        -11    1    3    3    0    0 -0.20931804975E+03  0.17820080443E+02  0.18638184258E+03  0.28083766211E+03  0.00000000000E+00 0. -1.
         22    1    1    2    0    0  0.52951381021E+03 -0.10031310284E+03 -0.14989590303E+04  0.15928985430E+04  0.00000000000E+00 0. -1.
<mgrwt>
<rscale>  0 0.22652750E+04</rscale>
<asrwt>0</asrwt>
<pdfrwt beam="1">  1        2 0.25354770E+00 0.22652750E+04</pdfrwt>
<pdfrwt beam="2">  1       -2 0.11975550E+00 0.22652750E+04</pdfrwt>
<totfact> 0.50873369E+00</totfact>
</mgrwt>
</event>
<event>
 6    1  0.1780144E-005  0.2406248E+04  0.7818608E-02  0.8437168E-01
          1   -1    0    0  501    0  0.00000000000E+00  0.00000000000E+00  0.19669320853E+04  0.19669320853E+04  0.00000000000E+00 0. -1.
         -1   -1    0    0    0  501 -0.00000000000E+00 -0.00000000000E+00 -0.73592131453E+03  0.73592131453E+03  0.00000000000E+00 0.  1.
         23    2    1    2    0    0  0.18577428672E+02  0.89840302281E+03 -0.27933461219E+03  0.94540744387E+03  0.91073031733E+02 0.  0.
         13    1    3    3    0    0  0.55081379731E+02  0.49216458553E+03 -0.15966577173E+03  0.52033940492E+03  0.00000000000E+00 0. -1.
        -13    1    3    3    0    0 -0.36503951058E+02  0.40623843728E+03 -0.11966884046E+03  0.42506803896E+03  0.00000000000E+00 0.  1.
         22    1    1    2    0    0 -0.18577428672E+02 -0.89840302281E+03  0.15103453829E+04  0.17574459559E+04  0.00000000000E+00 0. -1.
<mgrwt>
<rscale>  0 0.24062479E+04</rscale>
<asrwt>0</asrwt>
<pdfrwt beam="1">  1        1 0.30260493E+00 0.24062479E+04</pdfrwt>
<pdfrwt beam="2">  1       -1 0.11321866E+00 0.24062479E+04</pdfrwt>
<totfact> 0.20023759E+00</totfact>
</mgrwt>
</event>
<event>
 6    1  0.1780144E-005  0.1770848E+04  0.7818608E-02  0.8721958E-01
         -1   -1    0    0    0  501 -0.00000000000E+00  0.00000000000E+00  0.47261231480E+03  0.47261231480E+03  0.00000000000E+00 0.  1.
          1   -1    0    0  501    0  0.00000000000E+00 -0.00000000000E+00 -0.16588131112E+04  0.16588131112E+04  0.00000000000E+00 0. -1.
         23    2    1    2    0    0 -0.77299854691E+03 -0.21803437212E+03 -0.10364619550E+04  0.13144263675E+04  0.91638149052E+02 0.  0.
         13    1    3    3    0    0 -0.48396476237E+03 -0.17564223648E+03 -0.69784592748E+03  0.86721452072E+03  0.00000000000E+00 0. -1.
        -13    1    3    3    0    0 -0.28903378455E+03 -0.42392135635E+02 -0.33861602756E+03  0.44721184677E+03  0.00000000000E+00 0.  1.
         22    1    1    2    0    0  0.77299854691E+03  0.21803437212E+03 -0.14973884134E+03  0.81699905848E+03  0.00000000000E+00 0.  1.
<mgrwt>
<rscale>  0 0.17708478E+04</rscale>
<asrwt>0</asrwt>
<pdfrwt beam="1">  1        1 0.25520202E+00 0.17708478E+04</pdfrwt>
<pdfrwt beam="2">  1       -1 0.72709587E-01 0.17708478E+04</pdfrwt>
<totfact> 0.91748006E+00</totfact>
</mgrwt>
</event>
<event>
 6    1  0.1780144E-005  0.1304618E+04  0.7818608E-02  0.9025911E-01
         -2   -1    0    0    0  501 -0.00000000000E+00  0.00000000000E+00  0.41147755865E+03  0.41147755865E+03  0.00000000000E+00 0. -1.
          2   -1    0    0  501    0  0.00000000000E+00 -0.00000000000E+00 -0.10340961154E+04  0.10340961154E+04  0.00000000000E+00 0.  1.
         23    2    1    2    0    0  0.56786708082E+03 -0.15177053341E+03 -0.61802530878E+03  0.85775702384E+03  0.91019302151E+02 0.  0.
         13    1    3    3    0    0  0.17706025392E+03 -0.54268194586E+02 -0.25756985201E+03  0.31723429690E+03  0.00000000000E+00 0.  1.
        -13    1    3    3    0    0  0.39080682690E+03 -0.97502338825E+02 -0.36045545676E+03  0.54052272694E+03  0.00000000000E+00 0. -1.
         22    1    1    2    0    0 -0.56786708082E+03  0.15177053341E+03 -0.45932479247E+01  0.58781665017E+03  0.00000000000E+00 0. -1.
<mgrwt>
<rscale>  0 0.13046185E+04</rscale>
<asrwt>0</asrwt>
<pdfrwt beam="1">  1        2 0.15909171E+00 0.13046185E+04</pdfrwt>
<pdfrwt beam="2">  1       -2 0.63304240E-01 0.13046185E+04</pdfrwt>
<totfact> 0.54247396E+01</totfact>
</mgrwt>
</event>
<event>
 6    1  0.1780144E-005  0.6306481E+03  0.7818608E-02  0.9843785E-01
         -2   -1    0    0    0  501 -0.00000000000E+00  0.00000000000E+00  0.95920990803E+02  0.95920990803E+02  0.00000000000E+00 0.  1.
          2   -1    0    0  501    0  0.00000000000E+00 -0.00000000000E+00 -0.10365746857E+04  0.10365746857E+04  0.00000000000E+00 0. -1.
         23    2    1    2    0    0 -0.23633685787E+03  0.34362885876E+02 -0.12777729748E+03  0.28526255877E+03  0.89508498887E+02 0.  0.
         11    1    3    3    0    0 -0.13651304342E+03  0.40745607694E+02 -0.11757544054E+03  0.18471599765E+03  0.00000000000E+00 0. -1.
        -11    1    3    3    0    0 -0.99823814441E+02 -0.63827218177E+01 -0.10201856943E+02  0.10054656112E+03  0.00000000000E+00 0.  1.
         22    1    1    2    0    0  0.23633685787E+03 -0.34362885876E+02 -0.81287639746E+03  0.84723311777E+03  0.00000000000E+00 0. -1.
<mgrwt>
<rscale>  0 0.63064815E+03</rscale>
<asrwt>0</asrwt>
<pdfrwt beam="1">  1        2 0.15947304E+00 0.63064815E+03</pdfrwt>
<pdfrwt beam="2">  1       -2 0.14757075E-01 0.63064815E+03</pdfrwt>
<totfact> 0.86694795E+02</totfact>
</mgrwt>
</event>
<event>
 6    1  0.3155045E-005  0.2461093E+04  0.7818608E-02  0.8416979E-01
         -2   -1    0    0    0  501 -0.00000000000E+00  0.00000000000E+00  0.75848930583E+03  0.75848930583E+03  0.00000000000E+00 0.  1.
          2   -1    0    0  501    0  0.00000000000E+00 -0.00000000000E+00 -0.19963960548E+04  0.19963960548E+04  0.00000000000E+00 0. -1.
         23    2    1    2    0    0 -0.71071589380E+03 -0.55765770898E+03 -0.15523300564E+04  0.17983493088E+04  0.90732741957E+02 0.  0.
         13    1    3    3    0    0 -0.32303860348E+03 -0.24517802166E+03 -0.60911849240E+03  0.73177287421E+03  0.00000000000E+00 0. -1.
        -13    1    3    3    0    0 -0.38767729032E+03 -0.31247968732E+03 -0.94321156398E+03  0.10665764346E+04  0.00000000000E+00 0.  1.
         22    1    1    2    0    0  0.71071589380E+03  0.55765770898E+03  0.31442330746E+03  0.95653605178E+03  0.00000000000E+00 0. -1.
<mgrwt>
<rscale>  0 0.24610933E+04</rscale>
<asrwt>0</asrwt>
<pdfrwt beam="1">  1        2 0.30713785E+00 0.24610933E+04</pdfrwt>
<pdfrwt beam="2">  1       -2 0.11669066E+00 0.24610933E+04</pdfrwt>
<totfact> 0.34169184E+00</totfact>
</mgrwt>
</event>
<event>
 6    1  0.1780144E-005  0.2282572E+04  0.7818608E-02  0.8484824E-01
         -1   -1    0    0    0  501 -0.00000000000E+00  0.00000000000E+00  0.12058016568E+04  0.12058016568E+04  0.00000000000E+00 0.  1.
          1   -1    0    0  501    0  0.00000000000E+00 -0.00000000000E+00 -0.10802224607E+04  0.10802224607E+04  0.00000000000E+00 0. -1.
         23    2    1    2    0    0 -0.24475517212E+03  0.67431817499E+03 -0.82377017038E+03  0.10961189469E+04  0.90936004015E+02 0.  0.
         13    1    3    3    0    0 -0.17181329954E+03  0.35266457643E+03 -0.47602039000E+03  0.61683670859E+03  0.00000000000E+00 0. -1.
        -13    1    3    3    0    0 -0.72941872583E+02  0.32165359856E+03 -0.34774978037E+03  0.47928223834E+03  0.00000000000E+00 0.  1.
         22    1    1    2    0    0  0.24475517212E+03 -0.67431817499E+03  0.94934936645E+03  0.11899051706E+04  0.00000000000E+00 0.  1.
<mgrwt>
<rscale>  0 0.22825723E+04</rscale>
<asrwt>0</asrwt>
<pdfrwt beam="1">  1        1 0.16618807E+00 0.22825723E+04</pdfrwt>
<pdfrwt beam="2">  1       -1 0.18550795E+00 0.22825723E+04</pdfrwt>
<totfact> 0.22582282E+00</totfact>
</mgrwt>
</event>
<event>
 6    1  0.1780144E-005  0.4415059E+04  0.7818608E-02  0.7925679E-01
         -2   -1    0    0    0  501 -0.00000000000E+00  0.00000000000E+00  0.18305290980E+04  0.18305290980E+04  0.00000000000E+00 0.  1.
          2   -1    0    0  501    0  0.00000000000E+00 -0.00000000000E+00 -0.26621737991E+04  0.26621737991E+04  0.00000000000E+00 0. -1.
         23    2    1    2    0    0  0.30016260965E+03 -0.18839774795E+04 -0.15443741729E+04  0.24561734876E+04  0.90707661932E+02 0.  0.
         11    1    3    3    0    0  0.26114717485E+03 -0.17696201466E+04 -0.14362263359E+04  0.22940138182E+04  0.00000000000E+00 0. -1.
        -11    1    3    3    0    0  0.39015434803E+02 -0.11435733290E+03 -0.10814783702E+03  0.16215966944E+03  0.00000000000E+00 0.  1.
         22    1    1    2    0    0 -0.30016260965E+03  0.18839774795E+04  0.71272947183E+03  0.20365294094E+04  0.00000000000E+00 0.  1.
<mgrwt>
<rscale>  0 0.44150590E+04</rscale>
<asrwt>0</asrwt>
<pdfrwt beam="1">  1        2 0.40956520E+00 0.44150590E+04</pdfrwt>
<pdfrwt beam="2">  1       -2 0.28161986E+00 0.44150590E+04</pdfrwt>
<totfact> 0.87822996E-02</totfact>
</mgrwt>
</event>
<event>
 6    1  0.1780144E-005  0.1160796E+04  0.7818608E-02  0.9147881E-01
         -1   -1    0    0    0  501 -0.00000000000E+00  0.00000000000E+00  0.31611596814E+03  0.31611596814E+03  0.00000000000E+00 0.  1.
          1   -1    0    0  501    0  0.00000000000E+00 -0.00000000000E+00 -0.10656273715E+04  0.10656273715E+04  0.00000000000E+00 0. -1.
         23    2    1    2    0    0  0.20697553985E+03  0.47023955037E+03 -0.65232531683E+02  0.52605549756E+03  0.92276727797E+02 0.  0.
         13    1    3    3    0    0  0.17883438770E+03  0.45408892263E+03 -0.70770542767E+02  0.49313989658E+03  0.00000000000E+00 0. -1.
        -13    1    3    3    0    0  0.28141152153E+02  0.16150627743E+02  0.55380110834E+01  0.32915600978E+02  0.00000000000E+00 0.  1.
         22    1    1    2    0    0 -0.20697553985E+03 -0.47023955037E+03 -0.68427887165E+03  0.85568784204E+03  0.00000000000E+00 0. -1.
<mgrwt>
<rscale>  0 0.11607960E+04</rscale>
<asrwt>0</asrwt>
<pdfrwt beam="1">  1        1 0.16394267E+00 0.11607960E+04</pdfrwt>
<pdfrwt beam="2">  1       -1 0.48633226E-01 0.11607960E+04</pdfrwt>
<totfact> 0.56513486E+01</totfact>
</mgrwt>
</event>
<event>
 6    1  0.1780144E-005  0.3888320E+04  0.7818608E-02  0.8027463E-01
         -2   -1    0    0    0  501 -0.00000000000E+00  0.00000000000E+00  0.32212624574E+04  0.32212624574E+04  0.00000000000E+00 0.  1.
          2   -1    0    0  501    0  0.00000000000E+00 -0.00000000000E+00 -0.11733781711E+04  0.11733781711E+04  0.00000000000E+00 0. -1.
         23    2    1    2    0    0  0.35043984694E+03 -0.19031754083E+04  0.12223756715E+04  0.22907515644E+04  0.91955023221E+02 0.  0.
         11    1    3    3    0    0  0.29746962054E+03 -0.13921856649E+04  0.90218216819E+03  0.16854084862E+04  0.00000000000E+00 0.  1.
        -11    1    3    3    0    0  0.52970226406E+02 -0.51098974338E+03  0.32019350332E+03  0.60534307817E+03  0.00000000000E+00 0. -1.
         22    1    1    2    0    0 -0.35043984694E+03  0.19031754083E+04  0.82550861488E+03  0.21038890641E+04  0.00000000000E+00 0. -1.
<mgrwt>
<rscale>  0 0.38883205E+04</rscale>
<asrwt>0</asrwt>
<pdfrwt beam="1">  1        2 0.18051972E+00 0.38883205E+04</pdfrwt>
<pdfrwt beam="2">  1       -2 0.49557884E+00 0.38883205E+04</pdfrwt>
<totfact> 0.27509896E-02</totfact>
</mgrwt>
</event>
<event>
 6    1  0.1780144E-005  0.2104757E+04  0.7818608E-02  0.8559151E-01
          2   -1    0    0  501    0  0.00000000000E+00  0.00000000000E+00  0.21625786384E+04  0.21625786384E+04  0.00000000000E+00 0. -1.
         -2   -1    0    0    0  501 -0.00000000000E+00 -0.00000000000E+00 -0.51212031127E+03  0.51212031127E+03  0.00000000000E+00 0.  1.
         23    2    1    2    0    0  0.99883582552E+02 -0.43082454062E+03  0.20375033598E+04  0.20869997306E+04  0.92527938953E+02 0.  0.
         13    1    3    3    0    0  0.70939364283E+02 -0.38788743075E+03  0.16733247726E+04  0.17191581797E+04  0.00000000000E+00 0. -1.
        -13    1    3    3    0    0  0.28944218269E+02 -0.42937109870E+02  0.36417858717E+03  0.36784155085E+03  0.00000000000E+00 0.  1.
         22    1    1    2    0    0 -0.99883582552E+02  0.43082454062E+03 -0.38704503262E+03  0.58769921911E+03  0.00000000000E+00 0.  1.
<mgrwt>
<rscale>  0 0.21047569E+04</rscale>
<asrwt>0</asrwt>
<pdfrwt beam="1">  1        2 0.33270440E+00 0.21047569E+04</pdfrwt>
<pdfrwt beam="2">  1       -2 0.78787742E-01 0.21047569E+04</pdfrwt>
<totfact> 0.71421767E+00</totfact>
</mgrwt>
</event>
<event>
 6    1  0.1780144E-005  0.1394992E+04  0.7818608E-02  0.8957452E-01
         -2   -1    0    0    0  501 -0.00000000000E+00  0.00000000000E+00  0.37764735977E+03  0.37764735977E+03  0.00000000000E+00 0.  1.
          2   -1    0    0  501    0  0.00000000000E+00 -0.00000000000E+00 -0.12882404848E+04  0.12882404848E+04  0.00000000000E+00 0. -1.
         23    2    1    2    0    0  0.20864402305E+03 -0.57668392526E+03 -0.67502880667E+02  0.62334391831E+03  0.88906262934E+02 0.  0.
         13    1    3    3    0    0  0.11936970051E+03 -0.33485829349E+03  0.51054966640E+01  0.35553518562E+03  0.00000000000E+00 0. -1.
        -13    1    3    3    0    0  0.89274322539E+02 -0.24182563177E+03 -0.72608377331E+02  0.26780873269E+03  0.00000000000E+00 0.  1.
         22    1    1    2    0    0 -0.20864402305E+03  0.57668392526E+03 -0.84309024436E+03  0.10425439262E+04  0.00000000000E+00 0. -1.
<mgrwt>
<rscale>  0 0.13949919E+04</rscale>
<asrwt>0</asrwt>
<pdfrwt beam="1">  1        2 0.19819085E+00 0.13949919E+04</pdfrwt>
<pdfrwt beam="2">  1       -2 0.58099593E-01 0.13949919E+04</pdfrwt>
<totfact> 0.45325456E+01</totfact>
</mgrwt>
</event>
<event>
 6    1  0.1780144E-005  0.1484707E+04  0.7818608E-02  0.8894687E-01
          1   -1    0    0  501    0  0.00000000000E+00  0.00000000000E+00  0.24692131481E+04  0.24692131481E+04  0.00000000000E+00 0. -1.
         -1   -1    0    0    0  501 -0.00000000000E+00 -0.00000000000E+00 -0.22318390816E+03  0.22318390816E+03  0.00000000000E+00 0.  1.
         23    2    1    2    0    0  0.29139233589E+03 -0.60015361856E+03  0.55183503072E+03  0.87157639573E+03  0.10014815618E+03 0.  0.
         11    1    3    3    0    0  0.23416040794E+03 -0.55278811451E+03  0.49139521698E+03  0.77580606820E+03  0.00000000000E+00 0.  1.
        -11    1    3    3    0    0  0.57231927943E+02 -0.47365504048E+02  0.60439813742E+02  0.95770327529E+02  0.00000000000E+00 0. -1.
         22    1    1    2    0    0 -0.29139233589E+03  0.60015361856E+03  0.16941942092E+04  0.18208206605E+04  0.00000000000E+00 0. -1.
<mgrwt>
<rscale>  0 0.14847069E+04</rscale>
<asrwt>0</asrwt>
<pdfrwt beam="1">  1        1 0.37987893E+00 0.14847069E+04</pdfrwt>
<pdfrwt beam="2">  1       -1 0.34335988E-01 0.14847069E+04</pdfrwt>
<totfact> 0.11097317E+01</totfact>
</mgrwt>
</event>
<event>
 6    1  0.1780144E-005  0.2344235E+03  0.7818608E-02  0.1123564E+00
         -2   -1    0    0    0  501 -0.00000000000E+00  0.00000000000E+00  0.20190163240E+02  0.20190163240E+02  0.00000000000E+00 0.  1.
          2   -1    0    0  501    0  0.00000000000E+00 -0.00000000000E+00 -0.68045977671E+03  0.68045977671E+03  0.00000000000E+00 0. -1.
         23    2    1    2    0    0 -0.93423802385E+02  0.19121644354E+02 -0.28848718771E+03  0.31683251430E+03  0.89801673179E+02 0.  0.
         11    1    3    3    0    0 -0.10659364583E+03  0.22603969696E+01 -0.21046034044E+03  0.23592555949E+03  0.00000000000E+00 0. -1.
        -11    1    3    3    0    0  0.13169843443E+02  0.16861247384E+02 -0.78026847277E+02  0.80906954804E+02  0.00000000000E+00 0.  1.
         22    1    1    2    0    0  0.93423802385E+02 -0.19121644354E+02 -0.37178242576E+03  0.38381742566E+03  0.00000000000E+00 0. -1.
<mgrwt>
<rscale>  0 0.23442350E+03</rscale>
<asrwt>0</asrwt>
<pdfrwt beam="1">  1        2 0.10468612E+00 0.23442350E+03</pdfrwt>
<pdfrwt beam="2">  1       -2 0.31061789E-02 0.23442350E+03</pdfrwt>
<totfact> 0.17208814E+04</totfact>
</mgrwt>
</event>
<event>
 6    1  0.1780144E-005  0.4430212E+04  0.7818608E-02  0.7922970E-01
          2   -1    0    0  501    0  0.00000000000E+00  0.00000000000E+00  0.22373374461E+04  0.22373374461E+04  0.00000000000E+00 0. -1.
         -2   -1    0    0    0  501 -0.00000000000E+00 -0.00000000000E+00 -0.21930956722E+04  0.21930956722E+04  0.00000000000E+00 0.  1.
         23    2    1    2    0    0 -0.14327023413E+04 -0.93800911656E+03  0.14258018538E+04  0.22301591908E+04  0.90564831134E+02 0.  0.
         11    1    3    3    0    0 -0.78847692368E+03 -0.54946562621E+03  0.75367673087E+03  0.12213258976E+04  0.00000000000E+00 0.  1.
        -11    1    3    3    0    0 -0.64422541758E+03 -0.38854349035E+03  0.67212512298E+03  0.10088332932E+04  0.00000000000E+00 0. -1.
         22    1    1    2    0    0  0.14327023413E+04  0.93800911656E+03 -0.13815600799E+04  0.22002739274E+04  0.00000000000E+00 0.  1.
<mgrwt>
<rscale>  0 0.44302122E+04</rscale>
<asrwt>0</asrwt>
<pdfrwt beam="1">  1        2 0.34420576E+00 0.44302122E+04</pdfrwt>
<pdfrwt beam="2">  1       -2 0.33739934E+00 0.44302122E+04</pdfrwt>
<totfact> 0.69974271E-02</totfact>
</mgrwt>
</event>
<event>
 6    1  0.1780144E-005  0.5226277E+04  0.7818608E-02  0.7794519E-01
          2   -1    0    0  501    0  0.00000000000E+00  0.00000000000E+00  0.29522346439E+04  0.29522346439E+04  0.00000000000E+00 0. -1.
         -2   -1    0    0    0  501 -0.00000000000E+00 -0.00000000000E+00 -0.23129908696E+04  0.23129908696E+04  0.00000000000E+00 0.  1.
         23    2    1    2    0    0  0.13595003704E+04  0.16997913342E+04  0.17750207863E+04  0.28101244448E+04  0.92567631276E+02 0.  0.
         11    1    3    3    0    0  0.29822473377E+03  0.35119518949E+03  0.42205103221E+03  0.62482247618E+03  0.00000000000E+00 0.  1.
        -11    1    3    3    0    0  0.10612756366E+04  0.13485961447E+04  0.13529697541E+04  0.21853019686E+04  0.00000000000E+00 0. -1.
         22    1    1    2    0    0 -0.13595003704E+04 -0.16997913342E+04 -0.11357770119E+04  0.24551010687E+04  0.00000000000E+00 0.  1.
<mgrwt>
<rscale>  0 0.52262766E+04</rscale>
<asrwt>0</asrwt>
<pdfrwt beam="1">  1        2 0.45418995E+00 0.52262766E+04</pdfrwt>
<pdfrwt beam="2">  1       -2 0.35584475E+00 0.52262766E+04</pdfrwt>
<totfact> 0.19052228E-02</totfact>
</mgrwt>
</event>
<event>
 6    1  0.1780144E-005  0.8031416E+03  0.7818608E-02  0.9555481E-01
          2   -1    0    0  501    0  0.00000000000E+00  0.00000000000E+00  0.16303574900E+04  0.16303574900E+04  0.00000000000E+00 0.  1.
         -2   -1    0    0    0  501 -0.00000000000E+00 -0.00000000000E+00 -0.98910262916E+02  0.98910262916E+02  0.00000000000E+00 0. -1.
         23    2    1    2    0    0 -0.35405968810E+03  0.15664988853E+03  0.95643870386E+03  0.10360634165E+04  0.93567934439E+02 0.  0.
         13    1    3    3    0    0 -0.17694730717E+03  0.50179199517E+02  0.55289785194E+03  0.58268716843E+03  0.00000000000E+00 0. -1.
        -13    1    3    3    0    0 -0.17711238093E+03  0.10647068902E+03  0.40354085192E+03  0.45337624802E+03  0.00000000000E+00 0.  1.
         22    1    1    2    0    0  0.35405968810E+03 -0.15664988853E+03  0.57500852324E+03  0.69320433648E+03  0.00000000000E+00 0. -1.
<mgrwt>
<rscale>  0 0.80314155E+03</rscale>
<asrwt>0</asrwt>
<pdfrwt beam="1">  1        2 0.25082421E+00 0.80314155E+03</pdfrwt>
<pdfrwt beam="2">  1       -2 0.15216965E-01 0.80314155E+03</pdfrwt>
<totfact> 0.37101066E+02</totfact>
</mgrwt>
</event>
<event>
 6    1  0.1780144E-005  0.2159966E+04  0.7818608E-02  0.8535278E-01
          2   -1    0    0  501    0  0.00000000000E+00  0.00000000000E+00  0.20868870485E+04  0.20868870485E+04  0.00000000000E+00 0. -1.
         -2   -1    0    0    0  501 -0.00000000000E+00 -0.00000000000E+00 -0.55890104256E+03  0.55890104256E+03  0.00000000000E+00 0.  1.
         23    2    1    2    0    0  0.54581222711E+03  0.89803720108E+03  0.10595916103E+04  0.14952338283E+04  0.92779409620E+02 0.  0.
         13    1    3    3    0    0  0.35326203262E+03  0.52118085156E+03  0.68018023207E+03  0.92685958582E+03  0.00000000000E+00 0. -1.
        -13    1    3    3    0    0  0.19255019449E+03  0.37685634951E+03  0.37941137821E+03  0.56837424245E+03  0.00000000000E+00 0.  1.
         22    1    1    2    0    0 -0.54581222711E+03 -0.89803720108E+03  0.46839439568E+03  0.11505542628E+04  0.00000000000E+00 0.  1.
<mgrwt>
<rscale>  0 0.21599661E+04</rscale>
<asrwt>0</asrwt>
<pdfrwt beam="1">  1        2 0.32105954E+00 0.21599661E+04</pdfrwt>
<pdfrwt beam="2">  1       -2 0.85984777E-01 0.21599661E+04</pdfrwt>
<totfact> 0.64310593E+00</totfact>
</mgrwt>
</event>
<event>
 6    1  0.1780144E-005  0.1747572E+04  0.7818608E-02  0.8734688E-01
          1   -1    0    0  501    0  0.00000000000E+00  0.00000000000E+00  0.42332326806E+03  0.42332326806E+03  0.00000000000E+00 0. -1.
         -1   -1    0    0    0  501 -0.00000000000E+00 -0.00000000000E+00 -0.18035900128E+04  0.18035900128E+04  0.00000000000E+00 0.  1.
         23    2    1    2    0    0  0.22040671890E+03  0.51611823441E+03  0.15780891887E+03  0.58964912972E+03  0.88460656128E+02 0.  0.
         13    1    3    3    0    0  0.81745593162E+02  0.15959188385E+03  0.91841133737E+02  0.20146142370E+03  0.00000000000E+00 0. -1.
        -13    1    3    3    0    0  0.13866112573E+03  0.35652635056E+03  0.65967785129E+02  0.38818770602E+03  0.00000000000E+00 0.  1.
         22    1    1    2    0    0 -0.22040671890E+03 -0.51611823441E+03 -0.15380756636E+04  0.16372641511E+04  0.00000000000E+00 0. -1.
<mgrwt>
<rscale>  0 0.17475716E+04</rscale>
<asrwt>0</asrwt>
<pdfrwt beam="1">  1        1 0.65126656E-01 0.17475716E+04</pdfrwt>
<pdfrwt beam="2">  1       -1 0.27747539E+00 0.17475716E+04</pdfrwt>
<totfact> 0.24376341E+00</totfact>
</mgrwt>
</event>
<event>
 6    1  0.1780144E-005  0.2756923E+04  0.7818608E-02  0.8316768E-01
          3   -1    0    0  501    0  0.00000000000E+00  0.00000000000E+00  0.25402056039E+04  0.25402056039E+04  0.00000000000E+00 0. -1.
         -3   -1    0    0    0  501 -0.00000000000E+00 -0.00000000000E+00 -0.74803249373E+03  0.74803249373E+03  0.00000000000E+00 0.  1.
         23    2    1    2    0    0  0.11911803173E+04  0.47430689647E+03  0.29865315778E+03  0.13198683588E+04  0.94769169457E+02 0.  0.
         11    1    3    3    0    0  0.41794665727E+03  0.11823216512E+03  0.98933786488E+02  0.44547294789E+03  0.00000000000E+00 0.  1.
        -11    1    3    3    0    0  0.77323366008E+03  0.35607473135E+03  0.19971937129E+03  0.87439541093E+03  0.00000000000E+00 0. -1.
         22    1    1    2    0    0 -0.11911803173E+04 -0.47430689647E+03  0.14935199524E+04  0.19683697388E+04  0.00000000000E+00 0. -1.
<mgrwt>
<rscale>  0 0.27569232E+04</rscale>
<asrwt>0</asrwt>
<pdfrwt beam="1">  1        3 0.39080086E+00 0.27569232E+04</pdfrwt>
<pdfrwt beam="2">  1       -3 0.11508192E+00 0.27569232E+04</pdfrwt>
<totfact> 0.17696198E-02</totfact>
</mgrwt>
</event>
<event>
 6    1  0.1780144E-005  0.2479845E+04  0.7818608E-02  0.8410201E-01
          1   -1    0    0  501    0  0.00000000000E+00  0.00000000000E+00  0.16408339616E+04  0.16408339616E+04  0.00000000000E+00 0. -1.
         -1   -1    0    0    0  501 -0.00000000000E+00 -0.00000000000E+00 -0.93696714795E+03  0.93696714795E+03  0.00000000000E+00 0.  1.
         23    2    1    2    0    0  0.32686815614E+03  0.65669652782E+03  0.13895235417E+04  0.15737003826E+04  0.87544846338E+02 0.  0.
         11    1    3    3    0    0  0.16380335139E+03  0.29332000305E+03  0.72298757205E+03  0.79723220673E+03  0.00000000000E+00 0.  1.
        -11    1    3    3    0    0  0.16306480475E+03  0.36337652477E+03  0.66653596966E+03  0.77646817588E+03  0.00000000000E+00 0. -1.
         22    1    1    2    0    0 -0.32686815614E+03 -0.65669652782E+03 -0.68565672804E+03  0.10041007269E+04  0.00000000000E+00 0.  1.
<mgrwt>
<rscale>  0 0.24798448E+04</rscale>
<asrwt>0</asrwt>
<pdfrwt beam="1">  1        1 0.25243599E+00 0.24798448E+04</pdfrwt>
<pdfrwt beam="2">  1       -1 0.14414879E+00 0.24798448E+04</pdfrwt>
<totfact> 0.18069050E+00</totfact>
</mgrwt>
</event>
<event>
 6    1  0.1780144E-005  0.3006366E+04  0.7818608E-02  0.8241915E-01
         -2   -1    0    0    0  501 -0.00000000000E+00  0.00000000000E+00  0.97661396433E+03  0.97661396433E+03  0.00000000000E+00 0.  1.
          2   -1    0    0  501    0  0.00000000000E+00 -0.00000000000E+00 -0.23136667314E+04  0.23136667314E+04  0.00000000000E+00 0. -1.
         23    2    1    2    0    0  0.53753119926E+03  0.28295360653E+03  0.83402460293E+03  0.10358230048E+04  0.91267329262E+02 0.  0.
         13    1    3    3    0    0  0.21240101151E+03  0.10961978348E+03  0.25496905285E+03  0.34948519930E+03  0.00000000000E+00 0. -1.
        -13    1    3    3    0    0  0.32513018775E+03  0.17333382305E+03  0.57905555008E+03  0.68633780552E+03  0.00000000000E+00 0.  1.
         22    1    1    2    0    0 -0.53753119926E+03 -0.28295360653E+03 -0.21710773699E+04  0.22544576909E+04  0.00000000000E+00 0. -1.
<mgrwt>
<rscale>  0 0.30063661E+04</rscale>
<asrwt>0</asrwt>
<pdfrwt beam="1">  1        2 0.35594873E+00 0.30063661E+04</pdfrwt>
<pdfrwt beam="2">  1       -2 0.15024830E+00 0.30063661E+04</pdfrwt>
<totfact> 0.11364712E+00</totfact>
</mgrwt>
</event>
<event>
 6    1  0.1780144E-005  0.2467605E+04  0.7818608E-02  0.8414618E-01
          2   -1    0    0  501    0  0.00000000000E+00  0.00000000000E+00  0.10015728557E+04  0.10015728557E+04  0.00000000000E+00 0. -1.
         -2   -1    0    0    0  501 -0.00000000000E+00 -0.00000000000E+00 -0.15198775268E+04  0.15198775268E+04  0.00000000000E+00 0.  1.
         23    2    1    2    0    0  0.76097732891E+03  0.82527870371E+03  0.25966532903E+03  0.11556507065E+04  0.89056378278E+02 0.  0.
         11    1    3    3    0    0  0.42442888585E+03  0.51808905278E+03  0.13460774539E+03  0.68313643650E+03  0.00000000000E+00 0. -1.
        -11    1    3    3    0    0  0.33654844306E+03  0.30718965093E+03  0.12505758364E+03  0.47251427004E+03  0.00000000000E+00 0.  1.
         22    1    1    2    0    0 -0.76097732891E+03 -0.82527870371E+03 -0.77797000014E+03  0.13657996760E+04  0.00000000000E+00 0.  1.
<mgrwt>
<rscale>  0 0.24676046E+04</rscale>
<asrwt>0</asrwt>
<pdfrwt beam="1">  1        2 0.15408813E+00 0.24676046E+04</pdfrwt>
<pdfrwt beam="2">  1       -2 0.23382731E+00 0.24676046E+04</pdfrwt>
<totfact> 0.18181224E+00</totfact>
</mgrwt>
</event>
<event>
 6    1  0.1780144E-005  0.2001320E+04  0.7818608E-02  0.8606004E-01
          1   -1    0    0  501    0  0.00000000000E+00  0.00000000000E+00  0.14480995569E+04  0.14480995569E+04  0.00000000000E+00 0. -1.
         -1   -1    0    0    0  501 -0.00000000000E+00 -0.00000000000E+00 -0.69147230239E+03  0.69147230239E+03  0.00000000000E+00 0.  1.
         23    2    1    2    0    0  0.88655736875E+03  0.32477354585E+03  0.72656475107E+03  0.11949208241E+04  0.92073960266E+02 0.  0.
         11    1    3    3    0    0  0.19871858283E+03  0.11471174683E+03  0.17520927033E+03  0.28869733014E+03  0.00000000000E+00 0.  1.
        -11    1    3    3    0    0  0.68783878592E+03  0.21006179902E+03  0.55135548074E+03  0.90622349394E+03  0.00000000000E+00 0. -1.
         22    1    1    2    0    0 -0.88655736875E+03 -0.32477354585E+03  0.30062503409E+02  0.94465103518E+03  0.00000000000E+00 0.  1.
<mgrwt>
<rscale>  0 0.20013203E+04</rscale>
<asrwt>0</asrwt>
<pdfrwt beam="1">  1        1 0.22278455E+00 0.20013203E+04</pdfrwt>
<pdfrwt beam="2">  1       -1 0.10638035E+00 0.20013203E+04</pdfrwt>
<totfact> 0.54450366E+00</totfact>
</mgrwt>
</event>
<event>
 6    1  0.1780144E-005  0.2250406E+04  0.7818608E-02  0.8497736E-01
         -2   -1    0    0    0  501 -0.00000000000E+00  0.00000000000E+00  0.79488998744E+03  0.79488998744E+03  0.00000000000E+00 0.  1.
          2   -1    0    0  501    0  0.00000000000E+00 -0.00000000000E+00 -0.15927759383E+04  0.15927759383E+04  0.00000000000E+00 0. -1.
         23    2    1    2    0    0 -0.78089271220E+03 -0.80865855334E+03 -0.39460832723E+03  0.11933649061E+04  0.68425019891E+02 0.  0.
         13    1    3    3    0    0 -0.29828797960E+03 -0.31535531599E+03 -0.18751191447E+03  0.47284819145E+03  0.00000000000E+00 0. -1.
        -13    1    3    3    0    0 -0.48260473261E+03 -0.49330323735E+03 -0.20709641276E+03  0.72051671465E+03  0.00000000000E+00 0.  1.
         22    1    1    2    0    0  0.78089271220E+03  0.80865855334E+03 -0.40327762367E+03  0.11943010197E+04  0.00000000000E+00 0.  1.
<mgrwt>
<rscale>  0 0.22504059E+04</rscale>
<asrwt>0</asrwt>
<pdfrwt beam="1">  1        2 0.24504245E+00 0.22504059E+04</pdfrwt>
<pdfrwt beam="2">  1       -2 0.12229077E+00 0.22504059E+04</pdfrwt>
<totfact> 0.51910462E+00</totfact>
</mgrwt>
</event>
<event>
 6    1  0.1780144E-005  0.6295816E+03  0.7818608E-02  0.9845866E-01
          2   -1    0    0  501    0  0.00000000000E+00  0.00000000000E+00  0.42202836153E+03  0.42202836153E+03  0.00000000000E+00 0.  1.
         -2   -1    0    0    0  501 -0.00000000000E+00 -0.00000000000E+00 -0.23480236367E+03  0.23480236367E+03  0.00000000000E+00 0. -1.
         23    2    1    2    0    0 -0.19890184384E+02  0.19060660348E+03  0.34740571061E+03  0.40706275867E+03  0.91010246717E+02 0.  0.
         11    1    3    3    0    0  0.33847332816E+02  0.48684623243E+02  0.11706359682E+03  0.13122393143E+03  0.00000000000E+00 0. -1.
        -11    1    3    3    0    0 -0.53737517201E+02  0.14192198024E+03  0.23034211378E+03  0.27583882724E+03  0.00000000000E+00 0.  1.
         22    1    1    2    0    0  0.19890184384E+02 -0.19060660348E+03 -0.16017971275E+03  0.24976796652E+03  0.00000000000E+00 0. -1.
<mgrwt>
<rscale>  0 0.62958163E+03</rscale>
<asrwt>0</asrwt>
<pdfrwt beam="1">  1        2 0.64927440E-01 0.62958163E+03</pdfrwt>
<pdfrwt beam="2">  1       -2 0.36123441E-01 0.62958163E+03</pdfrwt>
<totfact> 0.54342921E+02</totfact>
</mgrwt>
</event>
<event>
 6    1  0.1780144E-005  0.2574395E+04  0.7818608E-02  0.8376951E-01
          1   -1    0    0  501    0  0.00000000000E+00  0.00000000000E+00  0.36262244668E+04  0.36262244668E+04  0.00000000000E+00 0. -1.
         -1   -1    0    0    0  501 -0.00000000000E+00 -0.00000000000E+00 -0.45691526493E+03  0.45691526493E+03  0.00000000000E+00 0.  1.
         23    2    1    2    0    0  0.48634421598E+03  0.26008222485E+03  0.34285033552E+04  0.34737506367E+04  0.90192956884E+02 0.  0.
         13    1    3    3    0    0  0.29560259142E+03  0.15149420081E+03  0.17832589854E+04  0.18139305372E+04  0.00000000000E+00 0.  1.
        -13    1    3    3    0    0  0.19074162456E+03  0.10858802404E+03  0.16452443698E+04  0.16598200995E+04  0.00000000000E+00 0. -1.
         22    1    1    2    0    0 -0.48634421598E+03 -0.26008222485E+03 -0.25919415326E+03  0.60938909506E+03  0.00000000000E+00 0.  1.
<mgrwt>
<rscale>  0 0.25743949E+04</rscale>
<asrwt>0</asrwt>
<pdfrwt beam="1">  1        1 0.55788067E+00 0.25743949E+04</pdfrwt>
<pdfrwt beam="2">  1       -1 0.70294659E-01 0.25743949E+04</pdfrwt>
<totfact> 0.35804112E-01</totfact>
</mgrwt>
</event>
<event>
 6    1  0.1780144E-005  0.1780845E+04  0.7818608E-02  0.8716553E-01
          1   -1    0    0  501    0  0.00000000000E+00  0.00000000000E+00  0.22078269648E+04  0.22078269648E+04  0.00000000000E+00 0. -1.
         -1   -1    0    0    0  501 -0.00000000000E+00 -0.00000000000E+00 -0.35910988534E+03  0.35910988534E+03  0.00000000000E+00 0.  1.
         23    2    1    2    0    0  0.63427811167E+03  0.60782076153E+03  0.73853014567E+03  0.11512144801E+04  0.90073314597E+02 0.  0.
         11    1    3    3    0    0  0.18394184603E+03  0.12314879544E+03  0.17616727060E+03  0.28290481751E+03  0.00000000000E+00 0.  1.
        -11    1    3    3    0    0  0.45033626564E+03  0.48467196609E+03  0.56236287507E+03  0.86830966258E+03  0.00000000000E+00 0. -1.
         22    1    1    2    0    0 -0.63427811167E+03 -0.60782076153E+03  0.11101869338E+04  0.14157223700E+04  0.00000000000E+00 0. -1.
<mgrwt>
<rscale>  0 0.17808453E+04</rscale>
<asrwt>0</asrwt>
<pdfrwt beam="1">  1        1 0.33966568E+00 0.17808453E+04</pdfrwt>
<pdfrwt beam="2">  1       -1 0.55247676E-01 0.17808453E+04</pdfrwt>
<totfact> 0.67392954E+00</totfact>
</mgrwt>
</event>
<event>
 6    1  0.1780144E-005  0.2390996E+04  0.7818608E-02  0.8442882E-01
          2   -1    0    0  501    0  0.00000000000E+00  0.00000000000E+00  0.84787374274E+03  0.84787374274E+03  0.00000000000E+00 0. -1.
         -2   -1    0    0    0  501 -0.00000000000E+00 -0.00000000000E+00 -0.16856470960E+04  0.16856470960E+04  0.00000000000E+00 0.  1.
         23    2    1    2    0    0  0.27416371759E+03 -0.10585640597E+04  0.88108887379E+02  0.11006979132E+04  0.89716818146E+02 0.  0.
         13    1    3    3    0    0  0.24455236720E+03 -0.10083499856E+04  0.95357231751E+02  0.10419542003E+04  0.00000000000E+00 0. -1.
        -13    1    3    3    0    0  0.29611350397E+02 -0.50214074068E+02 -0.72483443716E+01  0.58743712881E+02  0.00000000000E+00 0.  1.
         22    1    1    2    0    0 -0.27416371759E+03  0.10585640597E+04 -0.92588224065E+03  0.14328229256E+04  0.00000000000E+00 0.  1.
<mgrwt>
<rscale>  0 0.23909964E+04</rscale>
<asrwt>0</asrwt>
<pdfrwt beam="1">  1        2 0.13044211E+00 0.23909964E+04</pdfrwt>
<pdfrwt beam="2">  1       -2 0.25933032E+00 0.23909964E+04</pdfrwt>
<totfact> 0.16139966E+00</totfact>
</mgrwt>
</event>
<event>
 6    1  0.1780144E-005  0.6192791E+04  0.7818608E-02  0.7666947E-01
          1   -1    0    0  501    0  0.00000000000E+00  0.00000000000E+00  0.22501621056E+04  0.22501621056E+04  0.00000000000E+00 0. -1.
         -1   -1    0    0    0  501 -0.00000000000E+00 -0.00000000000E+00 -0.42608779418E+04  0.42608779418E+04  0.00000000000E+00 0.  1.
         23    2    1    2    0    0  0.23850413785E+04  0.11952018985E+04 -0.26567424099E+04  0.37661756994E+04  0.94176486545E+02 0.  0.
         13    1    3    3    0    0  0.41546490722E+03  0.19184670824E+03 -0.41092479739E+03  0.61504100489E+03  0.00000000000E+00 0.  1.
        -13    1    3    3    0    0  0.19695764713E+04  0.10033551903E+04 -0.22458176126E+04  0.31511346945E+04  0.00000000000E+00 0. -1.
         22    1    1    2    0    0 -0.23850413785E+04 -0.11952018985E+04  0.64602657371E+03  0.27448643480E+04  0.00000000000E+00 0. -1.
<mgrwt>
<rscale>  0 0.61927913E+04</rscale>
<asrwt>0</asrwt>
<pdfrwt beam="1">  1        1 0.34617879E+00 0.61927913E+04</pdfrwt>
<pdfrwt beam="2">  1       -1 0.65551968E+00 0.61927913E+04</pdfrwt>
<totfact> 0.38079559E-04</totfact>
</mgrwt>
</event>
<event>
 6    1  0.1780144E-005  0.1685571E+04  0.7818608E-02  0.8769637E-01
         -1   -1    0    0    0  501 -0.00000000000E+00  0.00000000000E+00  0.34974114544E+03  0.34974114544E+03  0.00000000000E+00 0.  1.
          1   -1    0    0  501    0  0.00000000000E+00 -0.00000000000E+00 -0.20308945531E+04  0.20308945531E+04  0.00000000000E+00 0. -1.
         23    2    1    2    0    0 -0.16396172426E+03 -0.82293229376E+03 -0.91175523803E+03  0.12421829984E+04  0.87292497898E+02 0.  0.
         13    1    3    3    0    0 -0.12263292599E+03 -0.67700860161E+03 -0.69804147450E+03  0.98012314599E+03  0.00000000000E+00 0.  1.
        -13    1    3    3    0    0 -0.41328798271E+02 -0.14592369215E+03 -0.21371376353E+03  0.26205985236E+03  0.00000000000E+00 0. -1.
         22    1    1    2    0    0  0.16396172426E+03  0.82293229376E+03 -0.76939816963E+03  0.11384527002E+04  0.00000000000E+00 0.  1.
<mgrwt>
<rscale>  0 0.16855710E+04</rscale>
<asrwt>0</asrwt>
<pdfrwt beam="1">  1        1 0.31244532E+00 0.16855710E+04</pdfrwt>
<pdfrwt beam="2">  1       -1 0.53806329E-01 0.16855710E+04</pdfrwt>
<totfact> 0.94348750E+00</totfact>
</mgrwt>
</event>
<event>
 6    1  0.1780144E-005  0.2388106E+04  0.7818608E-02  0.8443970E-01
          1   -1    0    0  501    0  0.00000000000E+00  0.00000000000E+00  0.10435459319E+04  0.10435459319E+04  0.00000000000E+00 0. -1.
         -1   -1    0    0    0  501 -0.00000000000E+00 -0.00000000000E+00 -0.13662671434E+04  0.13662671434E+04  0.00000000000E+00 0.  1.
         23    2    1    2    0    0 -0.43634309154E+03 -0.95544866196E+03 -0.73079967303E+03  0.12829566204E+04  0.92909033627E+02 0.  0.
         11    1    3    3    0    0 -0.12816718724E+03 -0.32586728152E+03 -0.19608069000E+03  0.40132773396E+03  0.00000000000E+00 0. -1.
        -11    1    3    3    0    0 -0.30817590430E+03 -0.62958138044E+03 -0.53471898302E+03  0.88162888643E+03  0.00000000000E+00 0.  1.
         22    1    1    2    0    0  0.43634309154E+03  0.95544866196E+03  0.40807846159E+03  0.11268564549E+04  0.00000000000E+00 0. -1.
<mgrwt>
<rscale>  0 0.23881060E+04</rscale>
<asrwt>0</asrwt>
<pdfrwt beam="1">  1        1 0.16054553E+00 0.23881060E+04</pdfrwt>
<pdfrwt beam="2">  1       -1 0.21019494E+00 0.23881060E+04</pdfrwt>
<totfact> 0.16093719E+00</totfact>
</mgrwt>
</event>
<event>
 6    1  0.1780144E-005  0.1903004E+04  0.7818608E-02  0.8653363E-01
         -2   -1    0    0    0  501 -0.00000000000E+00  0.00000000000E+00  0.44936970298E+03  0.44936970298E+03  0.00000000000E+00 0.  1.
          2   -1    0    0  501    0  0.00000000000E+00 -0.00000000000E+00 -0.20147239015E+04  0.20147239015E+04  0.00000000000E+00 0. -1.
         23    2    1    2    0    0  0.83973831681E+03 -0.29402975070E+03 -0.35562783122E+03  0.96241060905E+03  0.90272316165E+02 0.  0.
         13    1    3    3    0    0  0.28099106160E+03 -0.70358541430E+02 -0.15143409040E+03  0.32686172120E+03  0.00000000000E+00 0.  1.
        -13    1    3    3    0    0  0.55874725521E+03 -0.22367120927E+03 -0.20419374082E+03  0.63554888786E+03  0.00000000000E+00 0. -1.
         22    1    1    2    0    0 -0.83973831681E+03  0.29402975070E+03 -0.12097263673E+04  0.15016829954E+04  0.00000000000E+00 0. -1.
<mgrwt>
<rscale>  0 0.19030038E+04</rscale>
<asrwt>0</asrwt>
<pdfrwt beam="1">  1        2 0.30995753E+00 0.19030038E+04</pdfrwt>
<pdfrwt beam="2">  1       -2 0.69133800E-01 0.19030038E+04</pdfrwt>
<totfact> 0.11725640E+01</totfact>
</mgrwt>
</event>
<event>
 6    1  0.1780144E-005  0.3178221E+04  0.7818608E-02  0.8194593E-01
          2   -1    0    0  501    0  0.00000000000E+00  0.00000000000E+00  0.34226222560E+04  0.34226222560E+04  0.00000000000E+00 0. -1.
         -2   -1    0    0    0  501 -0.00000000000E+00 -0.00000000000E+00 -0.73781796903E+03  0.73781796903E+03  0.00000000000E+00 0.  1.
         23    2    1    2    0    0  0.12785224834E+04 -0.85447893143E+03  0.82616810098E+03  0.17481213289E+04  0.92846457617E+02 0.  0.
         11    1    3    3    0    0  0.27306147807E+03 -0.13825154708E+03  0.16875180080E+03  0.34950426514E+03  0.00000000000E+00 0. -1.
        -11    1    3    3    0    0  0.10054610053E+04 -0.71622738434E+03  0.65741630018E+03  0.13986170638E+04  0.00000000000E+00 0.  1.
         22    1    1    2    0    0 -0.12785224834E+04  0.85447893143E+03  0.18586361860E+04  0.24123188962E+04  0.00000000000E+00 0. -1.
<mgrwt>
<rscale>  0 0.31782210E+04</rscale>
<asrwt>0</asrwt>
<pdfrwt beam="1">  1        2 0.52655726E+00 0.31782210E+04</pdfrwt>
<pdfrwt beam="2">  1       -2 0.11351046E+00 0.31782210E+04</pdfrwt>
<totfact> 0.47184855E-01</totfact>
</mgrwt>
</event>
<event>
 6    1  0.1780144E-005  0.3241212E+04  0.7818608E-02  0.8178017E-01
         -1   -1    0    0    0  501 -0.00000000000E+00  0.00000000000E+00  0.95382128447E+03  0.95382128447E+03  0.00000000000E+00 0.  1.
          1   -1    0    0  501    0  0.00000000000E+00 -0.00000000000E+00 -0.27535171531E+04  0.27535171531E+04  0.00000000000E+00 0. -1.
         23    2    1    2    0    0  0.31537558771E+03 -0.36538418659E+03  0.86695728917E+03  0.99735570163E+03  0.10067814650E+03 0.  0.
         11    1    3    3    0    0  0.20651323213E+03 -0.22798434401E+03  0.45046096097E+03  0.54547195484E+03  0.00000000000E+00 0.  1.
        -11    1    3    3    0    0  0.10886235558E+03 -0.13739984258E+03  0.41649632820E+03  0.45188374678E+03  0.00000000000E+00 0. -1.
         22    1    1    2    0    0 -0.31537558771E+03  0.36538418659E+03 -0.26666531578E+04  0.27099827359E+04  0.00000000000E+00 0. -1.
<mgrwt>
<rscale>  0 0.32412117E+04</rscale>
<asrwt>0</asrwt>
<pdfrwt beam="1">  1        1 0.42361802E+00 0.32412117E+04</pdfrwt>
<pdfrwt beam="2">  1       -1 0.14674174E+00 0.32412117E+04</pdfrwt>
<totfact> 0.27735437E-01</totfact>
</mgrwt>
</event>
<event>
 6    1  0.1780144E-005  0.1212574E+04  0.7818608E-02  0.9101922E-01
          4   -1    0    0  501    0  0.00000000000E+00  0.00000000000E+00  0.16681676995E+04  0.16681676995E+04  0.00000000000E+00 0. -1.
         -4   -1    0    0    0  501 -0.00000000000E+00 -0.00000000000E+00 -0.22035177226E+03  0.22035177226E+03  0.00000000000E+00 0.  1.
         23    2    1    2    0    0  0.73087920169E+02  0.59220773038E+03  0.86196523729E+03  0.10522941009E+04  0.91032765618E+02 0.  0.
         13    1    3    3    0    0  0.20142909943E+01  0.61369629666E+02  0.48022471342E+02  0.77951565522E+02  0.00000000000E+00 0.  1.
        -13    1    3    3    0    0  0.71073629174E+02  0.53083810071E+03  0.81394276595E+03  0.97434253534E+03  0.00000000000E+00 0. -1.
         22    1    1    2    0    0 -0.73087920169E+02 -0.59220773038E+03  0.58585068993E+03  0.83622537087E+03  0.00000000000E+00 0.  1.
<mgrwt>
<rscale>  0 0.12125736E+04</rscale>
<asrwt>0</asrwt>
<pdfrwt beam="1">  1        4 0.25664118E+00 0.12125736E+04</pdfrwt>
<pdfrwt beam="2">  1       -4 0.33900274E-01 0.12125736E+04</pdfrwt>
<totfact> 0.96439137E-01</totfact>
</mgrwt>
</event>
<event>
 6    1  0.1780144E-005  0.1125414E+04  0.7818608E-02  0.9180769E-01
          2   -1    0    0  501    0  0.00000000000E+00  0.00000000000E+00  0.13025427136E+04  0.13025427136E+04  0.00000000000E+00 0. -1.
         -2   -1    0    0    0  501 -0.00000000000E+00 -0.00000000000E+00 -0.24309323345E+03  0.24309323345E+03  0.00000000000E+00 0.  1.
         23    2    1    2    0    0  0.54318871341E+03 -0.10230213279E+03  0.41810298420E+03  0.69896893303E+03  0.90706996413E+02 0.  0.
         13    1    3    3    0    0  0.22683237231E+03 -0.14710753971E+02  0.12788668117E+03  0.26081475156E+03  0.00000000000E+00 0. -1.
        -13    1    3    3    0    0  0.31635634110E+03 -0.87591378820E+02  0.29021630303E+03  0.43815418147E+03  0.00000000000E+00 0.  1.
         22    1    1    2    0    0 -0.54318871341E+03  0.10230213279E+03  0.64134649596E+03  0.84666701402E+03  0.00000000000E+00 0. -1.
<mgrwt>
<rscale>  0 0.11254143E+04</rscale>
<asrwt>0</asrwt>
<pdfrwt beam="1">  1        2 0.20039118E+00 0.11254143E+04</pdfrwt>
<pdfrwt beam="2">  1       -2 0.37398960E-01 0.11254143E+04</pdfrwt>
<totfact> 0.11002725E+02</totfact>
</mgrwt>
</event>
<event>
 6    1  0.1780144E-005  0.1974857E+04  0.7818608E-02  0.8618467E-01
          2   -1    0    0  501    0  0.00000000000E+00  0.00000000000E+00  0.16068940571E+04  0.16068940571E+04  0.00000000000E+00 0. -1.
         -2   -1    0    0    0  501 -0.00000000000E+00 -0.00000000000E+00 -0.60677017616E+03  0.60677017616E+03  0.00000000000E+00 0.  1.
         23    2    1    2    0    0 -0.98739878464E+02  0.69694172003E+03  0.12738630464E+04  0.14584090079E+04  0.93554522271E+02 0.  0.
         13    1    3    3    0    0 -0.38569126347E+02  0.46033967095E+03  0.75759216813E+03  0.88732524103E+03  0.00000000000E+00 0.  1.
        -13    1    3    3    0    0 -0.60170752117E+02  0.23660204908E+03  0.51627087825E+03  0.57108376686E+03  0.00000000000E+00 0. -1.
         22    1    1    2    0    0  0.98739878464E+02 -0.69694172003E+03 -0.27373916547E+03  0.75525522535E+03  0.00000000000E+00 0. -1.
<mgrwt>
<rscale>  0 0.19748574E+04</rscale>
<asrwt>0</asrwt>
<pdfrwt beam="1">  1        2 0.24721447E+00 0.19748574E+04</pdfrwt>
<pdfrwt beam="2">  1       -2 0.93349258E-01 0.19748574E+04</pdfrwt>
<totfact> 0.99913117E+00</totfact>
</mgrwt>
</event>
<event>
 6    1  0.1780144E-005  0.3430746E+04  0.7818608E-02  0.8130401E-01
          2   -1    0    0  501    0  0.00000000000E+00  0.00000000000E+00  0.19312989589E+04  0.19312989589E+04  0.00000000000E+00 0. -1.
         -2   -1    0    0    0  501 -0.00000000000E+00 -0.00000000000E+00 -0.15235882270E+04  0.15235882270E+04  0.00000000000E+00 0.  1.
         23    2    1    2    0    0  0.51644420681E+03 -0.66368856746E+03  0.17081823644E+04  0.19062027117E+04  0.92329057085E+02 0.  0.
         11    1    3    3    0    0  0.21791782917E+03 -0.28758449012E+03  0.83675318140E+03  0.91123482473E+03  0.00000000000E+00 0. -1.
        -11    1    3    3    0    0  0.29852637764E+03 -0.37610407734E+03  0.87142918301E+03  0.99496788699E+03  0.00000000000E+00 0.  1.
         22    1    1    2    0    0 -0.51644420681E+03  0.66368856746E+03 -0.13004716326E+04  0.15486844742E+04  0.00000000000E+00 0.  1.
<mgrwt>
<rscale>  0 0.34307459E+04</rscale>
<asrwt>0</asrwt>
<pdfrwt beam="1">  1        2 0.29712292E+00 0.34307459E+04</pdfrwt>
<pdfrwt beam="2">  1       -2 0.23439819E+00 0.34307459E+04</pdfrwt>
<totfact> 0.48388149E-01</totfact>
</mgrwt>
</event>
<event>
 6    1  0.1780144E-005  0.1080054E+04  0.7818608E-02  0.9224854E-01
         -1   -1    0    0    0  501 -0.00000000000E+00  0.00000000000E+00  0.12634733916E+03  0.12634733916E+03  0.00000000000E+00 0.  1.
          1   -1    0    0  501    0  0.00000000000E+00 -0.00000000000E+00 -0.23081526458E+04  0.23081526458E+04  0.00000000000E+00 0. -1.
         23    2    1    2    0    0 -0.10904808008E+03 -0.60413728707E+02 -0.22741670535E+04  0.22793484634E+04  0.89734763242E+02 0.  0.
         13    1    3    3    0    0 -0.11083475988E+03 -0.42906525093E+02 -0.14093597424E+04  0.14143621168E+04  0.00000000000E+00 0. -1.
        -13    1    3    3    0    0  0.17866798012E+01 -0.17507203614E+02 -0.86480731110E+03  0.86498634656E+03  0.00000000000E+00 0.  1.
         22    1    1    2    0    0  0.10904808008E+03  0.60413728707E+02  0.92361746845E+02  0.15515152164E+03  0.00000000000E+00 0.  1.
<mgrwt>
<rscale>  0 0.10800536E+04</rscale>
<asrwt>0</asrwt>
<pdfrwt beam="1">  1        1 0.35510042E+00 0.10800536E+04</pdfrwt>
<pdfrwt beam="2">  1       -1 0.19438052E-01 0.10800536E+04</pdfrwt>
<totfact> 0.39598335E+01</totfact>
</mgrwt>
</event>
<event>
 6    1  0.1780144E-005  0.2722257E+04  0.7818608E-02  0.8327819E-01
         -1   -1    0    0    0  501 -0.00000000000E+00  0.00000000000E+00  0.14966685832E+04  0.14966685832E+04  0.00000000000E+00 0.  1.
          1   -1    0    0  501    0  0.00000000000E+00 -0.00000000000E+00 -0.12378631921E+04  0.12378631921E+04  0.00000000000E+00 0. -1.
         23    2    1    2    0    0 -0.38143906400E+03 -0.67243293245E+03 -0.99386711617E+03  0.12625092828E+04  0.92173945823E+02 0.  0.
         11    1    3    3    0    0 -0.30388701048E+03 -0.59940448729E+03 -0.85746088175E+03  0.10894366518E+04  0.00000000000E+00 0.  1.
        -11    1    3    3    0    0 -0.77552053518E+02 -0.73028445164E+02 -0.13640623442E+03  0.17307263098E+03  0.00000000000E+00 0. -1.
         22    1    1    2    0    0  0.38143906400E+03  0.67243293245E+03  0.12526725072E+04  0.14720224926E+04  0.00000000000E+00 0.  1.
<mgrwt>
<rscale>  0 0.27222571E+04</rscale>
<asrwt>0</asrwt>
<pdfrwt beam="1">  1        1 0.19044049E+00 0.27222571E+04</pdfrwt>
<pdfrwt beam="2">  1       -1 0.23025670E+00 0.27222571E+04</pdfrwt>
<totfact> 0.82167721E-01</totfact>
</mgrwt>
</event>
<event>
 6    1  0.1780144E-005  0.1871041E+04  0.7818608E-02  0.8669407E-01
         -2   -1    0    0    0  501 -0.00000000000E+00  0.00000000000E+00  0.27548977566E+03  0.27548977566E+03  0.00000000000E+00 0.  1.
          2   -1    0    0  501    0  0.00000000000E+00 -0.00000000000E+00 -0.31768810265E+04  0.31768810265E+04  0.00000000000E+00 0. -1.
         23    2    1    2    0    0 -0.73994492169E+03 -0.10495685794E+03 -0.42258317099E+03  0.86335092470E+03  0.90905740301E+02 0.  0.
         13    1    3    3    0    0 -0.22074007913E+03 -0.60050135986E+02 -0.16476339698E+03  0.28192051779E+03  0.00000000000E+00 0.  1.
        -13    1    3    3    0    0 -0.51920484256E+03 -0.44906721956E+02 -0.25781977401E+03  0.58143040691E+03  0.00000000000E+00 0. -1.
         22    1    1    2    0    0  0.73994492169E+03  0.10495685794E+03 -0.24788080798E+04  0.25890198775E+04  0.00000000000E+00 0. -1.
<mgrwt>
<rscale>  0 0.18710406E+04</rscale>
<asrwt>0</asrwt>
<pdfrwt beam="1">  1        2 0.48875094E+00 0.18710406E+04</pdfrwt>
<pdfrwt beam="2">  1       -2 0.42383041E-01 0.18710406E+04</pdfrwt>
<totfact> 0.66800228E+00</totfact>
</mgrwt>
</event>
<event>
 6    1  0.1780144E-005  0.1354835E+04  0.7818608E-02  0.8987176E-01
          2   -1    0    0  501    0  0.00000000000E+00  0.00000000000E+00  0.30970927359E+03  0.30970927359E+03  0.00000000000E+00 0. -1.
         -2   -1    0    0    0  501 -0.00000000000E+00 -0.00000000000E+00 -0.14816952708E+04  0.14816952708E+04  0.00000000000E+00 0.  1.
         23    2    1    2    0    0  0.53225169049E+02 -0.66581002327E+03 -0.71049782468E+03  0.97955034623E+03  0.92605702884E+02 0.  0.
         11    1    3    3    0    0  0.72028224375E+02 -0.32796649467E+03 -0.36501323531E+03  0.49596849566E+03  0.00000000000E+00 0. -1.
        -11    1    3    3    0    0 -0.18803055325E+02 -0.33784352860E+03 -0.34548458938E+03  0.48358185057E+03  0.00000000000E+00 0.  1.
         22    1    1    2    0    0 -0.53225169049E+02  0.66581002327E+03 -0.46148817254E+03  0.81185419818E+03  0.00000000000E+00 0. -1.
<mgrwt>
<rscale>  0 0.13548354E+04</rscale>
<asrwt>0</asrwt>
<pdfrwt beam="1">  1        2 0.47647580E-01 0.13548354E+04</pdfrwt>
<pdfrwt beam="2">  1       -2 0.22795312E+00 0.13548354E+04</pdfrwt>
<totfact> 0.91118091E+00</totfact>
</mgrwt>
</event>
<event>
 6    1  0.1780144E-005  0.1137472E+04  0.7818608E-02  0.9169419E-01
          2   -1    0    0  501    0  0.00000000000E+00  0.00000000000E+00  0.13177824126E+04  0.13177824126E+04  0.00000000000E+00 0.  1.
         -2   -1    0    0    0  501 -0.00000000000E+00 -0.00000000000E+00 -0.24545851363E+03  0.24545851363E+03  0.00000000000E+00 0. -1.
         23    2    1    2    0    0 -0.29659062920E+03 -0.46686280602E+03  0.38112461085E+03  0.67798201671E+03  0.92069348945E+02 0.  0.
         13    1    3    3    0    0 -0.10565991070E+03 -0.92490799524E+02  0.91723056558E+02  0.16772502446E+03  0.00000000000E+00 0.  1.
        -13    1    3    3    0    0 -0.19093071850E+03 -0.37437200650E+03  0.28940155429E+03  0.51025699225E+03  0.00000000000E+00 0. -1.
         22    1    1    2    0    0  0.29659062920E+03  0.46686280602E+03  0.69119928813E+03  0.88525890952E+03  0.00000000000E+00 0.  1.
<mgrwt>
<rscale>  0 0.11374725E+04</rscale>
<asrwt>0</asrwt>
<pdfrwt beam="1">  1        2 0.20273575E+00 0.11374725E+04</pdfrwt>
<pdfrwt beam="2">  1       -2 0.37762849E-01 0.11374725E+04</pdfrwt>
<totfact> 0.10572207E+02</totfact>
</mgrwt>
</event>
<event>
 6    1  0.1780144E-005  0.1634141E+04  0.7818608E-02  0.8799844E-01
         -1   -1    0    0    0  501 -0.00000000000E+00  0.00000000000E+00  0.14804644018E+04  0.14804644018E+04  0.00000000000E+00 0.  1.
          1   -1    0    0  501    0  0.00000000000E+00 -0.00000000000E+00 -0.45094244720E+03  0.45094244720E+03  0.00000000000E+00 0. -1.
         23    2    1    2    0    0 -0.14843513316E+03 -0.63715110166E+03 -0.57099996459E+02  0.66304500014E+03  0.91508182770E+02 0.  0.
         13    1    3    3    0    0 -0.92688516895E+02 -0.47344577262E+03 -0.51033364185E+01  0.48246046969E+03  0.00000000000E+00 0. -1.
        -13    1    3    3    0    0 -0.55746616267E+02 -0.16370532905E+03 -0.51996660041E+02  0.18058453045E+03  0.00000000000E+00 0.  1.
         22    1    1    2    0    0  0.14843513316E+03  0.63715110166E+03  0.10866219511E+04  0.12683618489E+04  0.00000000000E+00 0.  1.
<mgrwt>
<rscale>  0 0.16341410E+04</rscale>
<asrwt>0</asrwt>
<pdfrwt beam="1">  1        1 0.69375762E-01 0.16341410E+04</pdfrwt>
<pdfrwt beam="2">  1       -1 0.22776375E+00 0.16341410E+04</pdfrwt>
<totfact> 0.47718464E+00</totfact>
</mgrwt>
</event>
<event>
 6    1  0.1780144E-005  0.2532177E+04  0.7818608E-02  0.8391611E-01
          2   -1    0    0  501    0  0.00000000000E+00  0.00000000000E+00  0.23710858160E+04  0.23710858160E+04  0.00000000000E+00 0. -1.
         -2   -1    0    0    0  501 -0.00000000000E+00 -0.00000000000E+00 -0.67605342626E+03  0.67605342626E+03  0.00000000000E+00 0.  1.
         23    2    1    2    0    0 -0.50149040141E+03  0.95181469655E+03  0.16481573522E+04  0.19702729049E+04  0.90049003689E+02 0.  0.
         11    1    3    3    0    0 -0.36431103636E+03  0.75021344082E+03  0.12266039648E+04  0.14832734152E+04  0.00000000000E+00 0. -1.
        -11    1    3    3    0    0 -0.13717936505E+03  0.20160125573E+03  0.42155338740E+03  0.48699948967E+03  0.00000000000E+00 0.  1.
         22    1    1    2    0    0  0.50149040141E+03 -0.95181469655E+03  0.46875037540E+02  0.10768663373E+04  0.00000000000E+00 0.  1.
<mgrwt>
<rscale>  0 0.25321775E+04</rscale>
<asrwt>0</asrwt>
<pdfrwt beam="1">  1        2 0.36478243E+00 0.25321775E+04</pdfrwt>
<pdfrwt beam="2">  1       -2 0.10400822E+00 0.25321775E+04</pdfrwt>
<totfact> 0.27622103E+00</totfact>
</mgrwt>
</event>
<event>
 6    1  0.1780144E-005  0.1945658E+04  0.7818608E-02  0.8632457E-01
          1   -1    0    0  501    0  0.00000000000E+00  0.00000000000E+00  0.97801346021E+03  0.97801346021E+03  0.00000000000E+00 0. -1.
         -1   -1    0    0    0  501 -0.00000000000E+00 -0.00000000000E+00 -0.96767223529E+03  0.96767223529E+03  0.00000000000E+00 0.  1.
         23    2    1    2    0    0 -0.11132045216E+03 -0.85125282602E+03  0.45938385541E+03  0.97683952562E+03  0.78474934329E+02 0.  0.
         13    1    3    3    0    0  0.11236794051E+00 -0.21426030682E+03  0.13649004338E+03  0.25404138176E+03  0.00000000000E+00 0. -1.
        -13    1    3    3    0    0 -0.11143282010E+03 -0.63699251920E+03  0.32289381203E+03  0.72279814386E+03  0.00000000000E+00 0.  1.
         22    1    1    2    0    0  0.11132045216E+03  0.85125282602E+03 -0.44904263050E+03  0.96884616988E+03  0.00000000000E+00 0.  1.
<mgrwt>
<rscale>  0 0.19456582E+04</rscale>
<asrwt>0</asrwt>
<pdfrwt beam="1">  1        1 0.15046361E+00 0.19456582E+04</pdfrwt>
<pdfrwt beam="2">  1       -1 0.14887265E+00 0.19456582E+04</pdfrwt>
<totfact> 0.52256335E+00</totfact>
</mgrwt>
</event>
<event>
 6    1  0.1780144E-005  0.1143953E+04  0.7818608E-02  0.9163380E-01
         -1   -1    0    0    0  501 -0.00000000000E+00  0.00000000000E+00  0.27781902501E+03  0.27781902501E+03  0.00000000000E+00 0.  1.
          1   -1    0    0  501    0  0.00000000000E+00 -0.00000000000E+00 -0.11775917635E+04  0.11775917635E+04  0.00000000000E+00 0. -1.
         23    2    1    2    0    0  0.16512936266E+03 -0.54372687238E+03 -0.46170387476E+03  0.73790751499E+03  0.91817288916E+02 0.  0.
         13    1    3    3    0    0  0.17420964613E+02 -0.18378015637E+03 -0.17741547763E+03  0.25603688716E+03  0.00000000000E+00 0.  1.
        -13    1    3    3    0    0  0.14770839804E+03 -0.35994671601E+03 -0.28428839713E+03  0.48187062783E+03  0.00000000000E+00 0. -1.
         22    1    1    2    0    0 -0.16512936266E+03  0.54372687238E+03 -0.43806886372E+03  0.71750327352E+03  0.00000000000E+00 0. -1.
<mgrwt>
<rscale>  0 0.11439535E+04</rscale>
<asrwt>0</asrwt>
<pdfrwt beam="1">  1        1 0.18116797E+00 0.11439535E+04</pdfrwt>
<pdfrwt beam="2">  1       -1 0.42741388E-01 0.11439535E+04</pdfrwt>
<totfact> 0.59406227E+01</totfact>
</mgrwt>
</event>
<event>
 6    1  0.1780144E-005  0.2525985E+04  0.7818608E-02  0.8393786E-01
          2   -1    0    0  501    0  0.00000000000E+00  0.00000000000E+00  0.16794999951E+04  0.16794999951E+04  0.00000000000E+00 0. -1.
         -2   -1    0    0    0  501 -0.00000000000E+00 -0.00000000000E+00 -0.94977709716E+03  0.94977709716E+03  0.00000000000E+00 0.  1.
         23    2    1    2    0    0  0.11265745469E+04  0.13895840908E+03  0.93784846525E+03  0.14752424736E+04  0.91109621041E+02 0.  0.
         13    1    3    3    0    0  0.23232633569E+03  0.49489165799E+01  0.15620686752E+03  0.28000107766E+03  0.00000000000E+00 0. -1.
        -13    1    3    3    0    0  0.89424821121E+03  0.13400949250E+03  0.78164159773E+03  0.11952413960E+04  0.00000000000E+00 0.  1.
         22    1    1    2    0    0 -0.11265745469E+04 -0.13895840908E+03 -0.20812556732E+03  0.11540346186E+04  0.00000000000E+00 0. -1.
<mgrwt>
<rscale>  0 0.25259855E+04</rscale>
<asrwt>0</asrwt>
<pdfrwt beam="1">  1        2 0.25838461E+00 0.25259855E+04</pdfrwt>
<pdfrwt beam="2">  1       -2 0.14611955E+00 0.25259855E+04</pdfrwt>
<totfact> 0.28777684E+00</totfact>
</mgrwt>
</event>
<event>
 6    1  0.1780144E-005  0.1121618E+04  0.7818608E-02  0.9184374E-01
         -1   -1    0    0    0  501 -0.00000000000E+00  0.00000000000E+00  0.27555363265E+03  0.27555363265E+03  0.00000000000E+00 0.  1.
          1   -1    0    0  501    0  0.00000000000E+00 -0.00000000000E+00 -0.11413632843E+04  0.11413632843E+04  0.00000000000E+00 0. -1.
         23    2    1    2    0    0  0.25624144342E+03 -0.18955055739E+03 -0.10129250349E+04  0.10658727215E+04  0.92078450151E+02 0.  0.
         13    1    3    3    0    0  0.19465525652E+03 -0.18721844856E+03 -0.83231900061E+03  0.87504076199E+03  0.00000000000E+00 0. -1.
        -13    1    3    3    0    0  0.61586186895E+02 -0.23321088312E+01 -0.18060603430E+03  0.19083195952E+03  0.00000000000E+00 0.  1.
         22    1    1    2    0    0 -0.25624144342E+03  0.18955055739E+03  0.14711538329E+03  0.35104419541E+03  0.00000000000E+00 0.  1.
<mgrwt>
<rscale>  0 0.11216181E+04</rscale>
<asrwt>0</asrwt>
<pdfrwt beam="1">  1        1 0.17559435E+00 0.11216181E+04</pdfrwt>
<pdfrwt beam="2">  1       -1 0.42392866E-01 0.11216181E+04</pdfrwt>
<totfact> 0.64249867E+01</totfact>
</mgrwt>
</event>
<event>
 6    1  0.1780144E-005  0.2679102E+04  0.7818608E-02  0.8341818E-01
          2   -1    0    0  501    0  0.00000000000E+00  0.00000000000E+00  0.18062515165E+04  0.18062515165E+04  0.00000000000E+00 0. -1.
         -2   -1    0    0    0  501 -0.00000000000E+00 -0.00000000000E+00 -0.99343689174E+03  0.99343689174E+03  0.00000000000E+00 0.  1.
         23    2    1    2    0    0  0.34810386866E+02 -0.11770862115E+04 -0.25650594743E+03  0.12090312489E+04  0.96008058607E+02 0.  0.
         13    1    3    3    0    0  0.25293718763E+02 -0.10257131490E+04 -0.19022774654E+03  0.10435103410E+04  0.00000000000E+00 0.  1.
        -13    1    3    3    0    0  0.95166681029E+01 -0.15137306251E+03 -0.66278200894E+02  0.16552090786E+03  0.00000000000E+00 0. -1.
         22    1    1    2    0    0 -0.34810386866E+02  0.11770862115E+04  0.10693205722E+04  0.15906571593E+04  0.00000000000E+00 0. -1.
<mgrwt>
<rscale>  0 0.26791020E+04</rscale>
<asrwt>0</asrwt>
<pdfrwt beam="1">  1        2 0.27788485E+00 0.26791020E+04</pdfrwt>
<pdfrwt beam="2">  1       -2 0.15283644E+00 0.26791020E+04</pdfrwt>
<totfact> 0.21445934E+00</totfact>
</mgrwt>
</event>
<event>
 6    1  0.1780144E-005  0.4601085E+04  0.7818608E-02  0.7893175E-01
         -1   -1    0    0    0  501 -0.00000000000E+00  0.00000000000E+00  0.16279785656E+04  0.16279785656E+04  0.00000000000E+00 0.  1.
          1   -1    0    0  501    0  0.00000000000E+00 -0.00000000000E+00 -0.32509621237E+04  0.32509621237E+04  0.00000000000E+00 0. -1.
         23    2    1    2    0    0  0.10695236623E+04 -0.18944917123E+04 -0.16022558287E+04  0.27033007027E+04  0.87356947070E+02 0.  0.
         11    1    3    3    0    0  0.41640918109E+03 -0.78797300996E+03 -0.61277792464E+03  0.10815705504E+04  0.00000000000E+00 0.  1.
        -11    1    3    3    0    0  0.65311448119E+03 -0.11065187024E+04 -0.98947790405E+03  0.16217301523E+04  0.00000000000E+00 0. -1.
         22    1    1    2    0    0 -0.10695236623E+04  0.18944917123E+04 -0.20727729401E+02  0.21756399865E+04  0.00000000000E+00 0.  1.
<mgrwt>
<rscale>  0 0.46010854E+04</rscale>
<asrwt>0</asrwt>
<pdfrwt beam="1">  1        1 0.50014802E+00 0.46010854E+04</pdfrwt>
<pdfrwt beam="2">  1       -1 0.25045824E+00 0.46010854E+04</pdfrwt>
<totfact> 0.20066049E-02</totfact>
</mgrwt>
</event>
<event>
 6    1  0.1780144E-005  0.2095215E+04  0.7818608E-02  0.8563354E-01
         -2   -1    0    0    0  501 -0.00000000000E+00  0.00000000000E+00  0.72860700162E+03  0.72860700162E+03  0.00000000000E+00 0.  1.
          2   -1    0    0  501    0  0.00000000000E+00 -0.00000000000E+00 -0.15062740583E+04  0.15062740583E+04  0.00000000000E+00 0. -1.
         23    2    1    2    0    0  0.76913550484E+03  0.11441283799E+03 -0.11352007620E+04  0.13790247211E+04  0.91480538676E+02 0.  0.
         13    1    3    3    0    0  0.58058438644E+03  0.12077487324E+03 -0.82637681412E+03  0.10171349167E+04  0.00000000000E+00 0.  1.
        -13    1    3    3    0    0  0.18855111840E+03 -0.63620352551E+01 -0.30882394789E+03  0.36188980441E+03  0.00000000000E+00 0. -1.
         22    1    1    2    0    0 -0.76913550484E+03 -0.11441283799E+03  0.35753370533E+03  0.85585633885E+03  0.00000000000E+00 0.  1.
<mgrwt>
<rscale>  0 0.20952153E+04</rscale>
<asrwt>0</asrwt>
<pdfrwt beam="1">  1        2 0.23173447E+00 0.20952153E+04</pdfrwt>
<pdfrwt beam="2">  1       -2 0.11209339E+00 0.20952153E+04</pdfrwt>
<totfact> 0.72861399E+00</totfact>
</mgrwt>
</event>
<event>
 6    1  0.1780144E-005  0.3085019E+04  0.7818608E-02  0.8219861E-01
         -2   -1    0    0    0  501 -0.00000000000E+00  0.00000000000E+00  0.74685731098E+03  0.74685731098E+03  0.00000000000E+00 0.  1.
          2   -1    0    0  501    0  0.00000000000E+00 -0.00000000000E+00 -0.31857977296E+04  0.31857977296E+04  0.00000000000E+00 0. -1.
         23    2    1    2    0    0 -0.98267960781E+03  0.44905245760E+03 -0.26215734995E+04  0.28369077323E+04  0.89947468476E+02 0.  0.
         13    1    3    3    0    0 -0.37834233623E+03  0.22126633443E+03 -0.10689293818E+04  0.11552972507E+04  0.00000000000E+00 0. -1.
        -13    1    3    3    0    0 -0.60433727157E+03  0.22778612317E+03 -0.15526441177E+04  0.16816104816E+04  0.00000000000E+00 0.  1.
         22    1    1    2    0    0  0.98267960781E+03 -0.44905245760E+03  0.18263308091E+03  0.10957473082E+04  0.00000000000E+00 0.  1.
<mgrwt>
<rscale>  0 0.30850195E+04</rscale>
<asrwt>0</asrwt>
<pdfrwt beam="1">  1        2 0.49012273E+00 0.30850195E+04</pdfrwt>
<pdfrwt beam="2">  1       -2 0.11490112E+00 0.30850195E+04</pdfrwt>
<totfact> 0.66485387E-01</totfact>
</mgrwt>
</event>
<event>
 6    1  0.1780144E-005  0.1800897E+04  0.7818608E-02  0.8705823E-01
         -2   -1    0    0    0  501 -0.00000000000E+00  0.00000000000E+00  0.18935209486E+04  0.18935209486E+04  0.00000000000E+00 0.  1.
          2   -1    0    0  501    0  0.00000000000E+00 -0.00000000000E+00 -0.42820094608E+03  0.42820094608E+03  0.00000000000E+00 0. -1.
         23    2    1    2    0    0 -0.74934704955E+03  0.46315890556E+03  0.96029872749E+03  0.13062989972E+04  0.90588363533E+02 0.  0.
         13    1    3    3    0    0 -0.42766327862E+03  0.27818650410E+03  0.61885490054E+03  0.80203802832E+03  0.00000000000E+00 0.  1.
        -13    1    3    3    0    0 -0.32168377092E+03  0.18497240146E+03  0.34144382695E+03  0.50426096888E+03  0.00000000000E+00 0. -1.
         22    1    1    2    0    0  0.74934704955E+03 -0.46315890556E+03  0.50502127500E+03  0.10154228975E+04  0.00000000000E+00 0.  1.
<mgrwt>
<rscale>  0 0.18008970E+04</rscale>
<asrwt>0</asrwt>
<pdfrwt beam="1">  1        2 0.65877069E-01 0.18008970E+04</pdfrwt>
<pdfrwt beam="2">  1       -2 0.29131091E+00 0.18008970E+04</pdfrwt>
<totfact> 0.24993463E+00</totfact>
</mgrwt>
</event>
<event>
 6    1  0.1780144E-005  0.1027067E+04  0.7818608E-02  0.9279346E-01
          2   -1    0    0  501    0  0.00000000000E+00  0.00000000000E+00  0.88150134349E+03  0.88150134349E+03  0.00000000000E+00 0. -1.
         -2   -1    0    0    0  501 -0.00000000000E+00 -0.00000000000E+00 -0.29916758350E+03  0.29916758350E+03  0.00000000000E+00 0.  1.
         23    2    1    2    0    0 -0.24438811188E+03  0.44664114050E+03  0.32207980371E+03  0.60887702483E+03  0.88215496337E+02 0.  0.
         13    1    3    3    0    0 -0.27447933999E+02  0.12612914042E+03  0.67961835422E+02  0.14587926589E+03  0.00000000000E+00 0.  1.
        -13    1    3    3    0    0 -0.21694017788E+03  0.32051200008E+03  0.25411796829E+03  0.46299775894E+03  0.00000000000E+00 0. -1.
         22    1    1    2    0    0  0.24438811188E+03 -0.44664114050E+03  0.26025395627E+03  0.57179190216E+03  0.00000000000E+00 0. -1.
<mgrwt>
<rscale>  0 0.10270669E+04</rscale>
<asrwt>0</asrwt>
<pdfrwt beam="1">  1        2 0.13561559E+00 0.10270669E+04</pdfrwt>
<pdfrwt beam="2">  1       -2 0.46025782E-01 0.10270669E+04</pdfrwt>
<totfact> 0.13465400E+02</totfact>
</mgrwt>
</event>
<event>
 6    1  0.1780144E-005  0.3535278E+04  0.7818608E-02  0.8105480E-01
          1   -1    0    0  501    0  0.00000000000E+00  0.00000000000E+00  0.27961745446E+04  0.27961745446E+04  0.00000000000E+00 0. -1.
         -1   -1    0    0    0  501 -0.00000000000E+00 -0.00000000000E+00 -0.11174367763E+04  0.11174367763E+04  0.00000000000E+00 0.  1.
         23    2    1    2    0    0 -0.20423923251E+03 -0.87862042153E+03 -0.84156083987E+03  0.12367488696E+04  0.87381977619E+02 0.  0.
         11    1    3    3    0    0 -0.14492751750E+03 -0.47811205760E+03 -0.50338555961E+03  0.70921939242E+03  0.00000000000E+00 0.  1.
        -11    1    3    3    0    0 -0.59311715013E+02 -0.40050836393E+03 -0.33817528026E+03  0.52752947718E+03  0.00000000000E+00 0. -1.
         22    1    1    2    0    0  0.20423923251E+03  0.87862042153E+03  0.25202986082E+04  0.26768624514E+04  0.00000000000E+00 0. -1.
<mgrwt>
<rscale>  0 0.35352784E+04</rscale>
<asrwt>0</asrwt>
<pdfrwt beam="1">  1        1 0.43018070E+00 0.35352784E+04</pdfrwt>
<pdfrwt beam="2">  1       -1 0.17191335E+00 0.35352784E+04</pdfrwt>
<totfact> 0.16244425E-01</totfact>
</mgrwt>
</event>
<event>
 6    1  0.1780144E-005  0.1143037E+04  0.7818608E-02  0.9164231E-01
          1   -1    0    0  501    0  0.00000000000E+00  0.00000000000E+00  0.17250430240E+03  0.17250430240E+03  0.00000000000E+00 0. -1.
         -1   -1    0    0    0  501 -0.00000000000E+00 -0.00000000000E+00 -0.18934810048E+04  0.18934810048E+04  0.00000000000E+00 0.  1.
         23    2    1    2    0    0 -0.55019366727E+03 -0.10017932369E+03 -0.10442808493E+04  0.11881093217E+04  0.91281430627E+02 0.  0.
         11    1    3    3    0    0 -0.13542052692E+03 -0.42311659455E+02 -0.19460704067E+03  0.24083375161E+03  0.00000000000E+00 0. -1.
        -11    1    3    3    0    0 -0.41477314036E+03 -0.57867664236E+02 -0.84967380865E+03  0.94727557006E+03  0.00000000000E+00 0.  1.
         22    1    1    2    0    0  0.55019366727E+03  0.10017932369E+03 -0.67669585310E+03  0.87787598555E+03  0.00000000000E+00 0. -1.
<mgrwt>
<rscale>  0 0.11430374E+04</rscale>
<asrwt>0</asrwt>
<pdfrwt beam="1">  1        1 0.26539126E-01 0.11430374E+04</pdfrwt>
<pdfrwt beam="2">  1       -1 0.29130475E+00 0.11430374E+04</pdfrwt>
<totfact> 0.67936497E+00</totfact>
</mgrwt>
</event>
<event>
 6    1  0.1780144E-005  0.1760989E+04  0.7818608E-02  0.8727325E-01
         -2   -1    0    0    0  501 -0.00000000000E+00  0.00000000000E+00  0.68776068727E+03  0.68776068727E+03  0.00000000000E+00 0. -1.
          2   -1    0    0  501    0  0.00000000000E+00 -0.00000000000E+00 -0.11272382131E+04  0.11272382131E+04  0.00000000000E+00 0.  1.
         23    2    1    2    0    0 -0.16087454307E+03  0.28985682074E+03 -0.10584396019E+04  0.11128510193E+04  0.90804212981E+02 0.  0.
         13    1    3    3    0    0 -0.67776923329E+02  0.20749976045E+03 -0.71688880636E+03  0.74938603043E+03  0.00000000000E+00 0. -1.
        -13    1    3    3    0    0 -0.93097619744E+02  0.82357060293E+02 -0.34155079558E+03  0.36346498888E+03  0.00000000000E+00 0.  1.
         22    1    1    2    0    0  0.16087454307E+03 -0.28985682074E+03  0.61896207613E+03  0.70214788103E+03  0.00000000000E+00 0. -1.
<mgrwt>
<rscale>  0 0.17609885E+04</rscale>
<asrwt>0</asrwt>
<pdfrwt beam="1">  1        2 0.17342126E+00 0.17609885E+04</pdfrwt>
<pdfrwt beam="2">  1       -2 0.10580934E+00 0.17609885E+04</pdfrwt>
<totfact> 0.14327502E+01</totfact>
</mgrwt>
</event>
<event>
 6    1  0.1780144E-005  0.3236517E+04  0.7818608E-02  0.8179239E-01
         -2   -1    0    0    0  501 -0.00000000000E+00  0.00000000000E+00  0.92961626118E+03  0.92961626118E+03  0.00000000000E+00 0.  1.
          2   -1    0    0  501    0  0.00000000000E+00 -0.00000000000E+00 -0.28170345280E+04  0.28170345280E+04  0.00000000000E+00 0. -1.
         23    2    1    2    0    0  0.89191025386E+03 -0.45941581767E+03  0.52352692551E+03  0.11352864877E+04  0.90709277443E+02 0.  0.
         11    1    3    3    0    0  0.56545320772E+03 -0.33745148596E+03  0.35717523827E+03  0.74912281124E+03  0.00000000000E+00 0.  1.
        -11    1    3    3    0    0  0.32645704614E+03 -0.12196433171E+03  0.16635168724E+03  0.38616367648E+03  0.00000000000E+00 0. -1.
         22    1    1    2    0    0 -0.89191025386E+03  0.45941581767E+03 -0.24109451923E+04  0.26113643015E+04  0.00000000000E+00 0. -1.
<mgrwt>
<rscale>  0 0.32365173E+04</rscale>
<asrwt>0</asrwt>
<pdfrwt beam="1">  1        2 0.43338992E+00 0.32365173E+04</pdfrwt>
<pdfrwt beam="2">  1       -2 0.14301789E+00 0.32365173E+04</pdfrwt>
<totfact> 0.64368510E-01</totfact>
</mgrwt>
</event>
<event>
 6    1  0.1780144E-005  0.2760337E+04  0.7818608E-02  0.8315689E-01
         -2   -1    0    0    0  501 -0.00000000000E+00  0.00000000000E+00  0.99353539793E+03  0.99353539793E+03  0.00000000000E+00 0.  1.
          2   -1    0    0  501    0  0.00000000000E+00 -0.00000000000E+00 -0.19172587607E+04  0.19172587607E+04  0.00000000000E+00 0. -1.
         23    2    1    2    0    0  0.68668976152E+03  0.31979725703E+03 -0.16770658393E+04  0.18424599407E+04  0.91080676877E+02 0.  0.
         13    1    3    3    0    0  0.21638307383E+03  0.13837404334E+03 -0.50398914502E+03  0.56566250433E+03  0.00000000000E+00 0. -1.
        -13    1    3    3    0    0  0.47030668769E+03  0.18142321370E+03 -0.11730766942E+04  0.12767974364E+04  0.00000000000E+00 0.  1.
         22    1    1    2    0    0 -0.68668976152E+03 -0.31979725703E+03  0.75334247652E+03  0.10683342179E+04  0.00000000000E+00 0.  1.
<mgrwt>
<rscale>  0 0.27603365E+04</rscale>
<asrwt>0</asrwt>
<pdfrwt beam="1">  1        2 0.29496288E+00 0.27603365E+04</pdfrwt>
<pdfrwt beam="2">  1       -2 0.15285160E+00 0.27603365E+04</pdfrwt>
<totfact> 0.18480199E+00</totfact>
</mgrwt>
</event>
<event>
 6    1  0.1780144E-005  0.3223986E+04  0.7818608E-02  0.8182511E-01
          2   -1    0    0  501    0  0.00000000000E+00  0.00000000000E+00  0.29671494493E+04  0.29671494493E+04  0.00000000000E+00 0. -1.
         -2   -1    0    0    0  501 -0.00000000000E+00 -0.00000000000E+00 -0.87576371457E+03  0.87576371457E+03  0.00000000000E+00 0.  1.
         23    2    1    2    0    0 -0.96316446231E+03  0.30182889250E+03 -0.44941864413E+03  0.11089648554E+04  0.95076132752E+02 0.  0.
         11    1    3    3    0    0 -0.79109923711E+03  0.25994964605E+03 -0.33184562829E+03  0.89640021333E+03  0.00000000000E+00 0. -1.
        -11    1    3    3    0    0 -0.17206522520E+03  0.41879246447E+02 -0.11757301584E+03  0.21256464207E+03  0.00000000000E+00 0.  1.
         22    1    1    2    0    0  0.96316446231E+03 -0.30182889250E+03  0.25408043789E+04  0.27339483085E+04  0.00000000000E+00 0. -1.
<mgrwt>
<rscale>  0 0.32239862E+04</rscale>
<asrwt>0</asrwt>
<pdfrwt beam="1">  1        2 0.45648453E+00 0.32239862E+04</pdfrwt>
<pdfrwt beam="2">  1       -2 0.13473288E+00 0.32239862E+04</pdfrwt>
<totfact> 0.60790196E-01</totfact>
</mgrwt>
</event>
<event>
 6    1  0.1780144E-005  0.1862002E+04  0.7818608E-02  0.8674005E-01
         -2   -1    0    0    0  501 -0.00000000000E+00  0.00000000000E+00  0.77023365298E+03  0.77023365298E+03  0.00000000000E+00 0.  1.
          2   -1    0    0  501    0  0.00000000000E+00 -0.00000000000E+00 -0.11253244720E+04  0.11253244720E+04  0.00000000000E+00 0. -1.
         23    2    1    2    0    0  0.56883210095E+03  0.22663945898E+03  0.53291998237E+03  0.81690220820E+03  0.91597525686E+02 0.  0.
         13    1    3    3    0    0  0.17100725486E+03  0.11277607417E+03  0.19186414421E+03  0.28066665986E+03  0.00000000000E+00 0.  1.
        -13    1    3    3    0    0  0.39782484608E+03  0.11386338482E+03  0.34105583816E+03  0.53623554834E+03  0.00000000000E+00 0. -1.
         22    1    1    2    0    0 -0.56883210095E+03 -0.22663945898E+03 -0.88801080139E+03  0.10786559168E+04  0.00000000000E+00 0. -1.
<mgrwt>
<rscale>  0 0.18620019E+04</rscale>
<asrwt>0</asrwt>
<pdfrwt beam="1">  1        2 0.17312684E+00 0.18620019E+04</pdfrwt>
<pdfrwt beam="2">  1       -2 0.11849749E+00 0.18620019E+04</pdfrwt>
<totfact> 0.10819416E+01</totfact>
</mgrwt>
</event>
<event>
 6    1  0.1780144E-005  0.1754235E+04  0.7818608E-02  0.8731022E-01
         -1   -1    0    0    0  501 -0.00000000000E+00  0.00000000000E+00  0.11075285910E+04  0.11075285910E+04  0.00000000000E+00 0.  1.
          1   -1    0    0  501    0  0.00000000000E+00 -0.00000000000E+00 -0.69464153714E+03  0.69464153714E+03  0.00000000000E+00 0. -1.
         23    2    1    2    0    0  0.75216325726E+03 -0.36304199824E+02 -0.24977004968E+03  0.79908389187E+03  0.95301773509E+02 0.  0.
         13    1    3    3    0    0  0.45321670350E+03 -0.43923689357E+01 -0.10425071699E+03  0.46507298915E+03  0.00000000000E+00 0.  1.
        -13    1    3    3    0    0  0.29894655376E+03 -0.31911830889E+02 -0.14551933269E+03  0.33401090272E+03  0.00000000000E+00 0. -1.
         22    1    1    2    0    0 -0.75216325726E+03  0.36304199824E+02  0.66265710353E+03  0.10030862363E+04  0.00000000000E+00 0. -1.
<mgrwt>
<rscale>  0 0.17542353E+04</rscale>
<asrwt>0</asrwt>
<pdfrwt beam="1">  1        1 0.10686793E+00 0.17542353E+04</pdfrwt>
<pdfrwt beam="2">  1       -1 0.17038901E+00 0.17542353E+04</pdfrwt>
<totfact> 0.63824974E+00</totfact>
</mgrwt>
</event>
<event>
 6    1  0.1780144E-005  0.3621984E+04  0.7818608E-02  0.8085475E-01
          2   -1    0    0  501    0  0.00000000000E+00  0.00000000000E+00  0.43487055555E+04  0.43487055555E+04  0.00000000000E+00 0. -1.
         -2   -1    0    0    0  501 -0.00000000000E+00 -0.00000000000E+00 -0.75417643958E+03  0.75417643958E+03  0.00000000000E+00 0.  1.
         23    2    1    2    0    0  0.14445359757E+04  0.51866120441E+03  0.44728340093E+03  0.16013324495E+04  0.92247184249E+02 0.  0.
         11    1    3    3    0    0  0.28658565423E+03  0.65595747322E+02  0.76195687173E+02  0.30371025999E+03  0.00000000000E+00 0.  1.
        -11    1    3    3    0    0  0.11579503214E+04  0.45306545708E+03  0.37108771376E+03  0.12976221895E+04  0.00000000000E+00 0. -1.
         22    1    1    2    0    0 -0.14445359757E+04 -0.51866120441E+03  0.31472457150E+04  0.35015495457E+04  0.00000000000E+00 0. -1.
<mgrwt>
<rscale>  0 0.36219836E+04</rscale>
<asrwt>0</asrwt>
<pdfrwt beam="1">  1        2 0.66903161E+00 0.36219836E+04</pdfrwt>
<pdfrwt beam="2">  1       -2 0.11602715E+00 0.36219836E+04</pdfrwt>
<totfact> 0.80027814E-02</totfact>
</mgrwt>
</event>
<event>
 6    1  0.1780144E-005  0.1069765E+04  0.7818608E-02  0.9235172E-01
         -1   -1    0    0    0  501 -0.00000000000E+00  0.00000000000E+00  0.16315038228E+03  0.16315038228E+03  0.00000000000E+00 0.  1.
          1   -1    0    0  501    0  0.00000000000E+00 -0.00000000000E+00 -0.17535929599E+04  0.17535929599E+04  0.00000000000E+00 0. -1.
         23    2    1    2    0    0  0.34053504158E+03  0.39090219353E+03 -0.10060749623E+04  0.11355556891E+04  0.92364787076E+02 0.  0.
         11    1    3    3    0    0  0.21367911028E+03  0.26368946333E+03 -0.56221842451E+03  0.65671946225E+03  0.00000000000E+00 0. -1.
        -11    1    3    3    0    0  0.12685593131E+03  0.12721273020E+03 -0.44385653778E+03  0.47883622687E+03  0.00000000000E+00 0.  1.
         22    1    1    2    0    0 -0.34053504158E+03 -0.39090219353E+03 -0.58436761534E+03  0.78118765307E+03  0.00000000000E+00 0. -1.
<mgrwt>
<rscale>  0 0.10697651E+04</rscale>
<asrwt>0</asrwt>
<pdfrwt beam="1">  1        1 0.26978356E+00 0.10697651E+04</pdfrwt>
<pdfrwt beam="2">  1       -1 0.25100057E-01 0.10697651E+04</pdfrwt>
<totfact> 0.60926902E+01</totfact>
</mgrwt>
</event>
<event>
 6    1  0.1780144E-005  0.1718454E+04  0.7818608E-02  0.8750909E-01
         -1   -1    0    0    0  501 -0.00000000000E+00  0.00000000000E+00  0.10597248358E+04  0.10597248358E+04  0.00000000000E+00 0.  1.
          1   -1    0    0  501    0  0.00000000000E+00 -0.00000000000E+00 -0.69666270693E+03  0.69666270693E+03  0.00000000000E+00 0. -1.
         23    2    1    2    0    0  0.57801443891E+02 -0.35582993398E+03  0.97641531648E+03  0.10449396659E+04  0.92499114739E+02 0.  0.
         13    1    3    3    0    0  0.89483851504E+01 -0.28462469900E+02  0.29985058953E+02  0.42299994681E+02  0.00000000000E+00 0.  1.
        -13    1    3    3    0    0  0.48853058740E+02 -0.32736746408E+03  0.94643025753E+03  0.10026396712E+04  0.00000000000E+00 0. -1.
         22    1    1    2    0    0 -0.57801443891E+02  0.35582993398E+03 -0.61335318757E+03  0.71144787689E+03  0.00000000000E+00 0. -1.
<mgrwt>
<rscale>  0 0.17184537E+04</rscale>
<asrwt>0</asrwt>
<pdfrwt beam="1">  1        1 0.10717888E+00 0.17184537E+04</pdfrwt>
<pdfrwt beam="2">  1       -1 0.16303459E+00 0.17184537E+04</pdfrwt>
<totfact> 0.72285108E+00</totfact>
</mgrwt>
</event>
<event>
 6    1  0.1780144E-005  0.2989268E+04  0.7818608E-02  0.8246802E-01
          2   -1    0    0  501    0  0.00000000000E+00  0.00000000000E+00  0.21083955352E+04  0.21083955352E+04  0.00000000000E+00 0. -1.
         -2   -1    0    0    0  501 -0.00000000000E+00 -0.00000000000E+00 -0.10595405191E+04  0.10595405191E+04  0.00000000000E+00 0.  1.
         23    2    1    2    0    0  0.42709656810E+03  0.40945038844E+03 -0.92807542405E+03  0.11043675275E+04  0.90788457955E+02 0.  0.
         13    1    3    3    0    0  0.11431675618E+03  0.15093706546E+03 -0.35248423388E+03  0.40011929922E+03  0.00000000000E+00 0.  1.
        -13    1    3    3    0    0  0.31277981192E+03  0.25851332298E+03 -0.57559119017E+03  0.70424822833E+03  0.00000000000E+00 0. -1.
         22    1    1    2    0    0 -0.42709656810E+03 -0.40945038844E+03  0.19769304402E+04  0.20635685267E+04  0.00000000000E+00 0. -1.
<mgrwt>
<rscale>  0 0.29892678E+04</rscale>
<asrwt>0</asrwt>
<pdfrwt beam="1">  1        2 0.32436854E+00 0.29892678E+04</pdfrwt>
<pdfrwt beam="2">  1       -2 0.16300623E+00 0.29892678E+04</pdfrwt>
<totfact> 0.11922281E+00</totfact>
</mgrwt>
</event>
<event>
 6    1  0.1780144E-005  0.1658611E+04  0.7818608E-02  0.8785329E-01
         -2   -1    0    0    0  501 -0.00000000000E+00  0.00000000000E+00  0.12399729115E+04  0.12399729115E+04  0.00000000000E+00 0.  1.
          2   -1    0    0  501    0  0.00000000000E+00 -0.00000000000E+00 -0.55464712051E+03  0.55464712051E+03  0.00000000000E+00 0. -1.
         23    2    1    2    0    0 -0.38174244374E+03 -0.59222314491E+03 -0.12451681466E+03  0.72116738160E+03  0.90124405320E+02 0.  0.
         13    1    3    3    0    0 -0.31778240453E+03 -0.43461369115E+03 -0.11665371726E+03  0.55089273630E+03  0.00000000000E+00 0. -1.
        -13    1    3    3    0    0 -0.63960039210E+02 -0.15760945376E+03 -0.78630974068E+01  0.17027464530E+03  0.00000000000E+00 0.  1.
         22    1    1    2    0    0  0.38174244374E+03  0.59222314491E+03  0.80984260564E+03  0.10734526504E+04  0.00000000000E+00 0.  1.
<mgrwt>
<rscale>  0 0.16586107E+04</rscale>
<asrwt>0</asrwt>
<pdfrwt beam="1">  1        2 0.85330326E-01 0.16586107E+04</pdfrwt>
<pdfrwt beam="2">  1       -2 0.19076506E+00 0.16586107E+04</pdfrwt>
<totfact> 0.79622370E+00</totfact>
</mgrwt>
</event>
<event>
 6    1  0.1780144E-005  0.2661852E+04  0.7818608E-02  0.8347490E-01
          1   -1    0    0  501    0  0.00000000000E+00  0.00000000000E+00  0.16093692371E+04  0.16093692371E+04  0.00000000000E+00 0. -1.
         -1   -1    0    0    0  501 -0.00000000000E+00 -0.00000000000E+00 -0.11006575599E+04  0.11006575599E+04  0.00000000000E+00 0.  1.
         23    2    1    2    0    0  0.95751676583E+03  0.15684626674E+03 -0.67063454395E+03  0.11828409478E+04  0.89010719100E+02 0.  0.
         13    1    3    3    0    0  0.73005190933E+03  0.80800811573E+02 -0.50670169622E+03  0.89232907070E+03  0.00000000000E+00 0. -1.
        -13    1    3    3    0    0  0.22746485650E+03  0.76045455168E+02 -0.16393284774E+03  0.29051187715E+03  0.00000000000E+00 0.  1.
         22    1    1    2    0    0 -0.95751676583E+03 -0.15684626674E+03  0.11793462212E+04  0.15271858491E+04  0.00000000000E+00 0. -1.
<mgrwt>
<rscale>  0 0.26618523E+04</rscale>
<asrwt>0</asrwt>
<pdfrwt beam="1">  1        1 0.24759527E+00 0.26618523E+04</pdfrwt>
<pdfrwt beam="2">  1       -1 0.16933193E+00 0.26618523E+04</pdfrwt>
<totfact> 0.11987011E+00</totfact>
</mgrwt>
</event>
<event>
 6    1  0.1780144E-005  0.3548786E+04  0.7818608E-02  0.8102325E-01
         -2   -1    0    0    0  501 -0.00000000000E+00  0.00000000000E+00  0.20533975943E+04  0.20533975943E+04  0.00000000000E+00 0.  1.
          2   -1    0    0  501    0  0.00000000000E+00 -0.00000000000E+00 -0.15332978437E+04  0.15332978437E+04  0.00000000000E+00 0. -1.
         23    2    1    2    0    0  0.12569598057E+04 -0.12498794559E+04  0.30623106358E+03  0.18012301141E+04  0.92227176912E+02 0.  0.
         11    1    3    3    0    0  0.10772200849E+04 -0.10276501983E+04  0.24265416497E+03  0.15084260290E+04  0.00000000000E+00 0.  1.
        -11    1    3    3    0    0  0.17973972080E+03 -0.22222925765E+03  0.63576898611E+02  0.29280408506E+03  0.00000000000E+00 0. -1.
         22    1    1    2    0    0 -0.12569598057E+04  0.12498794559E+04  0.21386868704E+03  0.17854653239E+04  0.00000000000E+00 0.  1.
<mgrwt>
<rscale>  0 0.35487858E+04</rscale>
<asrwt>0</asrwt>
<pdfrwt beam="1">  1        2 0.23589197E+00 0.35487858E+04</pdfrwt>
<pdfrwt beam="2">  1       -2 0.31590733E+00 0.35487858E+04</pdfrwt>
<totfact> 0.25245224E-01</totfact>
</mgrwt>
</event>
<event>
 6    1  0.1780144E-005  0.4164657E+04  0.7818608E-02  0.7972130E-01
          2   -1    0    0  501    0  0.00000000000E+00  0.00000000000E+00  0.21875837646E+04  0.21875837646E+04  0.00000000000E+00 0. -1.
         -2   -1    0    0    0  501 -0.00000000000E+00 -0.00000000000E+00 -0.19821371129E+04  0.19821371129E+04  0.00000000000E+00 0.  1.
         23    2    1    2    0    0 -0.15223021417E+04 -0.27429435274E+03 -0.12915492409E+04  0.20171322254E+04  0.89898669604E+02 0.  0.
         11    1    3    3    0    0 -0.12947118840E+04 -0.22966797001E+03 -0.11379902503E+04  0.17389790248E+04  0.00000000000E+00 0.  1.
        -11    1    3    3    0    0 -0.22759025765E+03 -0.44626382735E+02 -0.15355899061E+03  0.27815320061E+03  0.00000000000E+00 0. -1.
         22    1    1    2    0    0  0.15223021417E+04  0.27429435274E+03  0.14969958926E+04  0.21525886520E+04  0.00000000000E+00 0. -1.
<mgrwt>
<rscale>  0 0.41646565E+04</rscale>
<asrwt>0</asrwt>
<pdfrwt beam="1">  1        2 0.33655135E+00 0.41646565E+04</pdfrwt>
<pdfrwt beam="2">  1       -2 0.30494417E+00 0.41646565E+04</pdfrwt>
<totfact> 0.12109062E-01</totfact>
</mgrwt>
</event>
<event>
 6    1  0.1780144E-005  0.8227421E+03  0.7818608E-02  0.9527670E-01
          1   -1    0    0  501    0  0.00000000000E+00  0.00000000000E+00  0.11331916727E+04  0.11331916727E+04  0.00000000000E+00 0. -1.
         -1   -1    0    0    0  501 -0.00000000000E+00 -0.00000000000E+00 -0.14933585254E+03  0.14933585254E+03  0.00000000000E+00 0.  1.
         23    2    1    2    0    0 -0.16144183590E+03  0.11628619578E+03 -0.53876955976E+02  0.22589359603E+03  0.92408033399E+02 0.  0.
         11    1    3    3    0    0 -0.80687575655E+02  0.70863944052E+01 -0.36239414221E+01  0.81079188465E+02  0.00000000000E+00 0. -1.
        -11    1    3    3    0    0 -0.80754260241E+02  0.10919980137E+03 -0.50253014554E+02  0.14481440757E+03  0.00000000000E+00 0.  1.
         22    1    1    2    0    0  0.16144183590E+03 -0.11628619578E+03  0.10377327761E+04  0.10566339292E+04  0.00000000000E+00 0. -1.
<mgrwt>
<rscale>  0 0.82274211E+03</rscale>
<asrwt>0</asrwt>
<pdfrwt beam="1">  1        1 0.17433717E+00 0.82274211E+03</pdfrwt>
<pdfrwt beam="2">  1       -1 0.22974747E-01 0.82274211E+03</pdfrwt>
<totfact> 0.19562587E+02</totfact>
</mgrwt>
</event>
<event>
 6    1  0.1780144E-005  0.2299140E+04  0.7818608E-02  0.8478260E-01
          2   -1    0    0  501    0  0.00000000000E+00  0.00000000000E+00  0.93067990093E+03  0.93067990093E+03  0.00000000000E+00 0.  1.
         -2   -1    0    0    0  501 -0.00000000000E+00 -0.00000000000E+00 -0.14199415138E+04  0.14199415138E+04  0.00000000000E+00 0. -1.
         23    2    1    2    0    0 -0.32529874966E+03 -0.63699582491E+03 -0.11628316322E+04  0.13681350137E+04  0.89627302196E+02 0.  0.
         13    1    3    3    0    0 -0.15865099016E+03 -0.39071755300E+03 -0.72880631835E+03  0.84201484106E+03  0.00000000000E+00 0. -1.
        -13    1    3    3    0    0 -0.16664775950E+03 -0.24627827191E+03 -0.43402531383E+03  0.52612017259E+03  0.00000000000E+00 0.  1.
         22    1    1    2    0    0  0.32529874966E+03  0.63699582491E+03  0.67357001928E+03  0.98248640111E+03  0.00000000000E+00 0.  1.
<mgrwt>
<rscale>  0 0.22991399E+04</rscale>
<asrwt>0</asrwt>
<pdfrwt beam="1">  1        2 0.14318152E+00 0.22991399E+04</pdfrwt>
<pdfrwt beam="2">  1       -2 0.21845254E+00 0.22991399E+04</pdfrwt>
<totfact> 0.25623685E+00</totfact>
</mgrwt>
</event>
<event>
 6    1  0.1780144E-005  0.2038527E+04  0.7818608E-02  0.8588817E-01
         -2   -1    0    0    0  501 -0.00000000000E+00  0.00000000000E+00  0.10088193298E+04  0.10088193298E+04  0.00000000000E+00 0.  1.
          2   -1    0    0  501    0  0.00000000000E+00 -0.00000000000E+00 -0.10298154146E+04  0.10298154146E+04  0.00000000000E+00 0. -1.
         23    2    1    2    0    0  0.41749619522E+03  0.42997044725E+03 -0.83252532425E+03  0.10297951312E+04  0.90564553175E+02 0.  0.
         11    1    3    3    0    0  0.35878259748E+02  0.66931525372E+02 -0.14518713737E+03  0.16384866026E+03  0.00000000000E+00 0. -1.
        -11    1    3    3    0    0  0.38161793547E+03  0.36303892188E+03 -0.68733818687E+03  0.86594647098E+03  0.00000000000E+00 0.  1.
         22    1    1    2    0    0 -0.41749619522E+03 -0.42997044725E+03  0.81152923946E+03  0.10088396131E+04  0.00000000000E+00 0.  1.
<mgrwt>
<rscale>  0 0.20385266E+04</rscale>
<asrwt>0</asrwt>
<pdfrwt beam="1">  1        2 0.15843314E+00 0.20385266E+04</pdfrwt>
<pdfrwt beam="2">  1       -2 0.15520297E+00 0.20385266E+04</pdfrwt>
<totfact> 0.61071508E+00</totfact>
</mgrwt>
</event>
<event>
 6    1  0.1780144E-005  0.1395223E+04  0.7818608E-02  0.8957283E-01
         -1   -1    0    0    0  501 -0.00000000000E+00  0.00000000000E+00  0.12569478985E+04  0.12569478985E+04  0.00000000000E+00 0.  1.
          1   -1    0    0  501    0  0.00000000000E+00 -0.00000000000E+00 -0.38717758300E+03  0.38717758300E+03  0.00000000000E+00 0. -1.
         23    2    1    2    0    0  0.22558865849E+03  0.61669967157E+02 -0.33418626009E+03  0.41766518308E+03  0.89834965548E+02 0.  0.
         11    1    3    3    0    0  0.71289094415E+02  0.21489527750E+02 -0.43801914385E+02  0.86386008642E+02  0.00000000000E+00 0. -1.
        -11    1    3    3    0    0  0.15429956408E+03  0.40180439407E+02 -0.29038434571E+03  0.33127917444E+03  0.00000000000E+00 0.  1.
         22    1    1    2    0    0 -0.22558865849E+03 -0.61669967157E+02  0.12039565756E+04  0.12264602984E+04  0.00000000000E+00 0.  1.
<mgrwt>
<rscale>  0 0.13952234E+04</rscale>
<asrwt>0</asrwt>
<pdfrwt beam="1">  1        1 0.59565783E-01 0.13952234E+04</pdfrwt>
<pdfrwt beam="2">  1       -1 0.19337660E+00 0.13952234E+04</pdfrwt>
<totfact> 0.10225762E+01</totfact>
</mgrwt>
</event>
<event>
 6    1  0.1780144E-005  0.2467657E+04  0.7818608E-02  0.8414599E-01
         -1   -1    0    0    0  501 -0.00000000000E+00  0.00000000000E+00  0.17667323327E+04  0.17667323327E+04  0.00000000000E+00 0.  1.
          1   -1    0    0  501    0  0.00000000000E+00 -0.00000000000E+00 -0.86166579483E+03  0.86166579483E+03  0.00000000000E+00 0. -1.
         23    2    1    2    0    0  0.29507794345E+03  0.90075041108E+03 -0.38544072224E+03  0.10272012989E+04  0.90308705312E+02 0.  0.
         13    1    3    3    0    0  0.24527093486E+03  0.69257957719E+03 -0.26158943358E+03  0.77990597766E+03  0.00000000000E+00 0. -1.
        -13    1    3    3    0    0  0.49807008593E+02  0.20817083389E+03 -0.12385128866E+03  0.24729532121E+03  0.00000000000E+00 0.  1.
         22    1    1    2    0    0 -0.29507794345E+03 -0.90075041108E+03  0.12905072602E+04  0.16011968287E+04  0.00000000000E+00 0. -1.
<mgrwt>
<rscale>  0 0.24676570E+04</rscale>
<asrwt>0</asrwt>
<pdfrwt beam="1">  1        1 0.13256397E+00 0.24676570E+04</pdfrwt>
<pdfrwt beam="2">  1       -1 0.27180497E+00 0.24676570E+04</pdfrwt>
<totfact> 0.87731464E-01</totfact>
</mgrwt>
</event>
<event>
 6    1  0.1780144E-005  0.1120323E+04  0.7818608E-02  0.9185607E-01
         -2   -1    0    0    0  501 -0.00000000000E+00  0.00000000000E+00  0.83480318148E+03  0.83480318148E+03  0.00000000000E+00 0.  1.
          2   -1    0    0  501    0  0.00000000000E+00 -0.00000000000E+00 -0.37587408265E+03  0.37587408265E+03  0.00000000000E+00 0. -1.
         23    2    1    2    0    0 -0.21253894426E+03  0.11917862485E+03  0.77144930673E+03  0.81438794079E+03  0.93366684701E+02 0.  0.
         11    1    3    3    0    0 -0.77097484276E+02  0.94252387851E+02  0.31930222548E+03  0.34173300381E+03  0.00000000000E+00 0. -1.
        -11    1    3    3    0    0 -0.13544145999E+03  0.24926236999E+02  0.45214708124E+03  0.47265493698E+03  0.00000000000E+00 0.  1.
         22    1    1    2    0    0  0.21253894426E+03 -0.11917862485E+03 -0.31252020789E+03  0.39628932333E+03  0.00000000000E+00 0. -1.
<mgrwt>
<rscale>  0 0.11203230E+04</rscale>
<asrwt>0</asrwt>
<pdfrwt beam="1">  1        2 0.57826782E-01 0.11203230E+04</pdfrwt>
<pdfrwt beam="2">  1       -2 0.12843126E+00 0.11203230E+04</pdfrwt>
<totfact> 0.37857575E+01</totfact>
</mgrwt>
</event>
<event>
 6    1  0.1780144E-005  0.2633854E+04  0.7818608E-02  0.8356792E-01
         -2   -1    0    0    0  501 -0.00000000000E+00  0.00000000000E+00  0.86740982845E+03  0.86740982845E+03  0.00000000000E+00 0.  1.
          2   -1    0    0  501    0  0.00000000000E+00 -0.00000000000E+00 -0.19993976142E+04  0.19993976142E+04  0.00000000000E+00 0. -1.
         23    2    1    2    0    0  0.13687800059E+03 -0.75315883032E+03 -0.17305871488E+04  0.18950538688E+04  0.10155528160E+03 0.  0.
         13    1    3    3    0    0  0.90416353698E+02 -0.59769984831E+03 -0.12652404047E+04  0.14022316169E+04  0.00000000000E+00 0.  1.
        -13    1    3    3    0    0  0.46461646892E+02 -0.15545898201E+03 -0.46534674406E+03  0.49282225186E+03  0.00000000000E+00 0. -1.
         22    1    1    2    0    0 -0.13687800059E+03  0.75315883032E+03  0.59859936311E+03  0.97175357383E+03  0.00000000000E+00 0.  1.
<mgrwt>
<rscale>  0 0.26338543E+04</rscale>
<asrwt>0</asrwt>
<pdfrwt beam="1">  1        2 0.30759963E+00 0.26338543E+04</pdfrwt>
<pdfrwt beam="2">  1       -2 0.13344767E+00 0.26338543E+04</pdfrwt>
<totfact> 0.23966963E+00</totfact>
</mgrwt>
</event>
<event>
 6    1  0.1780144E-005  0.9189976E+03  0.7818608E-02  0.9402140E-01
          4   -1    0    0  501    0  0.00000000000E+00  0.00000000000E+00  0.66820821823E+03  0.66820821823E+03  0.00000000000E+00 0. -1.
         -4   -1    0    0    0  501 -0.00000000000E+00 -0.00000000000E+00 -0.31597808701E+03  0.31597808701E+03  0.00000000000E+00 0.  1.
         23    2    1    2    0    0 -0.35004769350E+03  0.45118905191E+02  0.48555986530E+03  0.60689872088E+03  0.89378807829E+02 0.  0.
         11    1    3    3    0    0 -0.82150495196E+02 -0.11263581957E+02  0.66270318568E+02  0.10614766725E+03  0.00000000000E+00 0. -1.
        -11    1    3    3    0    0 -0.26789719830E+03  0.56382487148E+02  0.41928954673E+03  0.50075105363E+03  0.00000000000E+00 0.  1.
         22    1    1    2    0    0  0.35004769350E+03 -0.45118905191E+02 -0.13332973408E+03  0.37728758437E+03  0.00000000000E+00 0.  1.
<mgrwt>
<rscale>  0 0.91899762E+03</rscale>
<asrwt>0</asrwt>
<pdfrwt beam="1">  1        4 0.10280126E+00 0.91899762E+03</pdfrwt>
<pdfrwt beam="2">  1       -4 0.48612014E-01 0.91899762E+03</pdfrwt>
<totfact> 0.62849027E+00</totfact>
</mgrwt>
</event>
<event>
 6    1  0.1780144E-005  0.4264630E+04  0.7818608E-02  0.7953191E-01
         -1   -1    0    0    0  501 -0.00000000000E+00  0.00000000000E+00  0.13849112142E+04  0.13849112142E+04  0.00000000000E+00 0.  1.
          1   -1    0    0  501    0  0.00000000000E+00 -0.00000000000E+00 -0.32830741919E+04  0.32830741919E+04  0.00000000000E+00 0. -1.
         23    2    1    2    0    0 -0.16743210431E+04  0.12939598997E+04 -0.67029339314E+03  0.22214885444E+04  0.89637842756E+02 0.  0.
         13    1    3    3    0    0 -0.10579332644E+04  0.78735331809E+03 -0.45555124462E+03  0.13952329468E+04  0.00000000000E+00 0. -1.
        -13    1    3    3    0    0 -0.61638777870E+03  0.50660658162E+03 -0.21474214852E+03  0.82625559763E+03  0.00000000000E+00 0.  1.
         22    1    1    2    0    0  0.16743210431E+04 -0.12939598997E+04 -0.12278695846E+04  0.24464968616E+04  0.00000000000E+00 0.  1.
<mgrwt>
<rscale>  0 0.42646295E+04</rscale>
<asrwt>0</asrwt>
<pdfrwt beam="1">  1        1 0.50508834E+00 0.42646295E+04</pdfrwt>
<pdfrwt beam="2">  1       -1 0.21306326E+00 0.42646295E+04</pdfrwt>
<totfact> 0.34501544E-02</totfact>
</mgrwt>
</event>
<event>
 6    1  0.1780144E-005  0.3443589E+04  0.7818608E-02  0.8127290E-01
          2   -1    0    0  501    0  0.00000000000E+00  0.00000000000E+00  0.33592146068E+04  0.33592146068E+04  0.00000000000E+00 0. -1.
         -2   -1    0    0    0  501 -0.00000000000E+00 -0.00000000000E+00 -0.88252049659E+03  0.88252049659E+03  0.00000000000E+00 0.  1.
         23    2    1    2    0    0  0.36535647154E+03 -0.56964615828E+03  0.31877763436E+04  0.32600936008E+04  0.91160143781E+02 0.  0.
         11    1    3    3    0    0  0.68227910942E+02 -0.16795204988E+03  0.74450875546E+03  0.76626119949E+03  0.00000000000E+00 0.  1.
        -11    1    3    3    0    0  0.29712856059E+03 -0.40169410840E+03  0.24432675882E+04  0.24938324013E+04  0.00000000000E+00 0. -1.
         22    1    1    2    0    0 -0.36535647154E+03  0.56964615828E+03 -0.71108223344E+03  0.98164150261E+03  0.00000000000E+00 0.  1.
<mgrwt>
<rscale>  0 0.34435887E+04</rscale>
<asrwt>0</asrwt>
<pdfrwt beam="1">  1        2 0.51680224E+00 0.34435887E+04</pdfrwt>
<pdfrwt beam="2">  1       -2 0.13577239E+00 0.34435887E+04</pdfrwt>
<totfact> 0.32575389E-01</totfact>
</mgrwt>
</event>
<event>
 6    1  0.1780144E-005  0.4306984E+04  0.7818608E-02  0.7945328E-01
          1   -1    0    0  501    0  0.00000000000E+00  0.00000000000E+00  0.23960573320E+04  0.23960573320E+04  0.00000000000E+00 0. -1.
         -1   -1    0    0    0  501 -0.00000000000E+00 -0.00000000000E+00 -0.19354826880E+04  0.19354826880E+04  0.00000000000E+00 0.  1.
         23    2    1    2    0    0 -0.21059814763E+04 -0.64435546126E+02 -0.21270497498E+03  0.21196143062E+04  0.90617229755E+02 0.  0.
         13    1    3    3    0    0 -0.17691885784E+03 -0.29685459160E+02 -0.25092526717E+02  0.18113846539E+03  0.00000000000E+00 0. -1.
        -13    1    3    3    0    0 -0.19290626185E+04 -0.34750086966E+02 -0.18761244826E+03  0.19384758408E+04  0.00000000000E+00 0.  1.
         22    1    1    2    0    0  0.21059814763E+04  0.64435546126E+02  0.67327961904E+03  0.22119257139E+04  0.00000000000E+00 0.  1.
<mgrwt>
<rscale>  0 0.43069839E+04</rscale>
<asrwt>0</asrwt>
<pdfrwt beam="1">  1        1 0.36862420E+00 0.43069839E+04</pdfrwt>
<pdfrwt beam="2">  1       -1 0.29776657E+00 0.43069839E+04</pdfrwt>
<totfact> 0.41668485E-02</totfact>
</mgrwt>
</event>
<event>
 6    1  0.1780144E-005  0.2074458E+04  0.7818608E-02  0.8572579E-01
         -1   -1    0    0    0  501 -0.00000000000E+00  0.00000000000E+00  0.10421761370E+04  0.10421761370E+04  0.00000000000E+00 0.  1.
          1   -1    0    0  501    0  0.00000000000E+00 -0.00000000000E+00 -0.10323056077E+04  0.10323056077E+04  0.00000000000E+00 0. -1.
         23    2    1    2    0    0 -0.33731479601E+03 -0.46511124437E+03 -0.85621538289E+03  0.10351480406E+04  0.91197274016E+02 0.  0.
         13    1    3    3    0    0 -0.13719874361E+03 -0.24583616435E+03 -0.47234481553E+03  0.54988047766E+03  0.00000000000E+00 0. -1.
        -13    1    3    3    0    0 -0.20011605241E+03 -0.21927508002E+03 -0.38387056736E+03  0.48526756293E+03  0.00000000000E+00 0.  1.
         22    1    1    2    0    0  0.33731479601E+03  0.46511124437E+03  0.86608591220E+03  0.10393337041E+04  0.00000000000E+00 0.  1.
<mgrwt>
<rscale>  0 0.20744583E+04</rscale>
<asrwt>0</asrwt>
<pdfrwt beam="1">  1        1 0.15881625E+00 0.20744583E+04</pdfrwt>
<pdfrwt beam="2">  1       -1 0.16033479E+00 0.20744583E+04</pdfrwt>
<totfact> 0.38244008E+00</totfact>
</mgrwt>
</event>
<event>
 6    1  0.1780144E-005  0.3674617E+04  0.7818608E-02  0.8073610E-01
          1   -1    0    0  501    0  0.00000000000E+00  0.00000000000E+00  0.16641295521E+04  0.16641295521E+04  0.00000000000E+00 0. -1.
         -1   -1    0    0    0  501 -0.00000000000E+00 -0.00000000000E+00 -0.20285096232E+04  0.20285096232E+04  0.00000000000E+00 0.  1.
         23    2    1    2    0    0  0.10124419430E+04 -0.11887368155E+03  0.13523882504E+04  0.16960262660E+04  0.91550395680E+02 0.  0.
         11    1    3    3    0    0  0.44546793149E+03 -0.13913831903E+02  0.63063118048E+03  0.77222468135E+03  0.00000000000E+00 0. -1.
        -11    1    3    3    0    0  0.56697401148E+03 -0.10495984965E+03  0.72175706994E+03  0.92380158461E+03  0.00000000000E+00 0.  1.
         22    1    1    2    0    0 -0.10124419430E+04  0.11887368155E+03 -0.17167683215E+04  0.19966129093E+04  0.00000000000E+00 0.  1.
<mgrwt>
<rscale>  0 0.36746172E+04</rscale>
<asrwt>0</asrwt>
<pdfrwt beam="1">  1        1 0.25601993E+00 0.36746172E+04</pdfrwt>
<pdfrwt beam="2">  1       -1 0.31207841E+00 0.36746172E+04</pdfrwt>
<totfact> 0.11174377E-01</totfact>
</mgrwt>
</event>
<event>
 6    1  0.1780144E-005  0.2047868E+04  0.7818608E-02  0.8584562E-01
          1   -1    0    0  501    0  0.00000000000E+00  0.00000000000E+00  0.24884623211E+04  0.24884623211E+04  0.00000000000E+00 0. -1.
         -1   -1    0    0    0  501 -0.00000000000E+00 -0.00000000000E+00 -0.42132086750E+03  0.42132086750E+03  0.00000000000E+00 0.  1.
         23    2    1    2    0    0  0.75224153554E+03 -0.49423395406E+02  0.20157066662E+04  0.21541671901E+04  0.95146829741E+02 0.  0.
         13    1    3    3    0    0  0.31814059760E+03 -0.45964477787E+02  0.74628172856E+03  0.81256543826E+03  0.00000000000E+00 0.  1.
        -13    1    3    3    0    0  0.43410093794E+03 -0.34589176183E+01  0.12694249376E+04  0.13416017519E+04  0.00000000000E+00 0. -1.
         22    1    1    2    0    0 -0.75224153554E+03  0.49423395406E+02  0.51434787443E+02  0.75561599848E+03  0.00000000000E+00 0.  1.
<mgrwt>
<rscale>  0 0.20478683E+04</rscale>
<asrwt>0</asrwt>
<pdfrwt beam="1">  1        1 0.38284035E+00 0.20478683E+04</pdfrwt>
<pdfrwt beam="2">  1       -1 0.64818596E-01 0.20478683E+04</pdfrwt>
<totfact> 0.30775995E+00</totfact>
</mgrwt>
</event>
<event>
 6    1  0.1780144E-005  0.3057127E+03  0.7818608E-02  0.1082419E+00
          1   -1    0    0  501    0  0.00000000000E+00  0.00000000000E+00  0.11309866638E+03  0.11309866638E+03  0.00000000000E+00 0.  1.
         -1   -1    0    0    0  501 -0.00000000000E+00 -0.00000000000E+00 -0.20659014619E+03  0.20659014619E+03  0.00000000000E+00 0. -1.
         23    2    1    2    0    0  0.97359107187E+02  0.42407733589E+02 -0.15108088777E+03  0.19888421195E+03  0.73839579446E+02 0.  0.
         13    1    3    3    0    0  0.68649607163E+02 -0.39061763493E+01 -0.53508546901E+02  0.87127443258E+02  0.00000000000E+00 0. -1.
        -13    1    3    3    0    0  0.28709500025E+02  0.46313909938E+02 -0.97572340873E+02  0.11175676869E+03  0.00000000000E+00 0.  1.
         22    1    1    2    0    0 -0.97359107187E+02 -0.42407733589E+02  0.57589407963E+02  0.12080460062E+03  0.00000000000E+00 0.  1.
<mgrwt>
<rscale>  0 0.30571274E+03</rscale>
<asrwt>0</asrwt>
<pdfrwt beam="1">  1        1 0.17399795E-01 0.30571274E+03</pdfrwt>
<pdfrwt beam="2">  1       -1 0.31783099E-01 0.30571274E+03</pdfrwt>
<totfact> 0.28326474E+03</totfact>
</mgrwt>
</event>
<event>
 6    1  0.1780144E-005  0.9094315E+03  0.7818608E-02  0.9413868E-01
          2   -1    0    0  501    0  0.00000000000E+00  0.00000000000E+00  0.35638557755E+03  0.35638557755E+03  0.00000000000E+00 0. -1.
         -2   -1    0    0    0  501 -0.00000000000E+00 -0.00000000000E+00 -0.58017617457E+03  0.58017617457E+03  0.00000000000E+00 0.  1.
         23    2    1    2    0    0 -0.16916148030E+03 -0.28779262236E+03 -0.42371887222E+03  0.54744542616E+03  0.93373508229E+02 0.  0.
         11    1    3    3    0    0 -0.35767761962E+02 -0.12242659321E+03 -0.10928389645E+03  0.16796003556E+03  0.00000000000E+00 0. -1.
        -11    1    3    3    0    0 -0.13339371834E+03 -0.16536602915E+03 -0.31443497577E+03  0.37948539059E+03  0.00000000000E+00 0.  1.
         22    1    1    2    0    0  0.16916148030E+03  0.28779262236E+03  0.19992827520E+03  0.38911632596E+03  0.00000000000E+00 0. -1.
<mgrwt>
<rscale>  0 0.90943152E+03</rscale>
<asrwt>0</asrwt>
<pdfrwt beam="1">  1        2 0.54828551E-01 0.90943152E+03</pdfrwt>
<pdfrwt beam="2">  1       -2 0.89257872E-01 0.90943152E+03</pdfrwt>
<totfact> 0.97867468E+01</totfact>
</mgrwt>
</event>
<event>
 6    1  0.1780144E-005  0.2259084E+04  0.7818608E-02  0.8494231E-01
         -2   -1    0    0    0  501 -0.00000000000E+00  0.00000000000E+00  0.40811978577E+03  0.40811978577E+03  0.00000000000E+00 0. -1.
          2   -1    0    0  501    0  0.00000000000E+00 -0.00000000000E+00 -0.31262012105E+04  0.31262012105E+04  0.00000000000E+00 0.  1.
         23    2    1    2    0    0 -0.11160764469E+04 -0.14496056069E+03 -0.12450023876E+04  0.16805135497E+04  0.86340292492E+02 0.  0.
         11    1    3    3    0    0 -0.57234934458E+03 -0.35635764873E+02 -0.60348628946E+03  0.83249587479E+03  0.00000000000E+00 0. -1.
        -11    1    3    3    0    0 -0.54372710230E+03 -0.10932479582E+03 -0.64151609819E+03  0.84801767493E+03  0.00000000000E+00 0.  1.
         22    1    1    2    0    0  0.11160764469E+04  0.14496056069E+03 -0.14730790371E+04  0.18538074466E+04  0.00000000000E+00 0.  1.
<mgrwt>
<rscale>  0 0.22590835E+04</rscale>
<asrwt>0</asrwt>
<pdfrwt beam="1">  1        2 0.48095401E+00 0.22590835E+04</pdfrwt>
<pdfrwt beam="2">  1       -2 0.62787663E-01 0.22590835E+04</pdfrwt>
<totfact> 0.31009380E+00</totfact>
</mgrwt>
</event>
<event>
 6    1  0.1780144E-005  0.2117287E+04  0.7818608E-02  0.8553667E-01
         -2   -1    0    0    0  501 -0.00000000000E+00  0.00000000000E+00  0.37563043343E+03  0.37563043343E+03  0.00000000000E+00 0.  1.
          2   -1    0    0  501    0  0.00000000000E+00 -0.00000000000E+00 -0.29835857510E+04  0.29835857510E+04  0.00000000000E+00 0. -1.
         23    2    1    2    0    0  0.10982868924E+03  0.33150504682E+03 -0.28886898560E+04  0.29111427328E+04  0.90911986677E+02 0.  0.
         11    1    3    3    0    0  0.79858318713E+02  0.16733365424E+03 -0.18316035962E+04  0.18409643225E+04  0.00000000000E+00 0. -1.
        -11    1    3    3    0    0  0.29970370526E+02  0.16417139258E+03 -0.10570862597E+04  0.10701784103E+04  0.00000000000E+00 0.  1.
         22    1    1    2    0    0 -0.10982868924E+03 -0.33150504682E+03  0.28073453842E+03  0.44807345169E+03  0.00000000000E+00 0.  1.
<mgrwt>
<rscale>  0 0.21172866E+04</rscale>
<asrwt>0</asrwt>
<pdfrwt beam="1">  1        2 0.45901317E+00 0.21172866E+04</pdfrwt>
<pdfrwt beam="2">  1       -2 0.57789300E-01 0.21172866E+04</pdfrwt>
<totfact> 0.46068711E+00</totfact>
</mgrwt>
</event>
<event>
 6    1  0.1780144E-005  0.2650834E+04  0.7818608E-02  0.8351136E-01
         -2   -1    0    0    0  501 -0.00000000000E+00  0.00000000000E+00  0.12448048035E+04  0.12448048035E+04  0.00000000000E+00 0.  1.
          2   -1    0    0  501    0  0.00000000000E+00 -0.00000000000E+00 -0.14112498879E+04  0.14112498879E+04  0.00000000000E+00 0. -1.
         23    2    1    2    0    0 -0.92010152002E+03 -0.60369777136E+03 -0.82061755029E+03  0.13758283749E+04  0.91938821870E+02 0.  0.
         13    1    3    3    0    0 -0.56073663174E+02 -0.63267997123E+02 -0.75772768452E+02  0.11352800360E+03  0.00000000000E+00 0. -1.
        -13    1    3    3    0    0 -0.86402785685E+03 -0.54042977423E+03 -0.74484478184E+03  0.12623003713E+04  0.00000000000E+00 0.  1.
         22    1    1    2    0    0  0.92010152002E+03  0.60369777136E+03  0.65417246587E+03  0.12802263165E+04  0.00000000000E+00 0.  1.
<mgrwt>
<rscale>  0 0.26508343E+04</rscale>
<asrwt>0</asrwt>
<pdfrwt beam="1">  1        2 0.21711537E+00 0.26508343E+04</pdfrwt>
<pdfrwt beam="2">  1       -2 0.19150843E+00 0.26508343E+04</pdfrwt>
<totfact> 0.19020312E+00</totfact>
</mgrwt>
</event>
<event>
 6    1  0.1780144E-005  0.1951139E+04  0.7818608E-02  0.8629812E-01
          1   -1    0    0  501    0  0.00000000000E+00  0.00000000000E+00  0.14579475362E+04  0.14579475362E+04  0.00000000000E+00 0. -1.
         -1   -1    0    0    0  501 -0.00000000000E+00 -0.00000000000E+00 -0.65279173086E+03  0.65279173086E+03  0.00000000000E+00 0.  1.
         23    2    1    2    0    0  0.89263341147E+03  0.68483243403E+02  0.81692025478E+03  0.12154053829E+04  0.91472291808E+02 0.  0.
         13    1    3    3    0    0  0.74042103445E+02 -0.18965805568E+02  0.77342053876E+02  0.10873696778E+03  0.00000000000E+00 0.  1.
        -13    1    3    3    0    0  0.81859130802E+03  0.87449048971E+02  0.73957820090E+03  0.11066684151E+04  0.00000000000E+00 0. -1.
         22    1    1    2    0    0 -0.89263341147E+03 -0.68483243403E+02 -0.11764449430E+02  0.89533388418E+03  0.00000000000E+00 0.  1.
<mgrwt>
<rscale>  0 0.19511393E+04</rscale>
<asrwt>0</asrwt>
<pdfrwt beam="1">  1        1 0.22429962E+00 0.19511393E+04</pdfrwt>
<pdfrwt beam="2">  1       -1 0.10042950E+00 0.19511393E+04</pdfrwt>
<totfact> 0.61519854E+00</totfact>
</mgrwt>
</event>
<event>
 6    1  0.1780144E-005  0.3312611E+04  0.7818608E-02  0.8159694E-01
         -1   -1    0    0    0  501 -0.00000000000E+00  0.00000000000E+00  0.13881188239E+04  0.13881188239E+04  0.00000000000E+00 0.  1.
          1   -1    0    0  501    0  0.00000000000E+00 -0.00000000000E+00 -0.19763063535E+04  0.19763063535E+04  0.00000000000E+00 0. -1.
         23    2    1    2    0    0  0.10902692944E+04  0.58550410139E+03  0.82164127916E+03  0.14884935536E+04  0.94955149411E+02 0.  0.
         13    1    3    3    0    0  0.27606816949E+03  0.19432330688E+03  0.23761585037E+03  0.41283952590E+03  0.00000000000E+00 0.  1.
        -13    1    3    3    0    0  0.81420112494E+03  0.39118079451E+03  0.58402542879E+03  0.10756540277E+04  0.00000000000E+00 0. -1.
         22    1    1    2    0    0 -0.10902692944E+04 -0.58550410139E+03 -0.14098288088E+04  0.18759316238E+04  0.00000000000E+00 0. -1.
<mgrwt>
<rscale>  0 0.33126111E+04</rscale>
<asrwt>0</asrwt>
<pdfrwt beam="1">  1        1 0.30404713E+00 0.33126111E+04</pdfrwt>
<pdfrwt beam="2">  1       -1 0.21355674E+00 0.33126111E+04</pdfrwt>
<totfact> 0.31169669E-01</totfact>
</mgrwt>
</event>
<event>
 6    1  0.1780144E-005  0.2585759E+04  0.7818608E-02  0.8373055E-01
          2   -1    0    0  501    0  0.00000000000E+00  0.00000000000E+00  0.12494463997E+04  0.12494463997E+04  0.00000000000E+00 0. -1.
         -2   -1    0    0    0  501 -0.00000000000E+00 -0.00000000000E+00 -0.13378227964E+04  0.13378227964E+04  0.00000000000E+00 0.  1.
         23    2    1    2    0    0 -0.10765972526E+04 -0.70827393536E+03 -0.12915531794E+03  0.12979373799E+04  0.85127752243E+02 0.  0.
         11    1    3    3    0    0 -0.89995521434E+03 -0.60167593788E+03 -0.13866951263E+03  0.10914039380E+04  0.00000000000E+00 0.  1.
        -11    1    3    3    0    0 -0.17664203827E+03 -0.10659799748E+03  0.95141946902E+01  0.20653344197E+03  0.00000000000E+00 0. -1.
         22    1    1    2    0    0  0.10765972526E+04  0.70827393536E+03  0.40778921234E+02  0.12893318162E+04  0.00000000000E+00 0. -1.
<mgrwt>
<rscale>  0 0.25857594E+04</rscale>
<asrwt>0</asrwt>
<pdfrwt beam="1">  1        2 0.19222252E+00 0.25857594E+04</pdfrwt>
<pdfrwt beam="2">  1       -2 0.20581889E+00 0.25857594E+04</pdfrwt>
<totfact> 0.19102660E+00</totfact>
</mgrwt>
</event>
<event>
 6    1  0.1780144E-005  0.3743507E+04  0.7818608E-02  0.8058388E-01
         -2   -1    0    0    0  501 -0.00000000000E+00  0.00000000000E+00  0.84666346885E+03  0.84666346885E+03  0.00000000000E+00 0.  1.
          2   -1    0    0  501    0  0.00000000000E+00 -0.00000000000E+00 -0.41379625185E+04  0.41379625185E+04  0.00000000000E+00 0. -1.
         23    2    1    2    0    0 -0.39342246767E+03  0.10412854431E+03 -0.40777865085E+04  0.40990829253E+04  0.92271493106E+02 0.  0.
         13    1    3    3    0    0 -0.25495619897E+03  0.23380616933E+02 -0.26423025125E+04  0.26546773597E+04  0.00000000000E+00 0.  1.
        -13    1    3    3    0    0 -0.13846626870E+03  0.80747927381E+02 -0.14354839960E+04  0.14444055656E+04  0.00000000000E+00 0. -1.
         22    1    1    2    0    0  0.39342246767E+03 -0.10412854431E+03  0.78648745881E+03  0.88554306201E+03  0.00000000000E+00 0.  1.
<mgrwt>
<rscale>  0 0.37435073E+04</rscale>
<asrwt>0</asrwt>
<pdfrwt beam="1">  1        2 0.63660963E+00 0.37435073E+04</pdfrwt>
<pdfrwt beam="2">  1       -2 0.13025592E+00 0.37435073E+04</pdfrwt>
<totfact> 0.91155831E-02</totfact>
</mgrwt>
</event>
<event>
 6    1  0.1780144E-005  0.2404965E+04  0.7818608E-02  0.8437647E-01
         -1   -1    0    0    0  501 -0.00000000000E+00  0.00000000000E+00  0.91415866367E+03  0.91415866367E+03  0.00000000000E+00 0.  1.
          1   -1    0    0  501    0  0.00000000000E+00 -0.00000000000E+00 -0.15817431217E+04  0.15817431217E+04  0.00000000000E+00 0. -1.
         23    2    1    2    0    0 -0.47253187623E+02 -0.11961574691E+04 -0.23715516772E+03  0.12237795709E+04  0.91478467739E+02 0.  0.
         13    1    3    3    0    0 -0.27486582274E+02 -0.11571741726E+03 -0.38792116668E+02  0.12510340195E+03  0.00000000000E+00 0. -1.
        -13    1    3    3    0    0 -0.19766605349E+02 -0.10804400518E+04 -0.19836305106E+03  0.10986761690E+04  0.00000000000E+00 0.  1.
         22    1    1    2    0    0  0.47253187623E+02  0.11961574691E+04 -0.43042929033E+03  0.12721222145E+04  0.00000000000E+00 0. -1.
<mgrwt>
<rscale>  0 0.24049650E+04</rscale>
<asrwt>0</asrwt>
<pdfrwt beam="1">  1        1 0.24334510E+00 0.24049650E+04</pdfrwt>
<pdfrwt beam="2">  1       -1 0.14063979E+00 0.24049650E+04</pdfrwt>
<totfact> 0.21309483E+00</totfact>
</mgrwt>
</event>
<event>
 6    1  0.1780144E-005  0.8552651E+03  0.7818608E-02  0.9483298E-01
         -2   -1    0    0    0  501 -0.00000000000E+00  0.00000000000E+00  0.10320407165E+03  0.10320407165E+03  0.00000000000E+00 0.  1.
          2   -1    0    0  501    0  0.00000000000E+00 -0.00000000000E+00 -0.17719221171E+04  0.17719221171E+04  0.00000000000E+00 0. -1.
         23    2    1    2    0    0 -0.37932677377E+03  0.53397982986E+02 -0.12358832760E+04  0.12971243864E+04  0.91564491062E+02 0.  0.
         13    1    3    3    0    0 -0.22648822827E+03  0.74838223606E+02 -0.79462003819E+03  0.82964973474E+03  0.00000000000E+00 0. -1.
        -13    1    3    3    0    0 -0.15283854550E+03 -0.21440240620E+02 -0.44126323778E+03  0.46747465164E+03  0.00000000000E+00 0.  1.
         22    1    1    2    0    0  0.37932677377E+03 -0.53397982986E+02 -0.43283476953E+03  0.57800180242E+03  0.00000000000E+00 0.  1.
<mgrwt>
<rscale>  0 0.85526505E+03</rscale>
<asrwt>0</asrwt>
<pdfrwt beam="1">  1        2 0.27260342E+00 0.85526505E+03</pdfrwt>
<pdfrwt beam="2">  1       -2 0.15877548E-01 0.85526505E+03</pdfrwt>
<totfact> 0.28760044E+02</totfact>
</mgrwt>
</event>
<event>
 6    1  0.1780144E-005  0.4473634E+04  0.7818608E-02  0.7915269E-01
          2   -1    0    0  501    0  0.00000000000E+00  0.00000000000E+00  0.29148723757E+04  0.29148723757E+04  0.00000000000E+00 0. -1.
         -2   -1    0    0    0  501 -0.00000000000E+00 -0.00000000000E+00 -0.17164900706E+04  0.17164900706E+04  0.00000000000E+00 0.  1.
         23    2    1    2    0    0 -0.38932340523E+03 -0.19787106954E+04 -0.40045196612E+03  0.20578163020E+04  0.85891942169E+02 0.  0.
         11    1    3    3    0    0 -0.12846410462E+03 -0.83989798268E+03 -0.14593871490E+03  0.86210774036E+03  0.00000000000E+00 0. -1.
        -11    1    3    3    0    0 -0.26085930062E+03 -0.11388127127E+04 -0.25451325122E+03  0.11957085616E+04  0.00000000000E+00 0.  1.
         22    1    1    2    0    0  0.38932340523E+03  0.19787106954E+04  0.15988342713E+04  0.25735461443E+04  0.00000000000E+00 0.  1.
<mgrwt>
<rscale>  0 0.44736336E+04</rscale>
<asrwt>0</asrwt>
<pdfrwt beam="1">  1        2 0.44844190E+00 0.44736336E+04</pdfrwt>
<pdfrwt beam="2">  1       -2 0.26407540E+00 0.44736336E+04</pdfrwt>
<totfact> 0.78656186E-02</totfact>
</mgrwt>
</event>
<event>
 6    1  0.1780144E-005  0.2322728E+04  0.7818608E-02  0.8469013E-01
         -2   -1    0    0    0  501 -0.00000000000E+00  0.00000000000E+00  0.52575995762E+03  0.52575995762E+03  0.00000000000E+00 0.  1.
          2   -1    0    0  501    0  0.00000000000E+00 -0.00000000000E+00 -0.25653644042E+04  0.25653644042E+04  0.00000000000E+00 0. -1.
         23    2    1    2    0    0 -0.97733229169E+03  0.24425282817E+03 -0.17856390093E+04  0.20522132512E+04  0.90745272528E+02 0.  0.
         11    1    3    3    0    0 -0.80777055387E+03  0.19512496931E+03 -0.13993567345E+04  0.16275030850E+04  0.00000000000E+00 0. -1.
        -11    1    3    3    0    0 -0.16956173782E+03  0.49127858862E+02 -0.38628227481E+03  0.42471016621E+03  0.00000000000E+00 0.  1.
         22    1    1    2    0    0  0.97733229169E+03 -0.24425282817E+03 -0.25396543730E+03  0.10389111106E+04  0.00000000000E+00 0.  1.
<mgrwt>
<rscale>  0 0.23227276E+04</rscale>
<asrwt>0</asrwt>
<pdfrwt beam="1">  1        2 0.39467143E+00 0.23227276E+04</pdfrwt>
<pdfrwt beam="2">  1       -2 0.80886150E-01 0.23227276E+04</pdfrwt>
<totfact> 0.38911706E+00</totfact>
</mgrwt>
</event>
<event>
 6    1  0.1780144E-005  0.3176034E+04  0.7818608E-02  0.8195175E-01
          2   -1    0    0  501    0  0.00000000000E+00  0.00000000000E+00  0.13639965046E+04  0.13639965046E+04  0.00000000000E+00 0. -1.
         -2   -1    0    0    0  501 -0.00000000000E+00 -0.00000000000E+00 -0.18488303867E+04  0.18488303867E+04  0.00000000000E+00 0.  1.
         23    2    1    2    0    0  0.90281123215E+03  0.11281367502E+04  0.41976931694E+03  0.15081076781E+04  0.10208741889E+03 0.  0.
         11    1    3    3    0    0  0.59674181198E+03  0.68057917425E+03  0.23322625514E+03  0.93471026991E+03  0.00000000000E+00 0. -1.
        -11    1    3    3    0    0  0.30606942017E+03  0.44755757599E+03  0.18654306180E+03  0.57339740817E+03  0.00000000000E+00 0.  1.
         22    1    1    2    0    0 -0.90281123215E+03 -0.11281367502E+04 -0.90460319907E+03  0.17047192132E+04  0.00000000000E+00 0.  1.
<mgrwt>
<rscale>  0 0.31760341E+04</rscale>
<asrwt>0</asrwt>
<pdfrwt beam="1">  1        2 0.20984562E+00 0.31760341E+04</pdfrwt>
<pdfrwt beam="2">  1       -2 0.28443544E+00 0.31760341E+04</pdfrwt>
<totfact> 0.50664994E-01</totfact>
</mgrwt>
</event>
<event>
 6    1  0.1780144E-005  0.1363821E+04  0.7818608E-02  0.8980431E-01
          2   -1    0    0  501    0  0.00000000000E+00  0.00000000000E+00  0.84754165414E+03  0.84754165414E+03  0.00000000000E+00 0. -1.
         -2   -1    0    0    0  501 -0.00000000000E+00 -0.00000000000E+00 -0.54864803838E+03  0.54864803838E+03  0.00000000000E+00 0.  1.
         23    2    1    2    0    0  0.48472780360E+03 -0.22575459252E+03  0.57854915542E+03  0.79275502291E+03  0.88403741281E+02 0.  0.
         11    1    3    3    0    0  0.23736827521E+03 -0.12983362689E+03  0.23266421956E+03  0.35683764909E+03  0.00000000000E+00 0. -1.
        -11    1    3    3    0    0  0.24735952839E+03 -0.95920965633E+02  0.34588493586E+03  0.43591737381E+03  0.00000000000E+00 0.  1.
         22    1    1    2    0    0 -0.48472780360E+03  0.22575459252E+03 -0.27965553966E+03  0.60343466961E+03  0.00000000000E+00 0.  1.
<mgrwt>
<rscale>  0 0.13638212E+04</rscale>
<asrwt>0</asrwt>
<pdfrwt beam="1">  1        2 0.13039102E+00 0.13638212E+04</pdfrwt>
<pdfrwt beam="2">  1       -2 0.84407390E-01 0.13638212E+04</pdfrwt>
<totfact> 0.38081055E+01</totfact>
</mgrwt>
</event>
<event>
 6    1  0.1780144E-005  0.5388464E+04  0.7818608E-02  0.7771226E-01
          1   -1    0    0  501    0  0.00000000000E+00  0.00000000000E+00  0.35755250148E+04  0.35755250148E+04  0.00000000000E+00 0. -1.
         -1   -1    0    0    0  501 -0.00000000000E+00 -0.00000000000E+00 -0.20301597061E+04  0.20301597061E+04  0.00000000000E+00 0.  1.
         23    2    1    2    0    0 -0.11928869567E+04  0.21904515818E+04  0.18304496034E+04  0.30952404417E+04  0.94393949330E+02 0.  0.
         11    1    3    3    0    0 -0.53049208178E+03  0.89079369451E+03  0.73078900516E+03  0.12684588385E+04  0.00000000000E+00 0.  1.
        -11    1    3    3    0    0 -0.66239487492E+03  0.12996578873E+04  0.10996605983E+04  0.18267816032E+04  0.00000000000E+00 0. -1.
         22    1    1    2    0    0  0.11928869567E+04 -0.21904515818E+04 -0.28508429475E+03  0.25104442792E+04  0.00000000000E+00 0.  1.
<mgrwt>
<rscale>  0 0.53884643E+04</rscale>
<asrwt>0</asrwt>
<pdfrwt beam="1">  1        1 0.55008077E+00 0.53884643E+04</pdfrwt>
<pdfrwt beam="2">  1       -1 0.31233226E+00 0.53884643E+04</pdfrwt>
<totfact> 0.41792711E-03</totfact>
</mgrwt>
</event>
<event>
 6    1  0.1780144E-005  0.3333431E+04  0.7818608E-02  0.8154441E-01
         -2   -1    0    0    0  501 -0.00000000000E+00  0.00000000000E+00  0.22176152754E+04  0.22176152754E+04  0.00000000000E+00 0. -1.
          2   -1    0    0  501    0  0.00000000000E+00 -0.00000000000E+00 -0.12526704428E+04  0.12526704428E+04  0.00000000000E+00 0.  1.
         23    2    1    2    0    0 -0.15401974453E+04 -0.63319624105E+03  0.48839367603E+03  0.17381637090E+04  0.97668041884E+02 0.  0.
         11    1    3    3    0    0 -0.10479651308E+04 -0.45187905764E+03  0.37704980684E+03  0.12019118749E+04  0.00000000000E+00 0. -1.
        -11    1    3    3    0    0 -0.49223231444E+03 -0.18131718341E+03  0.11134386919E+03  0.53625183411E+03  0.00000000000E+00 0.  1.
         22    1    1    2    0    0  0.15401974453E+04  0.63319624105E+03  0.47655115656E+03  0.17321220092E+04  0.00000000000E+00 0. -1.
<mgrwt>
<rscale>  0 0.33334313E+04</rscale>
<asrwt>0</asrwt>
<pdfrwt beam="1">  1        2 0.19271853E+00 0.33334313E+04</pdfrwt>
<pdfrwt beam="2">  1       -2 0.34117158E+00 0.33334313E+04</pdfrwt>
<totfact> 0.25943093E-01</totfact>
</mgrwt>
</event>
<event>
 6    1  0.1780144E-005  0.2027815E+04  0.7818608E-02  0.8593726E-01
         -1   -1    0    0    0  501 -0.00000000000E+00  0.00000000000E+00  0.23618469314E+04  0.23618469314E+04  0.00000000000E+00 0.  1.
          1   -1    0    0  501    0  0.00000000000E+00 -0.00000000000E+00 -0.43525609246E+03  0.43525609246E+03  0.00000000000E+00 0. -1.
         23    2    1    2    0    0  0.22867658207E+03 -0.72122063992E+03  0.18919442393E+04  0.20397044646E+04  0.92136353471E+02 0.  0.
         11    1    3    3    0    0  0.10670990304E+03 -0.28652844277E+03  0.65224809906E+03  0.72035625537E+03  0.00000000000E+00 0.  1.
        -11    1    3    3    0    0  0.12196667903E+03 -0.43469219715E+03  0.12396961403E+04  0.13193482093E+04  0.00000000000E+00 0. -1.
         22    1    1    2    0    0 -0.22867658207E+03  0.72122063992E+03  0.34646599580E+02  0.75739855921E+03  0.00000000000E+00 0. -1.
<mgrwt>
<rscale>  0 0.20278148E+04</rscale>
<asrwt>0</asrwt>
<pdfrwt beam="1">  1        1 0.66962477E-01 0.20278148E+04</pdfrwt>
<pdfrwt beam="2">  1       -1 0.36336106E+00 0.20278148E+04</pdfrwt>
<totfact> 0.62853505E-01</totfact>
</mgrwt>
</event>
<event>
 6    1  0.1780144E-005  0.3618437E+04  0.7818608E-02  0.8086281E-01
         -1   -1    0    0    0  501 -0.00000000000E+00  0.00000000000E+00  0.12494159576E+04  0.12494159576E+04  0.00000000000E+00 0.  1.
          1   -1    0    0  501    0  0.00000000000E+00 -0.00000000000E+00 -0.26198417818E+04  0.26198417818E+04  0.00000000000E+00 0. -1.
         23    2    1    2    0    0 -0.11364658184E+04  0.10719374717E+04  0.28804193358E+03  0.15908548332E+04  0.85126056179E+02 0.  0.
         13    1    3    3    0    0 -0.16035390161E+03  0.12689644742E+03  0.14895381307E+02  0.20503159394E+03  0.00000000000E+00 0. -1.
        -13    1    3    3    0    0 -0.97611191676E+03  0.94504102424E+03  0.27314655227E+03  0.13858232393E+04  0.00000000000E+00 0.  1.
         22    1    1    2    0    0  0.11364658184E+04 -0.10719374717E+04 -0.16584677577E+04  0.22784029062E+04  0.00000000000E+00 0. -1.
<mgrwt>
<rscale>  0 0.36184373E+04</rscale>
<asrwt>0</asrwt>
<pdfrwt beam="1">  1        1 0.40305258E+00 0.36184373E+04</pdfrwt>
<pdfrwt beam="2">  1       -1 0.19221784E+00 0.36184373E+04</pdfrwt>
<totfact> 0.15386591E-01</totfact>
</mgrwt>
</event>
<event>
 6    1  0.1780144E-005  0.1858458E+04  0.7818608E-02  0.8675815E-01
          1   -1    0    0  501    0  0.00000000000E+00  0.00000000000E+00  0.14379645355E+04  0.14379645355E+04  0.00000000000E+00 0. -1.
         -1   -1    0    0    0  501 -0.00000000000E+00 -0.00000000000E+00 -0.60047860609E+03  0.60047860609E+03  0.00000000000E+00 0.  1.
         23    2    1    2    0    0  0.11921631146E+03  0.19231670851E+03  0.14060120672E+04  0.14265442817E+04  0.83429067067E+02 0.  0.
         13    1    3    3    0    0  0.55907121955E+02  0.14267712781E+03  0.74066403350E+03  0.75635016996E+03  0.00000000000E+00 0.  1.
        -13    1    3    3    0    0  0.63309189508E+02  0.49639580703E+02  0.66534803373E+03  0.67019411175E+03  0.00000000000E+00 0. -1.
         22    1    1    2    0    0 -0.11921631146E+03 -0.19231670851E+03 -0.56852613783E+03  0.61189885985E+03  0.00000000000E+00 0.  1.
<mgrwt>
<rscale>  0 0.18584584E+04</rscale>
<asrwt>0</asrwt>
<pdfrwt beam="1">  1        1 0.22122531E+00 0.18584584E+04</pdfrwt>
<pdfrwt beam="2">  1       -1 0.92381324E-01 0.18584584E+04</pdfrwt>
<totfact> 0.77338267E+00</totfact>
</mgrwt>
</event>
<event>
 6    1  0.1780144E-005  0.3434258E+04  0.7818608E-02  0.8129549E-01
          2   -1    0    0  501    0  0.00000000000E+00  0.00000000000E+00  0.26083777987E+04  0.26083777987E+04  0.00000000000E+00 0. -1.
         -2   -1    0    0    0  501 -0.00000000000E+00 -0.00000000000E+00 -0.11304080785E+04  0.11304080785E+04  0.00000000000E+00 0.  1.
         23    2    1    2    0    0  0.64789426446E+03 -0.15648495092E+04  0.44004018001E+03  0.17523773857E+04  0.93113788627E+02 0.  0.
         13    1    3    3    0    0  0.11631237392E+03 -0.21939773734E+03  0.88481214965E+02  0.26361498606E+03  0.00000000000E+00 0.  1.
        -13    1    3    3    0    0  0.53158189054E+03 -0.13454517719E+04  0.35155896504E+03  0.14887623997E+04  0.00000000000E+00 0. -1.
         22    1    1    2    0    0 -0.64789426446E+03  0.15648495092E+04  0.10379295403E+04  0.19864084915E+04  0.00000000000E+00 0. -1.
<mgrwt>
<rscale>  0 0.34342576E+04</rscale>
<asrwt>0</asrwt>
<pdfrwt beam="1">  1        2 0.40128889E+00 0.34342576E+04</pdfrwt>
<pdfrwt beam="2">  1       -2 0.17390894E+00 0.34342576E+04</pdfrwt>
<totfact> 0.49699574E-01</totfact>
</mgrwt>
</event>
<event>
 6    1  0.1914922E-005  0.2959632E+04  0.7818608E-02  0.8255353E-01
         -2   -1    0    0    0  501 -0.00000000000E+00  0.00000000000E+00  0.11023008854E+04  0.11023008854E+04  0.00000000000E+00 0.  1.
          2   -1    0    0  501    0  0.00000000000E+00 -0.00000000000E+00 -0.19866225932E+04  0.19866225932E+04  0.00000000000E+00 0. -1.
         23    2    1    2    0    0 -0.71510341810E+03 -0.88373613380E+03  0.54387120734E+03  0.12635201107E+04  0.91239942507E+02 0.  0.
         13    1    3    3    0    0 -0.39429799993E+03 -0.42729414001E+03  0.24915125310E+03  0.63255635461E+03  0.00000000000E+00 0.  1.
        -13    1    3    3    0    0 -0.32080541817E+03 -0.45644199379E+03  0.29471995425E+03  0.63096375605E+03  0.00000000000E+00 0. -1.
         22    1    1    2    0    0  0.71510341810E+03  0.88373613380E+03 -0.14281929152E+04  0.18254033679E+04  0.00000000000E+00 0. -1.
<mgrwt>
<rscale>  0 0.29596323E+04</rscale>
<asrwt>0</asrwt>
<pdfrwt beam="1">  1        2 0.30563425E+00 0.29596323E+04</pdfrwt>
<pdfrwt beam="2">  1       -2 0.16958475E+00 0.29596323E+04</pdfrwt>
<totfact> 0.12527624E+00</totfact>
</mgrwt>
</event>
<event>
 6    1  0.1780144E-005  0.1779644E+04  0.7818608E-02  0.8717200E-01
         -2   -1    0    0    0  501 -0.00000000000E+00  0.00000000000E+00  0.64337416911E+03  0.64337416911E+03  0.00000000000E+00 0.  1.
          2   -1    0    0  501    0  0.00000000000E+00 -0.00000000000E+00 -0.12306730620E+04  0.12306730620E+04  0.00000000000E+00 0. -1.
         23    2    1    2    0    0  0.85163957246E+03 -0.24375622159E+03 -0.35140013320E+03  0.95733829049E+03  0.91145443589E+02 0.  0.
         13    1    3    3    0    0  0.29636354673E+03 -0.12886886578E+03 -0.11550452201E+03  0.34319066276E+03  0.00000000000E+00 0. -1.
        -13    1    3    3    0    0  0.55527602573E+03 -0.11488735580E+03 -0.23589561119E+03  0.61414762773E+03  0.00000000000E+00 0.  1.
         22    1    1    2    0    0 -0.85163957246E+03  0.24375622159E+03 -0.23589875965E+03  0.91670894059E+03  0.00000000000E+00 0.  1.
<mgrwt>
<rscale>  0 0.17796441E+04</rscale>
<asrwt>0</asrwt>
<pdfrwt beam="1">  1        2 0.18933432E+00 0.17796441E+04</pdfrwt>
<pdfrwt beam="2">  1       -2 0.98980641E-01 0.17796441E+04</pdfrwt>
<totfact> 0.14534840E+01</totfact>
</mgrwt>
</event>
<event>
 6    1  0.1780144E-005  0.2451992E+04  0.7818608E-02  0.8420291E-01
          2   -1    0    0  501    0  0.00000000000E+00  0.00000000000E+00  0.79792305316E+03  0.79792305316E+03  0.00000000000E+00 0. -1.
         -2   -1    0    0    0  501 -0.00000000000E+00 -0.00000000000E+00 -0.18837224873E+04  0.18837224873E+04  0.00000000000E+00 0.  1.
         23    2    1    2    0    0  0.53432367123E+03 -0.26843061165E+03  0.62475979826E+03  0.86958327154E+03  0.91068555005E+02 0.  0.
         13    1    3    3    0    0  0.17675202577E+03 -0.42762603894E+02  0.19758778074E+03  0.26853463464E+03  0.00000000000E+00 0. -1.
        -13    1    3    3    0    0  0.35757164546E+03 -0.22566800775E+03  0.42717201752E+03  0.60104863689E+03  0.00000000000E+00 0.  1.
         22    1    1    2    0    0 -0.53432367123E+03  0.26843061165E+03 -0.17105592324E+04  0.18120622689E+04  0.00000000000E+00 0.  1.
<mgrwt>
<rscale>  0 0.24519915E+04</rscale>
<asrwt>0</asrwt>
<pdfrwt beam="1">  1        2 0.12275739E+00 0.24519915E+04</pdfrwt>
<pdfrwt beam="2">  1       -2 0.28980346E+00 0.24519915E+04</pdfrwt>
<totfact> 0.11357473E+00</totfact>
</mgrwt>
</event>
<event>
 6    1  0.1780144E-005  0.1777780E+04  0.7818608E-02  0.8718206E-01
          2   -1    0    0  501    0  0.00000000000E+00  0.00000000000E+00  0.12689655954E+04  0.12689655954E+04  0.00000000000E+00 0.  1.
         -2   -1    0    0    0  501 -0.00000000000E+00 -0.00000000000E+00 -0.62265316193E+03  0.62265316193E+03  0.00000000000E+00 0. -1.
         23    2    1    2    0    0  0.50700456591E+03 -0.32427292893E+03  0.10167055355E+04  0.11849380569E+04  0.90451592292E+02 0.  0.
         11    1    3    3    0    0  0.42575555415E+03 -0.30857006076E+03  0.88216683278E+03  0.10269866577E+04  0.00000000000E+00 0. -1.
        -11    1    3    3    0    0  0.81249011756E+02 -0.15702868171E+02  0.13453870272E+03  0.15795139920E+03  0.00000000000E+00 0.  1.
         22    1    1    2    0    0 -0.50700456591E+03  0.32427292893E+03 -0.37039310203E+03  0.70668070041E+03  0.00000000000E+00 0. -1.
<mgrwt>
<rscale>  0 0.17777800E+04</rscale>
<asrwt>0</asrwt>
<pdfrwt beam="1">  1        2 0.19522548E+00 0.17777800E+04</pdfrwt>
<pdfrwt beam="2">  1       -2 0.95792794E-01 0.17777800E+04</pdfrwt>
<totfact> 0.14903904E+01</totfact>
</mgrwt>
</event>
<event>
 6    1  0.1780144E-005  0.2609878E+04  0.7818608E-02  0.8364854E-01
         -2   -1    0    0    0  501 -0.00000000000E+00  0.00000000000E+00  0.10354114047E+04  0.10354114047E+04  0.00000000000E+00 0. -1.
          2   -1    0    0  501    0  0.00000000000E+00 -0.00000000000E+00 -0.16446271029E+04  0.16446271029E+04  0.00000000000E+00 0.  1.
         23    2    1    2    0    0  0.11253397652E+03  0.41354891528E+03 -0.15686709572E+04  0.16292097892E+04  0.99545789534E+02 0.  0.
         13    1    3    3    0    0  0.13005885280E+03  0.34701177833E+03 -0.13526237617E+04  0.14024705060E+04  0.00000000000E+00 0.  1.
        -13    1    3    3    0    0 -0.17524876288E+02  0.66537136946E+02 -0.21604719548E+03  0.22673928322E+03  0.00000000000E+00 0. -1.
         22    1    1    2    0    0 -0.11253397652E+03 -0.41354891528E+03  0.95945525903E+03  0.10508287183E+04  0.00000000000E+00 0. -1.
<mgrwt>
<rscale>  0 0.26098779E+04</rscale>
<asrwt>0</asrwt>
<pdfrwt beam="1">  1        2 0.25301955E+00 0.26098779E+04</pdfrwt>
<pdfrwt beam="2">  1       -2 0.15929406E+00 0.26098779E+04</pdfrwt>
<totfact> 0.23729602E+00</totfact>
</mgrwt>
</event>
<event>
 6    1  0.1780144E-005  0.1353725E+04  0.7818608E-02  0.8988013E-01
         -2   -1    0    0    0  501 -0.00000000000E+00  0.00000000000E+00  0.12650820588E+03  0.12650820588E+03  0.00000000000E+00 0.  1.
          2   -1    0    0  501    0  0.00000000000E+00 -0.00000000000E+00 -0.36214468420E+04  0.36214468420E+04  0.00000000000E+00 0. -1.
         23    2    1    2    0    0 -0.43195267757E+03 -0.78489917619E+02 -0.31705093645E+04  0.32020629934E+04  0.91290748002E+02 0.  0.
         13    1    3    3    0    0 -0.27318928204E+03 -0.83992853535E+02 -0.18321714698E+04  0.18543299270E+04  0.00000000000E+00 0. -1.
        -13    1    3    3    0    0 -0.15876339553E+03  0.55029359161E+01 -0.13383378947E+04  0.13477330665E+04  0.00000000000E+00 0.  1.
         22    1    1    2    0    0  0.43195267757E+03  0.78489917619E+02 -0.32442927164E+03  0.54589205446E+03  0.00000000000E+00 0.  1.
<mgrwt>
<rscale>  0 0.13537249E+04</rscale>
<asrwt>0</asrwt>
<pdfrwt beam="1">  1        2 0.55714561E+00 0.13537249E+04</pdfrwt>
<pdfrwt beam="2">  1       -2 0.19462803E-01 0.13537249E+04</pdfrwt>
<totfact> 0.14902873E+01</totfact>
</mgrwt>
</event>
<event>
 6    1  0.1780144E-005  0.1098347E+04  0.7818608E-02  0.9206804E-01
         -1   -1    0    0    0  501 -0.00000000000E+00  0.00000000000E+00  0.18362136322E+03  0.18362136322E+03  0.00000000000E+00 0.  1.
          1   -1    0    0  501    0  0.00000000000E+00 -0.00000000000E+00 -0.16424649679E+04  0.16424649679E+04  0.00000000000E+00 0. -1.
         23    2    1    2    0    0  0.40041647491E+03 -0.23219822346E+03 -0.12130449999E+04  0.13020001526E+04  0.97349151538E+02 0.  0.
         11    1    3    3    0    0  0.25530813037E+03 -0.19135962229E+03 -0.75036907931E+03  0.81538610588E+03  0.00000000000E+00 0. -1.
        -11    1    3    3    0    0  0.14510834454E+03 -0.40838601172E+02 -0.46267592059E+03  0.48661404675E+03  0.00000000000E+00 0.  1.
         22    1    1    2    0    0 -0.40041647491E+03  0.23219822346E+03 -0.24579860474E+03  0.52408617846E+03  0.00000000000E+00 0.  1.
<mgrwt>
<rscale>  0 0.10983472E+04</rscale>
<asrwt>0</asrwt>
<pdfrwt beam="1">  1        1 0.25268693E+00 0.10983472E+04</pdfrwt>
<pdfrwt beam="2">  1       -1 0.28249439E-01 0.10983472E+04</pdfrwt>
<totfact> 0.58974901E+01</totfact>
</mgrwt>
</event>
<event>
 6    1  0.1780144E-005  0.1912092E+04  0.7818608E-02  0.8648861E-01
          1   -1    0    0  501    0  0.00000000000E+00  0.00000000000E+00  0.12997340437E+04  0.12997340437E+04  0.00000000000E+00 0. -1.
         -1   -1    0    0    0  501 -0.00000000000E+00 -0.00000000000E+00 -0.70323938919E+03  0.70323938919E+03  0.00000000000E+00 0.  1.
         23    2    1    2    0    0 -0.64295153765E+02 -0.86521566743E+03  0.71424898797E+03  0.11274175517E+04  0.90480390970E+02 0.  0.
         13    1    3    3    0    0 -0.98266880690E+01 -0.17896224276E+03  0.19704268546E+03  0.26636416430E+03  0.00000000000E+00 0. -1.
        -13    1    3    3    0    0 -0.54468465696E+02 -0.68625342467E+03  0.51720630251E+03  0.86105338742E+03  0.00000000000E+00 0.  1.
         22    1    1    2    0    0  0.64295153765E+02  0.86521566743E+03 -0.11775433348E+03  0.87555588115E+03  0.00000000000E+00 0. -1.
<mgrwt>
<rscale>  0 0.19120922E+04</rscale>
<asrwt>0</asrwt>
<pdfrwt beam="1">  1        1 0.19995908E+00 0.19120922E+04</pdfrwt>
<pdfrwt beam="2">  1       -1 0.10819068E+00 0.19120922E+04</pdfrwt>
<totfact> 0.67134029E+00</totfact>
</mgrwt>
</event>
<event>
 6    1  0.1780144E-005  0.3973409E+04  0.7818608E-02  0.8009932E-01
         -2   -1    0    0    0  501 -0.00000000000E+00  0.00000000000E+00  0.14342341551E+04  0.14342341551E+04  0.00000000000E+00 0.  1.
          2   -1    0    0  501    0  0.00000000000E+00 -0.00000000000E+00 -0.27519870240E+04  0.27519870240E+04  0.00000000000E+00 0. -1.
         23    2    1    2    0    0  0.12685541309E+04  0.10237131659E+04  0.53528129261E+03  0.17182353946E+04  0.92674591025E+02 0.  0.
         11    1    3    3    0    0  0.96205752724E+03  0.80742145368E+03  0.44411222158E+03  0.13321860812E+04  0.00000000000E+00 0. -1.
        -11    1    3    3    0    0  0.30649660366E+03  0.21629171223E+03  0.91169071022E+02  0.38604931335E+03  0.00000000000E+00 0.  1.
         22    1    1    2    0    0 -0.12685541309E+04 -0.10237131659E+04 -0.18530341615E+04  0.24679857846E+04  0.00000000000E+00 0. -1.
<mgrwt>
<rscale>  0 0.39734085E+04</rscale>
<asrwt>0</asrwt>
<pdfrwt beam="1">  1        2 0.42338261E+00 0.39734085E+04</pdfrwt>
<pdfrwt beam="2">  1       -2 0.22065141E+00 0.39734085E+04</pdfrwt>
<totfact> 0.19127551E-01</totfact>
</mgrwt>
</event>
<event>
 6    1  0.1780144E-005  0.2763786E+04  0.7818608E-02  0.8314600E-01
         -1   -1    0    0    0  501 -0.00000000000E+00  0.00000000000E+00  0.29314027284E+04  0.29314027284E+04  0.00000000000E+00 0.  1.
          1   -1    0    0  501    0  0.00000000000E+00 -0.00000000000E+00 -0.65143845456E+03  0.65143845456E+03  0.00000000000E+00 0. -1.
         23    2    1    2    0    0 -0.23404802235E+03  0.65898514009E+03 -0.40225334507E+03  0.81095892593E+03  0.82502935074E+02 0.  0.
         13    1    3    3    0    0 -0.22130021983E+03  0.53900469431E+03 -0.31797199718E+03  0.66378161979E+03  0.00000000000E+00 0.  1.
        -13    1    3    3    0    0 -0.12747802519E+02  0.11998044578E+03 -0.84281347887E+02  0.14717730613E+03  0.00000000000E+00 0. -1.
         22    1    1    2    0    0  0.23404802235E+03 -0.65898514009E+03  0.26822176189E+04  0.27718822570E+04  0.00000000000E+00 0.  1.
<mgrwt>
<rscale>  0 0.27637861E+04</rscale>
<asrwt>0</asrwt>
<pdfrwt beam="1">  1        1 0.10022130E+00 0.27637861E+04</pdfrwt>
<pdfrwt beam="2">  1       -1 0.45098503E+00 0.27637861E+04</pdfrwt>
<totfact> 0.83882112E-02</totfact>
</mgrwt>
</event>
<event>
 6    1  0.1780144E-005  0.1836571E+04  0.7818608E-02  0.8687089E-01
          1   -1    0    0  501    0  0.00000000000E+00  0.00000000000E+00  0.18363783755E+04  0.18363783755E+04  0.00000000000E+00 0. -1.
         -1   -1    0    0    0  501 -0.00000000000E+00 -0.00000000000E+00 -0.45919114202E+03  0.45919114202E+03  0.00000000000E+00 0.  1.
         23    2    1    2    0    0  0.17122445365E+03 -0.55648307916E+03 -0.19475894999E+03  0.61926225612E+03  0.81015198126E+02 0.  0.
         13    1    3    3    0    0  0.27173625204E+02 -0.18622234590E+03 -0.88723505595E+02  0.20806015588E+03  0.00000000000E+00 0.  1.
        -13    1    3    3    0    0  0.14405082845E+03 -0.37026073326E+03 -0.10603544440E+03  0.41120210024E+03  0.00000000000E+00 0. -1.
         22    1    1    2    0    0 -0.17122445365E+03  0.55648307916E+03  0.15719461834E+04  0.16763072614E+04  0.00000000000E+00 0. -1.
<mgrwt>
<rscale>  0 0.18365715E+04</rscale>
<asrwt>0</asrwt>
<pdfrwt beam="1">  1        1 0.28251975E+00 0.18365715E+04</pdfrwt>
<pdfrwt beam="2">  1       -1 0.70644792E-01 0.18365715E+04</pdfrwt>
<totfact> 0.73291827E+00</totfact>
</mgrwt>
</event>
<event>
 6    1  0.2011496E-005  0.3159289E+04  0.7818608E-02  0.8199652E-01
          1   -1    0    0  501    0  0.00000000000E+00  0.00000000000E+00  0.16225661830E+04  0.16225661830E+04  0.00000000000E+00 0. -1.
         -1   -1    0    0    0  501 -0.00000000000E+00 -0.00000000000E+00 -0.15378581733E+04  0.15378581733E+04  0.00000000000E+00 0.  1.
         23    2    1    2    0    0  0.65639238636E+03 -0.61067217655E+03 -0.12571260390E+04  0.15466430556E+04  0.89260244883E+02 0.  0.
         11    1    3    3    0    0  0.26926315122E+03 -0.28720554858E+03 -0.61195120473E+03  0.72764960573E+03  0.00000000000E+00 0. -1.
        -11    1    3    3    0    0  0.38712923514E+03 -0.32346662797E+03 -0.64517483429E+03  0.81899344986E+03  0.00000000000E+00 0.  1.
         22    1    1    2    0    0 -0.65639238636E+03  0.61067217655E+03  0.13418340487E+04  0.16137813007E+04  0.00000000000E+00 0. -1.
<mgrwt>
<rscale>  0 0.31592889E+04</rscale>
<asrwt>0</asrwt>
<pdfrwt beam="1">  1        1 0.24962557E+00 0.31592889E+04</pdfrwt>
<pdfrwt beam="2">  1       -1 0.23659356E+00 0.31592889E+04</pdfrwt>
<totfact> 0.38594893E-01</totfact>
</mgrwt>
</event>
<event>
 6    1  0.1780144E-005  0.1040860E+04  0.7818608E-02  0.9264832E-01
          2   -1    0    0  501    0  0.00000000000E+00  0.00000000000E+00  0.19246788649E+04  0.19246788649E+04  0.00000000000E+00 0. -1.
         -2   -1    0    0    0  501 -0.00000000000E+00 -0.00000000000E+00 -0.14072333563E+03  0.14072333563E+03  0.00000000000E+00 0.  1.
         23    2    1    2    0    0  0.31120707508E+03 -0.31036869370E+03  0.36274985493E+03  0.57778526785E+03  0.95235439232E+02 0.  0.
         11    1    3    3    0    0  0.29846194507E+03 -0.26599412462E+03  0.34583570965E+03  0.52861587666E+03  0.00000000000E+00 0. -1.
        -11    1    3    3    0    0  0.12745130017E+02 -0.44374569071E+02  0.16914145274E+02  0.49169391187E+02  0.00000000000E+00 0.  1.
         22    1    1    2    0    0 -0.31120707508E+03  0.31036869370E+03  0.14212056744E+04  0.14876169327E+04  0.00000000000E+00 0. -1.
<mgrwt>
<rscale>  0 0.10408597E+04</rscale>
<asrwt>0</asrwt>
<pdfrwt beam="1">  1        2 0.29610442E+00 0.10408597E+04</pdfrwt>
<pdfrwt beam="2">  1       -2 0.21649745E-01 0.10408597E+04</pdfrwt>
<totfact> 0.13646577E+02</totfact>
</mgrwt>
</event>
<event>
 6    1  0.1780144E-005  0.3716709E+04  0.7818608E-02  0.8064269E-01
         -2   -1    0    0    0  501 -0.00000000000E+00  0.00000000000E+00  0.12190271227E+04  0.12190271227E+04  0.00000000000E+00 0.  1.
          2   -1    0    0  501    0  0.00000000000E+00 -0.00000000000E+00 -0.28329813507E+04  0.28329813507E+04  0.00000000000E+00 0. -1.
         23    2    1    2    0    0 -0.18153883566E+04 -0.93191892807E+02 -0.39526049334E+03  0.18635080660E+04  0.11005380654E+03 0.  0.
         13    1    3    3    0    0 -0.71451843226E+03  0.88365472638E+01 -0.12588504780E+03  0.72557681873E+03  0.00000000000E+00 0. -1.
        -13    1    3    3    0    0 -0.11008699244E+04 -0.10202844007E+03 -0.26937544554E+03  0.11379312473E+04  0.00000000000E+00 0.  1.
         22    1    1    2    0    0  0.18153883566E+04  0.93191892807E+02 -0.12186937346E+04  0.21885004074E+04  0.00000000000E+00 0.  1.
<mgrwt>
<rscale>  0 0.37167088E+04</rscale>
<asrwt>0</asrwt>
<pdfrwt beam="1">  1        2 0.43584328E+00 0.37167088E+04</pdfrwt>
<pdfrwt beam="2">  1       -2 0.18754264E+00 0.37167088E+04</pdfrwt>
<totfact> 0.28693806E-01</totfact>
</mgrwt>
</event>
<event>
 6    1  0.1780144E-005  0.5990443E+04  0.7818608E-02  0.7691588E-01
          1   -1    0    0  501    0  0.00000000000E+00  0.00000000000E+00  0.39358534007E+04  0.39358534007E+04  0.00000000000E+00 0. -1.
         -1   -1    0    0    0  501 -0.00000000000E+00 -0.00000000000E+00 -0.22793916317E+04  0.22793916317E+04  0.00000000000E+00 0.  1.
         23    2    1    2    0    0  0.17833058307E+04  0.35156197166E+03  0.32975115434E+04  0.37664045175E+04  0.91897250849E+02 0.  0.
         11    1    3    3    0    0  0.81918396868E+03  0.15828417008E+03  0.16085190773E+04  0.18120292147E+04  0.00000000000E+00 0.  1.
        -11    1    3    3    0    0  0.96412186206E+03  0.19327780158E+03  0.16889924661E+04  0.19543753028E+04  0.00000000000E+00 0. -1.
         22    1    1    2    0    0 -0.17833058307E+04 -0.35156197166E+03 -0.16410497743E+04  0.24488405150E+04  0.00000000000E+00 0.  1.
<mgrwt>
<rscale>  0 0.59904428E+04</rscale>
<asrwt>0</asrwt>
<pdfrwt beam="1">  1        1 0.60551591E+00 0.59904428E+04</pdfrwt>
<pdfrwt beam="2">  1       -1 0.35067564E+00 0.59904428E+04</pdfrwt>
<totfact> 0.11186689E-03</totfact>
</mgrwt>
</event>
<event>
 6    1  0.1780144E-005  0.1667720E+04  0.7818608E-02  0.8779992E-01
          2   -1    0    0  501    0  0.00000000000E+00  0.00000000000E+00  0.19668004204E+04  0.19668004204E+04  0.00000000000E+00 0.  1.
         -2   -1    0    0    0  501 -0.00000000000E+00 -0.00000000000E+00 -0.35352963699E+03  0.35352963699E+03  0.00000000000E+00 0. -1.
         23    2    1    2    0    0 -0.46244849844E+03 -0.57360433466E+03  0.13449074003E+04  0.15361748101E+04  0.90424473423E+02 0.  0.
         11    1    3    3    0    0 -0.15684662303E+03 -0.21191531811E+03  0.57053024678E+03  0.62850117558E+03  0.00000000000E+00 0. -1.
        -11    1    3    3    0    0 -0.30560187540E+03 -0.36168901654E+03  0.77437715352E+03  0.90767363453E+03  0.00000000000E+00 0.  1.
         22    1    1    2    0    0  0.46244849844E+03  0.57360433466E+03  0.26836338312E+03  0.78415524728E+03  0.00000000000E+00 0. -1.
<mgrwt>
<rscale>  0 0.16677197E+04</rscale>
<asrwt>0</asrwt>
<pdfrwt beam="1">  1        2 0.30258467E+00 0.16677197E+04</pdfrwt>
<pdfrwt beam="2">  1       -2 0.54389176E-01 0.16677197E+04</pdfrwt>
<totfact> 0.21163631E+01</totfact>
</mgrwt>
</event>
<event>
 6    1  0.1780144E-005  0.2622916E+04  0.7818608E-02  0.8360459E-01
         -1   -1    0    0    0  501 -0.00000000000E+00  0.00000000000E+00  0.11376489271E+04  0.11376489271E+04  0.00000000000E+00 0.  1.
          1   -1    0    0  501    0  0.00000000000E+00 -0.00000000000E+00 -0.15118210033E+04  0.15118210033E+04  0.00000000000E+00 0. -1.
         23    2    1    2    0    0  0.37926915782E+02  0.11244327828E+04  0.49240567567E+03  0.12293486208E+04  0.55200978026E+02 0.  0.
         11    1    3    3    0    0  0.13821073445E+02  0.94940912265E+03  0.42431587373E+03  0.10400060889E+04  0.00000000000E+00 0. -1.
        -11    1    3    3    0    0  0.24105842337E+02  0.17502366017E+03  0.68089801939E+02  0.18934253189E+03  0.00000000000E+00 0.  1.
         22    1    1    2    0    0 -0.37926915782E+02 -0.11244327828E+04 -0.86657775184E+03  0.14201213096E+04  0.00000000000E+00 0. -1.
<mgrwt>
<rscale>  0 0.26229156E+04</rscale>
<asrwt>0</asrwt>
<pdfrwt beam="1">  1        1 0.23258785E+00 0.26229156E+04</pdfrwt>
<pdfrwt beam="2">  1       -1 0.17502291E+00 0.26229156E+04</pdfrwt>
<totfact> 0.12758589E+00</totfact>
</mgrwt>
</event>
<event>
 6    1  0.1780144E-005  0.2785288E+04  0.7818608E-02  0.8307850E-01
         -2   -1    0    0    0  501 -0.00000000000E+00  0.00000000000E+00  0.11028231731E+04  0.11028231731E+04  0.00000000000E+00 0.  1.
          2   -1    0    0  501    0  0.00000000000E+00 -0.00000000000E+00 -0.17586298281E+04  0.17586298281E+04  0.00000000000E+00 0. -1.
         23    2    1    2    0    0  0.16783927292E+03  0.12577248299E+04 -0.91397181052E+03  0.15665819586E+04  0.93769894939E+02 0.  0.
         13    1    3    3    0    0  0.12875887460E+02  0.38252527651E+03 -0.30048765677E+03  0.48660477548E+03  0.00000000000E+00 0.  1.
        -13    1    3    3    0    0  0.15496338546E+03  0.87519955340E+03 -0.61348415376E+03  0.10799771831E+04  0.00000000000E+00 0. -1.
         22    1    1    2    0    0 -0.16783927292E+03 -0.12577248299E+04  0.25816515556E+03  0.12948710426E+04  0.00000000000E+00 0. -1.
<mgrwt>
<rscale>  0 0.27852883E+04</rscale>
<asrwt>0</asrwt>
<pdfrwt beam="1">  1        2 0.27055844E+00 0.27852883E+04</pdfrwt>
<pdfrwt beam="2">  1       -2 0.16966510E+00 0.27852883E+04</pdfrwt>
<totfact> 0.16988287E+00</totfact>
</mgrwt>
</event>
<event>
 6    1  0.1780144E-005  0.9595014E+03  0.7818608E-02  0.9354113E-01
         -4   -1    0    0    0  501 -0.00000000000E+00  0.00000000000E+00  0.20910468883E+03  0.20910468883E+03  0.00000000000E+00 0.  1.
          4   -1    0    0  501    0  0.00000000000E+00 -0.00000000000E+00 -0.11006961137E+04  0.11006961137E+04  0.00000000000E+00 0. -1.
         23    2    1    2    0    0  0.31067475686E+03  0.33764112479E+03 -0.62036581067E+03  0.77680580490E+03  0.89739544145E+02 0.  0.
         11    1    3    3    0    0  0.14123885896E+03  0.15233462209E+03 -0.20773199959E+03  0.29378025124E+03  0.00000000000E+00 0. -1.
        -11    1    3    3    0    0  0.16943589790E+03  0.18530650270E+03 -0.41263381108E+03  0.48302555366E+03  0.00000000000E+00 0.  1.
         22    1    1    2    0    0 -0.31067475686E+03 -0.33764112479E+03 -0.27122561420E+03  0.53299499763E+03  0.00000000000E+00 0.  1.
<mgrwt>
<rscale>  0 0.95950137E+03</rscale>
<asrwt>0</asrwt>
<pdfrwt beam="1">  1        4 0.16933786E+00 0.95950137E+03</pdfrwt>
<pdfrwt beam="2">  1       -4 0.32169953E-01 0.95950137E+03</pdfrwt>
<totfact> 0.39991424E+00</totfact>
</mgrwt>
</event>
<event>
 6    1  0.1780144E-005  0.3464120E+04  0.7818608E-02  0.8122346E-01
          2   -1    0    0  501    0  0.00000000000E+00  0.00000000000E+00  0.28643809395E+04  0.28643809395E+04  0.00000000000E+00 0. -1.
         -2   -1    0    0    0  501 -0.00000000000E+00 -0.00000000000E+00 -0.10473575652E+04  0.10473575652E+04  0.00000000000E+00 0.  1.
         23    2    1    2    0    0 -0.32923514332E+03 -0.16987313122E+04  0.95933092443E+03  0.19804901547E+04  0.89115540774E+02 0.  0.
         11    1    3    3    0    0 -0.29862537285E+03 -0.13631590838E+04  0.78411692632E+03  0.16006933357E+04  0.00000000000E+00 0.  1.
        -11    1    3    3    0    0 -0.30609770465E+02 -0.33557222844E+03  0.17521399811E+03  0.37979681895E+03  0.00000000000E+00 0. -1.
         22    1    1    2    0    0  0.32923514332E+03  0.16987313122E+04  0.85769244987E+03  0.19312483499E+04  0.00000000000E+00 0. -1.
<mgrwt>
<rscale>  0 0.34641195E+04</rscale>
<asrwt>0</asrwt>
<pdfrwt beam="1">  1        2 0.44067399E+00 0.34641195E+04</pdfrwt>
<pdfrwt beam="2">  1       -2 0.16113193E+00 0.34641195E+04</pdfrwt>
<totfact> 0.43002002E-01</totfact>
</mgrwt>
</event>
<event>
 6    1  0.1780144E-005  0.3237397E+04  0.7818608E-02  0.8179010E-01
         -2   -1    0    0    0  501 -0.00000000000E+00  0.00000000000E+00  0.10199585392E+04  0.10199585392E+04  0.00000000000E+00 0.  1.
          2   -1    0    0  501    0  0.00000000000E+00 -0.00000000000E+00 -0.25689128224E+04  0.25689128224E+04  0.00000000000E+00 0. -1.
         23    2    1    2    0    0 -0.60327957701E+03 -0.28314753298E+03  0.85875247060E+03  0.10906378686E+04  0.88974048443E+02 0.  0.
         11    1    3    3    0    0 -0.13666056165E+03 -0.10636050484E+03  0.21040127462E+03  0.27250204121E+03  0.00000000000E+00 0. -1.
        -11    1    3    3    0    0 -0.46661901536E+03 -0.17678702814E+03  0.64835119597E+03  0.81813582743E+03  0.00000000000E+00 0.  1.
         22    1    1    2    0    0  0.60327957701E+03  0.28314753298E+03 -0.24077067537E+04  0.24982334930E+04  0.00000000000E+00 0. -1.
<mgrwt>
<rscale>  0 0.32373968E+04</rscale>
<asrwt>0</asrwt>
<pdfrwt beam="1">  1        2 0.39521736E+00 0.32373968E+04</pdfrwt>
<pdfrwt beam="2">  1       -2 0.15691670E+00 0.32373968E+04</pdfrwt>
<totfact> 0.70735026E-01</totfact>
</mgrwt>
</event>
<event>
 6    1  0.1780144E-005  0.1594681E+04  0.7818608E-02  0.8823823E-01
         -1   -1    0    0    0  501 -0.00000000000E+00  0.00000000000E+00  0.19269598837E+04  0.19269598837E+04  0.00000000000E+00 0.  1.
          1   -1    0    0  501    0  0.00000000000E+00 -0.00000000000E+00 -0.32992460475E+03  0.32992460475E+03  0.00000000000E+00 0. -1.
         23    2    1    2    0    0  0.11950470500E+02  0.63313421266E+03  0.14811818817E+04  0.16131269606E+04  0.85305800382E+02 0.  0.
         11    1    3    3    0    0  0.15969481406E+02  0.39604052431E+03  0.10256219856E+04  0.10995469879E+04  0.00000000000E+00 0. -1.
        -11    1    3    3    0    0 -0.40190109066E+01  0.23709368835E+03  0.45555989605E+03  0.51357997274E+03  0.00000000000E+00 0.  1.
         22    1    1    2    0    0 -0.11950470500E+02 -0.63313421266E+03  0.11585339732E+03  0.64375752785E+03  0.00000000000E+00 0. -1.
<mgrwt>
<rscale>  0 0.15946805E+04</rscale>
<asrwt>0</asrwt>
<pdfrwt beam="1">  1        1 0.50757633E-01 0.15946805E+04</pdfrwt>
<pdfrwt beam="2">  1       -1 0.29645536E+00 0.15946805E+04</pdfrwt>
<totfact> 0.25921987E+00</totfact>
</mgrwt>
</event>
<event>
 6    1  0.1780144E-005  0.2271603E+04  0.7818608E-02  0.8489202E-01
         -2   -1    0    0    0  501 -0.00000000000E+00  0.00000000000E+00  0.40753751479E+03  0.40753751479E+03  0.00000000000E+00 0. -1.
          2   -1    0    0  501    0  0.00000000000E+00 -0.00000000000E+00 -0.31654637485E+04  0.31654637485E+04  0.00000000000E+00 0.  1.
         23    2    1    2    0    0 -0.10823416578E+03 -0.78186375878E+03 -0.10060790365E+03  0.80093231046E+03  0.91351210851E+02 0.  0.
         11    1    3    3    0    0 -0.67365482452E+02 -0.62665048161E+03 -0.48252166192E+02  0.63210537561E+03  0.00000000000E+00 0. -1.
        -11    1    3    3    0    0 -0.40868683333E+02 -0.15521327717E+03 -0.52355737455E+02  0.16882693485E+03  0.00000000000E+00 0.  1.
         22    1    1    2    0    0  0.10823416578E+03  0.78186375878E+03 -0.26573183300E+04  0.27720689528E+04  0.00000000000E+00 0. -1.
<mgrwt>
<rscale>  0 0.22716032E+04</rscale>
<asrwt>0</asrwt>
<pdfrwt beam="1">  1        2 0.48699442E+00 0.22716032E+04</pdfrwt>
<pdfrwt beam="2">  1       -2 0.62698079E-01 0.22716032E+04</pdfrwt>
<totfact> 0.29312653E+00</totfact>
</mgrwt>
</event>
<event>
 6    1  0.1780144E-005  0.2214634E+04  0.7818608E-02  0.8512362E-01
          2   -1    0    0  501    0  0.00000000000E+00  0.00000000000E+00  0.95761879405E+03  0.95761879405E+03  0.00000000000E+00 0. -1.
         -2   -1    0    0    0  501 -0.00000000000E+00 -0.00000000000E+00 -0.12804168976E+04  0.12804168976E+04  0.00000000000E+00 0.  1.
         23    2    1    2    0    0  0.63803591267E+03  0.89942450164E+03 -0.83425960013E+02  0.11096061267E+04  0.90617910101E+02 0.  0.
         11    1    3    3    0    0  0.29790783152E+03  0.39293298083E+03 -0.79690373812E+02  0.49949570487E+03  0.00000000000E+00 0. -1.
        -11    1    3    3    0    0  0.34012808115E+03  0.50649152081E+03 -0.37355862003E+01  0.61011042184E+03  0.00000000000E+00 0.  1.
         22    1    1    2    0    0 -0.63803591267E+03 -0.89942450164E+03 -0.23937214358E+03  0.11284295650E+04  0.00000000000E+00 0.  1.
<mgrwt>
<rscale>  0 0.22146343E+04</rscale>
<asrwt>0</asrwt>
<pdfrwt beam="1">  1        2 0.14732597E+00 0.22146343E+04</pdfrwt>
<pdfrwt beam="2">  1       -2 0.19698721E+00 0.22146343E+04</pdfrwt>
<totfact> 0.34103489E+00</totfact>
</mgrwt>
</event>
<event>
 6    1  0.1780144E-005  0.2718549E+04  0.7818608E-02  0.8329012E-01
          1   -1    0    0  501    0  0.00000000000E+00  0.00000000000E+00  0.10329417134E+04  0.10329417134E+04  0.00000000000E+00 0. -1.
         -1   -1    0    0    0  501 -0.00000000000E+00 -0.00000000000E+00 -0.17887039184E+04  0.17887039184E+04  0.00000000000E+00 0.  1.
         23    2    1    2    0    0 -0.89102126083E+03 -0.97411914828E+03 -0.51378830369E+02  0.13253224913E+04  0.10494245760E+03 0.  0.
         11    1    3    3    0    0 -0.75427343076E+03 -0.81642314017E+03 -0.51323336748E+01  0.11115311480E+04  0.00000000000E+00 0. -1.
        -11    1    3    3    0    0 -0.13674783007E+03 -0.15769600812E+03 -0.46246496694E+02  0.21379134328E+03  0.00000000000E+00 0.  1.
         22    1    1    2    0    0  0.89102126083E+03  0.97411914828E+03 -0.70438337464E+03  0.14963231405E+04  0.00000000000E+00 0. -1.
<mgrwt>
<rscale>  0 0.27185488E+04</rscale>
<asrwt>0</asrwt>
<pdfrwt beam="1">  1        1 0.15891411E+00 0.27185488E+04</pdfrwt>
<pdfrwt beam="2">  1       -1 0.27518522E+00 0.27185488E+04</pdfrwt>
<totfact> 0.59461765E-01</totfact>
</mgrwt>
</event>
<event>
 6    1  0.1780144E-005  0.1441206E+04  0.7818608E-02  0.8924520E-01
         -1   -1    0    0    0  501 -0.00000000000E+00  0.00000000000E+00  0.87152968124E+03  0.87152968124E+03  0.00000000000E+00 0.  1.
          1   -1    0    0  501    0  0.00000000000E+00 -0.00000000000E+00 -0.59581305030E+03  0.59581305030E+03  0.00000000000E+00 0. -1.
         23    2    1    2    0    0  0.47113876171E+03 -0.34653066715E+03  0.56187213847E+03  0.81623581977E+03  0.92116108340E+02 0.  0.
         13    1    3    3    0    0  0.23756965015E+03 -0.16884004394E+03  0.34314649938E+03  0.45021752426E+03  0.00000000000E+00 0. -1.
        -13    1    3    3    0    0  0.23356911156E+03 -0.17769062321E+03  0.21872563909E+03  0.36601829551E+03  0.00000000000E+00 0.  1.
         22    1    1    2    0    0 -0.47113876171E+03  0.34653066715E+03 -0.28615550753E+03  0.65110691177E+03  0.00000000000E+00 0. -1.
<mgrwt>
<rscale>  0 0.14412061E+04</rscale>
<asrwt>0</asrwt>
<pdfrwt beam="1">  1        1 0.91663546E-01 0.14412061E+04</pdfrwt>
<pdfrwt beam="2">  1       -1 0.13408149E+00 0.14412061E+04</pdfrwt>
<totfact> 0.15766301E+01</totfact>
</mgrwt>
</event>
<event>
 6    1  0.1780144E-005  0.1794597E+04  0.7818608E-02  0.8709178E-01
         -2   -1    0    0    0  501 -0.00000000000E+00  0.00000000000E+00  0.46035820331E+03  0.46035820331E+03  0.00000000000E+00 0.  1.
          2   -1    0    0  501    0  0.00000000000E+00 -0.00000000000E+00 -0.17489519661E+04  0.17489519661E+04  0.00000000000E+00 0. -1.
         23    2    1    2    0    0 -0.29346129361E+03  0.51651123834E+03 -0.14699231935E+04  0.15881952423E+04  0.93736560615E+02 0.  0.
         11    1    3    3    0    0 -0.14913389482E+03  0.17237407386E+03 -0.53336224111E+03  0.58002501685E+03  0.00000000000E+00 0. -1.
        -11    1    3    3    0    0 -0.14432739879E+03  0.34413716448E+03 -0.93656095238E+03  0.10081702255E+04  0.00000000000E+00 0.  1.
         22    1    1    2    0    0  0.29346129361E+03 -0.51651123834E+03  0.18132943072E+03  0.62111492706E+03  0.00000000000E+00 0.  1.
<mgrwt>
<rscale>  0 0.17945968E+04</rscale>
<asrwt>0</asrwt>
<pdfrwt beam="1">  1        2 0.26906953E+00 0.17945968E+04</pdfrwt>
<pdfrwt beam="2">  1       -2 0.70824340E-01 0.17945968E+04</pdfrwt>
<totfact> 0.15760800E+01</totfact>
</mgrwt>
</event>
<event>
 6    1  0.1780144E-005  0.2892043E+04  0.7818608E-02  0.8275249E-01
         -2   -1    0    0    0  501 -0.00000000000E+00  0.00000000000E+00  0.28118423356E+04  0.28118423356E+04  0.00000000000E+00 0.  1.
          2   -1    0    0  501    0  0.00000000000E+00 -0.00000000000E+00 -0.74363265106E+03  0.74363265106E+03  0.00000000000E+00 0. -1.
         23    2    1    2    0    0  0.26340867152E+03 -0.78186165469E+03 -0.42256714256E+03  0.93161123682E+03  0.92977047159E+02 0.  0.
         11    1    3    3    0    0  0.16273044964E+03 -0.34394082259E+03 -0.17895505173E+03  0.42047758469E+03  0.00000000000E+00 0. -1.
        -11    1    3    3    0    0  0.10067822188E+03 -0.43792083210E+03 -0.24361209084E+03  0.51113365214E+03  0.00000000000E+00 0.  1.
         22    1    1    2    0    0 -0.26340867152E+03  0.78186165469E+03  0.24907768271E+04  0.26238637499E+04  0.00000000000E+00 0.  1.
<mgrwt>
<rscale>  0 0.28920427E+04</rscale>
<asrwt>0</asrwt>
<pdfrwt beam="1">  1        2 0.11440502E+00 0.28920427E+04</pdfrwt>
<pdfrwt beam="2">  1       -2 0.43259112E+00 0.28920427E+04</pdfrwt>
<totfact> 0.14805170E-01</totfact>
</mgrwt>
</event>
<event>
 6    1  0.2192843E-005  0.3342754E+04  0.7818608E-02  0.8152101E-01
          2   -1    0    0  501    0  0.00000000000E+00  0.00000000000E+00  0.19129772332E+04  0.19129772332E+04  0.00000000000E+00 0. -1.
         -2   -1    0    0    0  501 -0.00000000000E+00 -0.00000000000E+00 -0.14602901260E+04  0.14602901260E+04  0.00000000000E+00 0.  1.
         23    2    1    2    0    0 -0.10087063772E+04 -0.11422883394E+04 -0.46401304291E+03  0.15948831569E+04  0.77672223565E+02 0.  0.
         13    1    3    3    0    0 -0.45107790886E+03 -0.45322650365E+03 -0.19858727338E+03  0.66956885279E+03  0.00000000000E+00 0.  1.
        -13    1    3    3    0    0 -0.55762846830E+03 -0.68906183579E+03 -0.26542576953E+03  0.92531430407E+03  0.00000000000E+00 0. -1.
         22    1    1    2    0    0  0.10087063772E+04  0.11422883394E+04  0.91670015016E+03  0.17783842023E+04  0.00000000000E+00 0. -1.
<mgrwt>
<rscale>  0 0.33427544E+04</rscale>
<asrwt>0</asrwt>
<pdfrwt beam="1">  1        2 0.29430419E+00 0.33427544E+04</pdfrwt>
<pdfrwt beam="2">  1       -2 0.22466002E+00 0.33427544E+04</pdfrwt>
<totfact> 0.57414681E-01</totfact>
</mgrwt>
</event>
<event>
 6    1  0.1780144E-005  0.2167447E+04  0.7818608E-02  0.8532101E-01
         -2   -1    0    0    0  501 -0.00000000000E+00  0.00000000000E+00  0.10209430000E+04  0.10209430000E+04  0.00000000000E+00 0. -1.
          2   -1    0    0  501    0  0.00000000000E+00 -0.00000000000E+00 -0.11503644192E+04  0.11503644192E+04  0.00000000000E+00 0.  1.
         23    2    1    2    0    0  0.83581223069E+03 -0.46683546535E+03  0.43987934761E+03  0.10574758341E+04  0.90795719151E+02 0.  0.
         11    1    3    3    0    0  0.41657549018E+03 -0.18875203632E+03  0.18287650643E+03  0.49255079619E+03  0.00000000000E+00 0.  1.
        -11    1    3    3    0    0  0.41923674052E+03 -0.27808342903E+03  0.25700284119E+03  0.56492503793E+03  0.00000000000E+00 0. -1.
         22    1    1    2    0    0 -0.83581223069E+03  0.46683546535E+03 -0.56930076680E+03  0.11138315850E+04  0.00000000000E+00 0.  1.
<mgrwt>
<rscale>  0 0.21674469E+04</rscale>
<asrwt>0</asrwt>
<pdfrwt beam="1">  1        2 0.17697914E+00 0.21674469E+04</pdfrwt>
<pdfrwt beam="2">  1       -2 0.15706815E+00 0.21674469E+04</pdfrwt>
<totfact> 0.49260149E+00</totfact>
</mgrwt>
</event>
<event>
 6    1  0.1780144E-005  0.1681571E+04  0.7818608E-02  0.8771945E-01
          1   -1    0    0  501    0  0.00000000000E+00  0.00000000000E+00  0.62365788034E+03  0.62365788034E+03  0.00000000000E+00 0. -1.
         -1   -1    0    0    0  501 -0.00000000000E+00 -0.00000000000E+00 -0.11335067721E+04  0.11335067721E+04  0.00000000000E+00 0.  1.
         23    2    1    2    0    0  0.69399917332E+03 -0.66624891197E+02  0.23085901838E+03  0.73995182474E+03  0.90327669493E+02 0.  0.
         13    1    3    3    0    0  0.29267483908E+03 -0.37033329917E+02  0.51898999923E+02  0.29953887085E+03  0.00000000000E+00 0.  1.
        -13    1    3    3    0    0  0.40132433424E+03 -0.29591561280E+02  0.17896001846E+03  0.44041295390E+03  0.00000000000E+00 0. -1.
         22    1    1    2    0    0 -0.69399917332E+03  0.66624891197E+02 -0.74070791014E+03  0.10172128277E+04  0.00000000000E+00 0.  1.
<mgrwt>
<rscale>  0 0.16815712E+04</rscale>
<asrwt>0</asrwt>
<pdfrwt beam="1">  1        1 0.95947367E-01 0.16815712E+04</pdfrwt>
<pdfrwt beam="2">  1       -1 0.17438566E+00 0.16815712E+04</pdfrwt>
<totfact> 0.70503192E+00</totfact>
</mgrwt>
</event>
<event>
 6    1  0.1780144E-005  0.1874783E+04  0.7818608E-02  0.8667511E-01
         -2   -1    0    0    0  501 -0.00000000000E+00  0.00000000000E+00  0.60688325476E+03  0.60688325476E+03  0.00000000000E+00 0. -1.
          2   -1    0    0  501    0  0.00000000000E+00 -0.00000000000E+00 -0.14478939540E+04  0.14478939540E+04  0.00000000000E+00 0.  1.
         23    2    1    2    0    0 -0.17963201683E+03 -0.50181921185E+03  0.42123470431E+03  0.68461165613E+03  0.84641956167E+02 0.  0.
         13    1    3    3    0    0 -0.16589506206E+03 -0.39233569458E+03  0.36400793052E+03  0.56031262911E+03  0.00000000000E+00 0. -1.
        -13    1    3    3    0    0 -0.13736954767E+02 -0.10948351727E+03  0.57226773785E+02  0.12429902702E+03  0.00000000000E+00 0.  1.
         22    1    1    2    0    0  0.17963201683E+03  0.50181921185E+03 -0.12622454036E+04  0.13701655526E+04  0.00000000000E+00 0.  1.
<mgrwt>
<rscale>  0 0.18747828E+04</rscale>
<asrwt>0</asrwt>
<pdfrwt beam="1">  1        2 0.22275291E+00 0.18747828E+04</pdfrwt>
<pdfrwt beam="2">  1       -2 0.93366655E-01 0.18747828E+04</pdfrwt>
<totfact> 0.12376365E+01</totfact>
</mgrwt>
</event>
<event>
 6    1  0.1780144E-005  0.2817737E+04  0.7818608E-02  0.8297783E-01
         -2   -1    0    0    0  501 -0.00000000000E+00  0.00000000000E+00  0.10322314982E+04  0.10322314982E+04  0.00000000000E+00 0.  1.
          2   -1    0    0  501    0  0.00000000000E+00 -0.00000000000E+00 -0.19229311013E+04  0.19229311013E+04  0.00000000000E+00 0. -1.
         23    2    1    2    0    0 -0.10180495371E+03  0.61711246277E+03 -0.17681219131E+04  0.18776367528E+04  0.89847846047E+02 0.  0.
         13    1    3    3    0    0 -0.48553725791E+02  0.47536378461E+03 -0.12657946547E+04  0.13529834810E+04  0.00000000000E+00 0.  1.
        -13    1    3    3    0    0 -0.53251227915E+02  0.14174867815E+03 -0.50232725841E+03  0.52465327176E+03  0.00000000000E+00 0. -1.
         22    1    1    2    0    0  0.10180495371E+03 -0.61711246277E+03  0.87742231000E+03  0.10775258467E+04  0.00000000000E+00 0.  1.
<mgrwt>
<rscale>  0 0.28177367E+04</rscale>
<asrwt>0</asrwt>
<pdfrwt beam="1">  1        2 0.29583556E+00 0.28177367E+04</pdfrwt>
<pdfrwt beam="2">  1       -2 0.15880485E+00 0.28177367E+04</pdfrwt>
<totfact> 0.16473907E+00</totfact>
</mgrwt>
</event>
<event>
 6    1  0.1780144E-005  0.7074140E+03  0.7818608E-02  0.9704637E-01
          1   -1    0    0  501    0  0.00000000000E+00  0.00000000000E+00  0.10389408875E+04  0.10389408875E+04  0.00000000000E+00 0. -1.
         -1   -1    0    0    0  501 -0.00000000000E+00 -0.00000000000E+00 -0.12041941766E+03  0.12041941766E+03  0.00000000000E+00 0.  1.
         23    2    1    2    0    0  0.16796899182E+03 -0.28582535009E+03  0.63979159995E+03  0.72623208703E+03  0.90388273018E+02 0.  0.
         11    1    3    3    0    0  0.24284915812E+02 -0.36958813603E+02  0.34154607629E+02  0.55877081717E+02  0.00000000000E+00 0.  1.
        -11    1    3    3    0    0  0.14368407601E+03 -0.24886653649E+03  0.60563699232E+03  0.67035500532E+03  0.00000000000E+00 0. -1.
         22    1    1    2    0    0 -0.16796899182E+03  0.28582535009E+03  0.27872986989E+03  0.43312821813E+03  0.00000000000E+00 0.  1.
<mgrwt>
<rscale>  0 0.70741404E+03</rscale>
<asrwt>0</asrwt>
<pdfrwt beam="1">  1        1 0.15983705E+00 0.70741404E+03</pdfrwt>
<pdfrwt beam="2">  1       -1 0.18526065E-01 0.70741404E+03</pdfrwt>
<totfact> 0.33219561E+02</totfact>
</mgrwt>
</event>
<event>
 6    1  0.1780144E-005  0.5876089E+03  0.7818608E-02  0.9931452E-01
         -2   -1    0    0    0  501 -0.00000000000E+00  0.00000000000E+00  0.86142426930E+02  0.86142426930E+02  0.00000000000E+00 0.  1.
          2   -1    0    0  501    0  0.00000000000E+00 -0.00000000000E+00 -0.10020736025E+04  0.10020736025E+04  0.00000000000E+00 0. -1.
         23    2    1    2    0    0 -0.15798718032E+03 -0.23525112647E+03 -0.38946645471E+03  0.49032963222E+03  0.91847630558E+02 0.  0.
         13    1    3    3    0    0 -0.74923364524E+02 -0.16202751331E+03 -0.18064769260E+03  0.25396853046E+03  0.00000000000E+00 0. -1.
        -13    1    3    3    0    0 -0.83063815794E+02 -0.73223613167E+02 -0.20881876211E+03  0.23636110177E+03  0.00000000000E+00 0.  1.
         22    1    1    2    0    0  0.15798718032E+03  0.23525112647E+03 -0.52646472084E+03  0.59788639718E+03  0.00000000000E+00 0. -1.
<mgrwt>
<rscale>  0 0.58760889E+03</rscale>
<asrwt>0</asrwt>
<pdfrwt beam="1">  1        2 0.15416518E+00 0.58760889E+03</pdfrwt>
<pdfrwt beam="2">  1       -2 0.13252680E-01 0.58760889E+03</pdfrwt>
<totfact> 0.10922472E+03</totfact>
</mgrwt>
</event>
<event>
 6    1  0.1780144E-005  0.2628039E+04  0.7818608E-02  0.8358739E-01
         -3   -1    0    0    0  501 -0.00000000000E+00  0.00000000000E+00  0.76023615787E+03  0.76023615787E+03  0.00000000000E+00 0.  1.
          3   -1    0    0  501    0  0.00000000000E+00 -0.00000000000E+00 -0.22711991594E+04  0.22711991594E+04  0.00000000000E+00 0. -1.
         23    2    1    2    0    0 -0.10622136834E+04  0.43847779051E+03 -0.14877532467E+04  0.18820444461E+04  0.90115992998E+02 0.  0.
         13    1    3    3    0    0 -0.73554839652E+03  0.32856191341E+03 -0.98476835231E+03  0.12723022763E+04  0.00000000000E+00 0. -1.
        -13    1    3    3    0    0 -0.32666528684E+03  0.10991587711E+03 -0.50298489440E+03  0.60974216982E+03  0.00000000000E+00 0.  1.
         22    1    1    2    0    0  0.10622136834E+04 -0.43847779051E+03 -0.23209754796E+02  0.11493908711E+04  0.00000000000E+00 0.  1.
<mgrwt>
<rscale>  0 0.26280394E+04</rscale>
<asrwt>0</asrwt>
<pdfrwt beam="1">  1        3 0.34941525E+00 0.26280394E+04</pdfrwt>
<pdfrwt beam="2">  1       -3 0.11695941E+00 0.26280394E+04</pdfrwt>
<totfact> 0.28726568E-02</totfact>
</mgrwt>
</event>
<event>
 6    1  0.1780144E-005  0.2096759E+04  0.7818608E-02  0.8562672E-01
         -1   -1    0    0    0  501 -0.00000000000E+00  0.00000000000E+00  0.13599028105E+04  0.13599028105E+04  0.00000000000E+00 0.  1.
          1   -1    0    0  501    0  0.00000000000E+00 -0.00000000000E+00 -0.80821925189E+03  0.80821925189E+03  0.00000000000E+00 0. -1.
         23    2    1    2    0    0  0.98079601571E+03  0.42033245578E+02 -0.98252209669E+02  0.99077584266E+03  0.90860637923E+02 0.  0.
         11    1    3    3    0    0  0.54735970844E+03  0.64310327435E+02 -0.35660362054E+02  0.55227722211E+03  0.00000000000E+00 0.  1.
        -11    1    3    3    0    0  0.43343630727E+03 -0.22277081857E+02 -0.62591847615E+02  0.43849862055E+03  0.00000000000E+00 0. -1.
         22    1    1    2    0    0 -0.98079601571E+03 -0.42033245578E+02  0.64993576824E+03  0.11773462197E+04  0.00000000000E+00 0. -1.
<mgrwt>
<rscale>  0 0.20967591E+04</rscale>
<asrwt>0</asrwt>
<pdfrwt beam="1">  1        1 0.12434142E+00 0.20967591E+04</pdfrwt>
<pdfrwt beam="2">  1       -1 0.20921582E+00 0.20967591E+04</pdfrwt>
<totfact> 0.26035335E+00</totfact>
</mgrwt>
</event>
<event>
 6    1  0.1780144E-005  0.9572163E+03  0.7818608E-02  0.9356755E-01
         -2   -1    0    0    0  501 -0.00000000000E+00  0.00000000000E+00  0.10415664548E+03  0.10415664548E+03  0.00000000000E+00 0.  1.
          2   -1    0    0  501    0  0.00000000000E+00 -0.00000000000E+00 -0.21992428171E+04  0.21992428171E+04  0.00000000000E+00 0. -1.
         23    2    1    2    0    0 -0.66938276712E+02  0.43471045498E+02 -0.21821278889E+04  0.21853032085E+04  0.86588250939E+02 0.  0.
         11    1    3    3    0    0 -0.89127138124E+01  0.44745243570E+02 -0.47428181933E+03  0.47647121365E+03  0.00000000000E+00 0. -1.
        -11    1    3    3    0    0 -0.58025562900E+02 -0.12741980715E+01 -0.17078460695E+04  0.17088319949E+04  0.00000000000E+00 0.  1.
         22    1    1    2    0    0  0.66938276712E+02 -0.43471045498E+02  0.87041717229E+02  0.11809625406E+03  0.00000000000E+00 0.  1.
<mgrwt>
<rscale>  0 0.95721629E+03</rscale>
<asrwt>0</asrwt>
<pdfrwt beam="1">  1        2 0.33834503E+00 0.95721629E+03</pdfrwt>
<pdfrwt beam="2">  1       -2 0.16024100E-01 0.95721629E+03</pdfrwt>
<totfact> 0.16361477E+02</totfact>
</mgrwt>
</event>
<event>
 6    1  0.1780144E-005  0.3857845E+04  0.7818608E-02  0.8033854E-01
         -2   -1    0    0    0  501 -0.00000000000E+00  0.00000000000E+00  0.28117378892E+04  0.28117378892E+04  0.00000000000E+00 0.  1.
          2   -1    0    0  501    0  0.00000000000E+00 -0.00000000000E+00 -0.13232890179E+04  0.13232890179E+04  0.00000000000E+00 0. -1.
         23    2    1    2    0    0  0.23876484782E+03 -0.28323876537E+03  0.27725077979E+04  0.27985987656E+04  0.90126082426E+02 0.  0.
         13    1    3    3    0    0  0.10767724829E+03 -0.13448059302E+03  0.96591206542E+03  0.98115520578E+03  0.00000000000E+00 0. -1.
        -13    1    3    3    0    0  0.13108759953E+03 -0.14875817235E+03  0.18065957324E+04  0.18174435598E+04  0.00000000000E+00 0.  1.
         22    1    1    2    0    0 -0.23876484782E+03  0.28323876537E+03 -0.12840589265E+04  0.13364281416E+04  0.00000000000E+00 0. -1.
<mgrwt>
<rscale>  0 0.38578449E+04</rscale>
<asrwt>0</asrwt>
<pdfrwt beam="1">  1        2 0.20358293E+00 0.38578449E+04</pdfrwt>
<pdfrwt beam="2">  1       -2 0.43257506E+00 0.38578449E+04</pdfrwt>
<totfact> 0.57856177E-02</totfact>
</mgrwt>
</event>
<event>
 6    1  0.1780144E-005  0.6761860E+03  0.7818608E-02  0.9758847E-01
         -2   -1    0    0    0  501 -0.00000000000E+00  0.00000000000E+00  0.38957654723E+03  0.38957654723E+03  0.00000000000E+00 0.  1.
          2   -1    0    0  501    0  0.00000000000E+00 -0.00000000000E+00 -0.29341313188E+03  0.29341313188E+03  0.00000000000E+00 0. -1.
         23    2    1    2    0    0  0.27474272564E+02  0.32589785448E+03  0.10365656272E+03  0.35584996207E+03  0.94447156131E+02 0.  0.
         13    1    3    3    0    0  0.10404648419E+02  0.30276181910E+03  0.68780430805E+02  0.31065048443E+03  0.00000000000E+00 0.  1.
        -13    1    3    3    0    0  0.17069624145E+02  0.23136035381E+02  0.34876131916E+02  0.45199477641E+02  0.00000000000E+00 0. -1.
         22    1    1    2    0    0 -0.27474272564E+02 -0.32589785448E+03 -0.74931473707E+01  0.32713971704E+03  0.00000000000E+00 0. -1.
<mgrwt>
<rscale>  0 0.67618599E+03</rscale>
<asrwt>0</asrwt>
<pdfrwt beam="1">  1        2 0.45140482E-01 0.67618599E+03</pdfrwt>
<pdfrwt beam="2">  1       -2 0.59934853E-01 0.67618599E+03</pdfrwt>
<totfact> 0.29504594E+02</totfact>
</mgrwt>
</event>
<event>
 6    1  0.1780144E-005  0.1374371E+04  0.7818608E-02  0.8972582E-01
          2   -1    0    0  501    0  0.00000000000E+00  0.00000000000E+00  0.93281455306E+03  0.93281455306E+03  0.00000000000E+00 0.  1.
         -2   -1    0    0    0  501 -0.00000000000E+00 -0.00000000000E+00 -0.50623527756E+03  0.50623527756E+03  0.00000000000E+00 0. -1.
         23    2    1    2    0    0 -0.39781184159E+03 -0.37541361467E+03  0.64396997618E+03  0.85045118966E+03  0.96851703045E+02 0.  0.
         13    1    3    3    0    0 -0.25745114139E+02 -0.20229503674E+02  0.83640696775E+02  0.89820987959E+02  0.00000000000E+00 0. -1.
        -13    1    3    3    0    0 -0.37206672745E+03 -0.35518411099E+03  0.56032927941E+03  0.76063020170E+03  0.00000000000E+00 0.  1.
         22    1    1    2    0    0  0.39781184159E+03  0.37541361467E+03 -0.21739070068E+03  0.58859864095E+03  0.00000000000E+00 0. -1.
<mgrwt>
<rscale>  0 0.13743706E+04</rscale>
<asrwt>0</asrwt>
<pdfrwt beam="1">  1        2 0.14350993E+00 0.13743706E+04</pdfrwt>
<pdfrwt beam="2">  1       -2 0.77882351E-01 0.13743706E+04</pdfrwt>
<totfact> 0.39910378E+01</totfact>
</mgrwt>
</event>
<event>
 6    1  0.1780144E-005  0.1653216E+04  0.7818608E-02  0.8788506E-01
          4   -1    0    0  501    0  0.00000000000E+00  0.00000000000E+00  0.76281114447E+03  0.76281114447E+03  0.00000000000E+00 0. -1.
         -4   -1    0    0    0  501 -0.00000000000E+00 -0.00000000000E+00 -0.89574089810E+03  0.89574089810E+03  0.00000000000E+00 0.  1.
         23    2    1    2    0    0  0.58471615962E+03  0.57333157724E+03  0.25516725637E+02  0.82446129716E+03  0.92104519133E+02 0.  0.
         11    1    3    3    0    0  0.36503619008E+03  0.39954706791E+03 -0.15222355772E+02  0.54140650131E+03  0.00000000000E+00 0. -1.
        -11    1    3    3    0    0  0.21967996954E+03  0.17378450933E+03  0.40739081409E+02  0.28305479585E+03  0.00000000000E+00 0.  1.
         22    1    1    2    0    0 -0.58471615962E+03 -0.57333157724E+03 -0.15844647927E+03  0.83409074541E+03  0.00000000000E+00 0.  1.
<mgrwt>
<rscale>  0 0.16532164E+04</rscale>
<asrwt>0</asrwt>
<pdfrwt beam="1">  1        4 0.11735556E+00 0.16532164E+04</pdfrwt>
<pdfrwt beam="2">  1       -4 0.13780629E+00 0.16532164E+04</pdfrwt>
<totfact> 0.39816889E-01</totfact>
</mgrwt>
</event>
<event>
 6    1  0.1780144E-005  0.6247177E+03  0.7818608E-02  0.9855411E-01
          1   -1    0    0  501    0  0.00000000000E+00  0.00000000000E+00  0.12424300768E+03  0.12424300768E+03  0.00000000000E+00 0. -1.
         -1   -1    0    0    0  501 -0.00000000000E+00 -0.00000000000E+00 -0.78530006036E+03  0.78530006036E+03  0.00000000000E+00 0.  1.
         23    2    1    2    0    0  0.77703339159E+02 -0.15995984919E+03  0.23244014416E+02  0.20251201306E+03  0.94052479813E+02 0.  0.
         13    1    3    3    0    0  0.81237798584E+02 -0.64435018703E+02 -0.17657879648E+01  0.10370424081E+03  0.00000000000E+00 0.  1.
        -13    1    3    3    0    0 -0.35344594248E+01 -0.95524830490E+02  0.25009802381E+02  0.98807772258E+02  0.00000000000E+00 0. -1.
         22    1    1    2    0    0 -0.77703339159E+02  0.15995984919E+03 -0.68430106709E+03  0.70703105497E+03  0.00000000000E+00 0.  1.
<mgrwt>
<rscale>  0 0.62471767E+03</rscale>
<asrwt>0</asrwt>
<pdfrwt beam="1">  1        1 0.19114309E-01 0.62471767E+03</pdfrwt>
<pdfrwt beam="2">  1       -1 0.12081539E+00 0.62471767E+03</pdfrwt>
<totfact> 0.17291993E+02</totfact>
</mgrwt>
</event>
<event>
 6    1  0.1780144E-005  0.1986466E+04  0.7818608E-02  0.8612974E-01
          3   -1    0    0  501    0  0.00000000000E+00  0.00000000000E+00  0.80769265278E+03  0.80769265278E+03  0.00000000000E+00 0. -1.
         -3   -1    0    0    0  501 -0.00000000000E+00 -0.00000000000E+00 -0.12213952335E+04  0.12213952335E+04  0.00000000000E+00 0.  1.
         23    2    1    2    0    0  0.34432371504E+02  0.37033465073E+03  0.73122213471E+03  0.82526649349E+03  0.89697453998E+02 0.  0.
         13    1    3    3    0    0 -0.21563722435E+02  0.20512696591E+03  0.35495440918E+03  0.41052977829E+03  0.00000000000E+00 0.  1.
        -13    1    3    3    0    0  0.55996093939E+02  0.16520768482E+03  0.37626772553E+03  0.41473671520E+03  0.00000000000E+00 0. -1.
         22    1    1    2    0    0 -0.34432371504E+02 -0.37033465073E+03 -0.11449247155E+04  0.12038213928E+04  0.00000000000E+00 0.  1.
<mgrwt>
<rscale>  0 0.19864662E+04</rscale>
<asrwt>0</asrwt>
<pdfrwt beam="1">  1        3 0.12426041E+00 0.19864662E+04</pdfrwt>
<pdfrwt beam="2">  1       -3 0.18790696E+00 0.19864662E+04</pdfrwt>
<totfact> 0.22142134E-01</totfact>
</mgrwt>
</event>
<event>
 6    1  0.1780144E-005  0.3397448E+04  0.7818608E-02  0.8138533E-01
         -1   -1    0    0    0  501 -0.00000000000E+00  0.00000000000E+00  0.93112460002E+03  0.93112460002E+03  0.00000000000E+00 0.  1.
          1   -1    0    0  501    0  0.00000000000E+00 -0.00000000000E+00 -0.30991153155E+04  0.30991153155E+04  0.00000000000E+00 0. -1.
         23    2    1    2    0    0 -0.16424833622E+04 -0.41840085071E+03 -0.98556389484E+03  0.19636136664E+04  0.10784977079E+03 0.  0.
         11    1    3    3    0    0 -0.88869027683E+03 -0.27177286149E+03 -0.57515551445E+03  0.10929019911E+04  0.00000000000E+00 0. -1.
        -11    1    3    3    0    0 -0.75379308542E+03 -0.14662798922E+03 -0.41040838038E+03  0.87071167532E+03  0.00000000000E+00 0.  1.
         22    1    1    2    0    0  0.16424833622E+04  0.41840085071E+03 -0.11824268206E+04  0.20666262490E+04  0.00000000000E+00 0.  1.
<mgrwt>
<rscale>  0 0.33974476E+04</rscale>
<asrwt>0</asrwt>
<pdfrwt beam="1">  1        1 0.47678698E+00 0.33974476E+04</pdfrwt>
<pdfrwt beam="2">  1       -1 0.14324994E+00 0.33974476E+04</pdfrwt>
<totfact> 0.16395591E-01</totfact>
</mgrwt>
</event>
<event>
 6    1  0.1780144E-005  0.1485701E+04  0.7818608E-02  0.8894018E-01
          2   -1    0    0  501    0  0.00000000000E+00  0.00000000000E+00  0.19920193622E+04  0.19920193622E+04  0.00000000000E+00 0. -1.
         -2   -1    0    0    0  501 -0.00000000000E+00 -0.00000000000E+00 -0.27701872460E+03  0.27701872460E+03  0.00000000000E+00 0.  1.
         23    2    1    2    0    0  0.14203507699E+03 -0.61745600413E+03  0.14452821103E+04  0.15804351794E+04  0.86655050145E+02 0.  0.
         11    1    3    3    0    0  0.73347159595E+02 -0.26629517522E+03  0.73334573959E+03  0.78363824558E+03  0.00000000000E+00 0.  1.
        -11    1    3    3    0    0  0.68687917394E+02 -0.35116082891E+03  0.71193637071E+03  0.79679693379E+03  0.00000000000E+00 0. -1.
         22    1    1    2    0    0 -0.14203507699E+03  0.61745600413E+03  0.26971852727E+03  0.68860290741E+03  0.00000000000E+00 0.  1.
<mgrwt>
<rscale>  0 0.14857007E+04</rscale>
<asrwt>0</asrwt>
<pdfrwt beam="1">  1        2 0.30646451E+00 0.14857007E+04</pdfrwt>
<pdfrwt beam="2">  1       -2 0.42618267E-01 0.14857007E+04</pdfrwt>
<totfact> 0.34087823E+01</totfact>
</mgrwt>
</event>
<event>
 6    1  0.1780144E-005  0.3118566E+04  0.7818608E-02  0.8210661E-01
         -1   -1    0    0    0  501 -0.00000000000E+00  0.00000000000E+00  0.21694451402E+04  0.21694451402E+04  0.00000000000E+00 0.  1.
          1   -1    0    0  501    0  0.00000000000E+00 -0.00000000000E+00 -0.11207305150E+04  0.11207305150E+04  0.00000000000E+00 0. -1.
         23    2    1    2    0    0  0.82536383822E+03 -0.87055016817E+03 -0.52394911494E+03  0.13122084410E+04  0.91023385964E+02 0.  0.
         11    1    3    3    0    0  0.47537371333E+03 -0.43912928383E+03 -0.26560637959E+03  0.69954373996E+03  0.00000000000E+00 0. -1.
        -11    1    3    3    0    0  0.34999012489E+03 -0.43142088434E+03 -0.25834273536E+03  0.61266470102E+03  0.00000000000E+00 0.  1.
         22    1    1    2    0    0 -0.82536383822E+03  0.87055016817E+03  0.15726637402E+04  0.19779672142E+04  0.00000000000E+00 0.  1.
<mgrwt>
<rscale>  0 0.31185659E+04</rscale>
<asrwt>0</asrwt>
<pdfrwt beam="1">  1        1 0.17242008E+00 0.31185659E+04</pdfrwt>
<pdfrwt beam="2">  1       -1 0.33376079E+00 0.31185659E+04</pdfrwt>
<totfact> 0.20489574E-01</totfact>
</mgrwt>
</event>
<event>
 6    1  0.1780144E-005  0.7596000E+03  0.7818608E-02  0.9620409E-01
          2   -1    0    0  501    0  0.00000000000E+00  0.00000000000E+00  0.45806777073E+03  0.45806777073E+03  0.00000000000E+00 0. -1.
         -2   -1    0    0    0  501 -0.00000000000E+00 -0.00000000000E+00 -0.31490546367E+03  0.31490546367E+03  0.00000000000E+00 0.  1.
         23    2    1    2    0    0 -0.20405371243E+03  0.29751989957E+03  0.17291710896E+03  0.41097688575E+03  0.94051400029E+02 0.  0.
         11    1    3    3    0    0 -0.63269640996E+02  0.80844620212E+02  0.98034466319E+02  0.14194948635E+03  0.00000000000E+00 0.  1.
        -11    1    3    3    0    0 -0.14078407144E+03  0.21667527936E+03  0.74882642642E+02  0.26902739940E+03  0.00000000000E+00 0. -1.
         22    1    1    2    0    0  0.20405371243E+03 -0.29751989957E+03 -0.29754801903E+02  0.36199634865E+03  0.00000000000E+00 0.  1.
<mgrwt>
<rscale>  0 0.75960001E+03</rscale>
<asrwt>0</asrwt>
<pdfrwt beam="1">  1        2 0.70471965E-01 0.75960001E+03</pdfrwt>
<pdfrwt beam="2">  1       -2 0.48446994E-01 0.75960001E+03</pdfrwt>
<totfact> 0.27720534E+02</totfact>
</mgrwt>
</event>
<event>
 6    1  0.1780144E-005  0.2411461E+04  0.7818608E-02  0.8435225E-01
         -1   -1    0    0    0  501 -0.00000000000E+00  0.00000000000E+00  0.27358844743E+04  0.27358844743E+04  0.00000000000E+00 0.  1.
          1   -1    0    0  501    0  0.00000000000E+00 -0.00000000000E+00 -0.53137712532E+03  0.53137712532E+03  0.00000000000E+00 0. -1.
         23    2    1    2    0    0 -0.75111950418E+03  0.37659397959E+03 -0.64396387618E+02  0.84777245913E+03  0.92561939858E+02 0.  0.
         13    1    3    3    0    0 -0.72369960840E+03  0.34163062614E+03 -0.53774021243E+02  0.80208743494E+03  0.00000000000E+00 0. -1.
        -13    1    3    3    0    0 -0.27419895771E+02  0.34963353448E+02 -0.10622366374E+02  0.45685024197E+02  0.00000000000E+00 0.  1.
         22    1    1    2    0    0  0.75111950418E+03 -0.37659397959E+03  0.22689037366E+04  0.24194891405E+04  0.00000000000E+00 0.  1.
<mgrwt>
<rscale>  0 0.24114613E+04</rscale>
<asrwt>0</asrwt>
<pdfrwt beam="1">  1        1 0.81750329E-01 0.24114613E+04</pdfrwt>
<pdfrwt beam="2">  1       -1 0.42090530E+00 0.24114613E+04</pdfrwt>
<totfact> 0.18735295E-01</totfact>
</mgrwt>
</event>
<event>
 6    1  0.1780144E-005  0.1932387E+04  0.7818608E-02  0.8638901E-01
          2   -1    0    0  501    0  0.00000000000E+00  0.00000000000E+00  0.48090338794E+03  0.48090338794E+03  0.00000000000E+00 0. -1.
         -2   -1    0    0    0  501 -0.00000000000E+00 -0.00000000000E+00 -0.19412010738E+04  0.19412010738E+04  0.00000000000E+00 0.  1.
         23    2    1    2    0    0 -0.30238999680E+03 -0.91197464404E+03 -0.63242590453E+03  0.11538343218E+04  0.90739494750E+02 0.  0.
         11    1    3    3    0    0 -0.22551631185E+03 -0.71955640907E+03 -0.45254035973E+03  0.87943834914E+03  0.00000000000E+00 0.  1.
        -11    1    3    3    0    0 -0.76873684941E+02 -0.19241823497E+03 -0.17988554481E+03  0.27439597267E+03  0.00000000000E+00 0. -1.
         22    1    1    2    0    0  0.30238999680E+03  0.91197464404E+03 -0.82787178134E+03  0.12682701399E+04  0.00000000000E+00 0.  1.
<mgrwt>
<rscale>  0 0.19323873E+04</rscale>
<asrwt>0</asrwt>
<pdfrwt beam="1">  1        2 0.73985136E-01 0.19323873E+04</pdfrwt>
<pdfrwt beam="2">  1       -2 0.29864632E+00 0.19323873E+04</pdfrwt>
<totfact> 0.19520460E+00</totfact>
</mgrwt>
</event>
<event>
 6    1  0.1780144E-005  0.2098299E+04  0.7818608E-02  0.8561993E-01
         -2   -1    0    0    0  501 -0.00000000000E+00  0.00000000000E+00  0.88564429447E+03  0.88564429447E+03  0.00000000000E+00 0.  1.
          2   -1    0    0  501    0  0.00000000000E+00 -0.00000000000E+00 -0.12428400224E+04  0.12428400224E+04  0.00000000000E+00 0. -1.
         23    2    1    2    0    0  0.89358520055E+03  0.54595713751E+03 -0.17255609586E+03  0.10651614588E+04  0.90717255900E+02 0.  0.
         13    1    3    3    0    0  0.55902461745E+03  0.37175570581E+03 -0.14592660691E+03  0.68702649317E+03  0.00000000000E+00 0. -1.
        -13    1    3    3    0    0  0.33456058310E+03  0.17420143170E+03 -0.26629488950E+02  0.37813496566E+03  0.00000000000E+00 0.  1.
         22    1    1    2    0    0 -0.89358520055E+03 -0.54595713751E+03 -0.18463963204E+03  0.10633228580E+04  0.00000000000E+00 0. -1.
<mgrwt>
<rscale>  0 0.20982985E+04</rscale>
<asrwt>0</asrwt>
<pdfrwt beam="1">  1        2 0.19120616E+00 0.20982985E+04</pdfrwt>
<pdfrwt beam="2">  1       -2 0.13625297E+00 0.20982985E+04</pdfrwt>
<totfact> 0.63435468E+00</totfact>
</mgrwt>
</event>
<event>
 6    1  0.1780144E-005  0.1577627E+04  0.7818608E-02  0.8834411E-01
         -1   -1    0    0    0  501 -0.00000000000E+00  0.00000000000E+00  0.13539968481E+04  0.13539968481E+04  0.00000000000E+00 0.  1.
          1   -1    0    0  501    0  0.00000000000E+00 -0.00000000000E+00 -0.45954841281E+03  0.45954841281E+03  0.00000000000E+00 0. -1.
         23    2    1    2    0    0 -0.14367117631E+03  0.46934622991E+03  0.11547222856E+04  0.12579646929E+04  0.90356633720E+02 0.  0.
         11    1    3    3    0    0 -0.22847508383E+02  0.22707861586E+03  0.51332543633E+03  0.56177371780E+03  0.00000000000E+00 0. -1.
        -11    1    3    3    0    0 -0.12082366793E+03  0.24226761405E+03  0.64139684926E+03  0.69619097509E+03  0.00000000000E+00 0.  1.
         22    1    1    2    0    0  0.14367117631E+03 -0.46934622991E+03 -0.26027385029E+03  0.55558056804E+03  0.00000000000E+00 0. -1.
<mgrwt>
<rscale>  0 0.15776275E+04</rscale>
<asrwt>0</asrwt>
<pdfrwt beam="1">  1        1 0.70699756E-01 0.15776275E+04</pdfrwt>
<pdfrwt beam="2">  1       -1 0.20830721E+00 0.15776275E+04</pdfrwt>
<totfact> 0.63139856E+00</totfact>
</mgrwt>
</event>
<event>
 6    1  0.1780144E-005  0.7636415E+03  0.7818608E-02  0.9614189E-01
         -1   -1    0    0    0  501 -0.00000000000E+00  0.00000000000E+00  0.63308942678E+03  0.63308942678E+03  0.00000000000E+00 0.  1.
          1   -1    0    0  501    0  0.00000000000E+00 -0.00000000000E+00 -0.23027881885E+03  0.23027881885E+03  0.00000000000E+00 0. -1.
         23    2    1    2    0    0 -0.22575251604E+03 -0.21077108345E+03 -0.38664240238E+02  0.32458378995E+03  0.92038389295E+02 0.  0.
         11    1    3    3    0    0  0.42655192216E+01 -0.28243174213E+02 -0.53412428028E+01  0.29058568763E+02  0.00000000000E+00 0. -1.
        -11    1    3    3    0    0 -0.23001803526E+03 -0.18252790924E+03 -0.33322997435E+02  0.29552522119E+03  0.00000000000E+00 0.  1.
         22    1    1    2    0    0  0.22575251604E+03  0.21077108345E+03  0.44147484816E+03  0.53878445568E+03  0.00000000000E+00 0.  1.
<mgrwt>
<rscale>  0 0.76364150E+03</rscale>
<asrwt>0</asrwt>
<pdfrwt beam="1">  1        1 0.35427511E-01 0.76364150E+03</pdfrwt>
<pdfrwt beam="2">  1       -1 0.97398373E-01 0.76364150E+03</pdfrwt>
<totfact> 0.12702103E+02</totfact>
</mgrwt>
</event>
<event>
 6    1  0.1780144E-005  0.1922530E+04  0.7818608E-02  0.8643722E-01
         -2   -1    0    0    0  501 -0.00000000000E+00  0.00000000000E+00  0.15786626996E+04  0.15786626996E+04  0.00000000000E+00 0.  1.
          2   -1    0    0  501    0  0.00000000000E+00 -0.00000000000E+00 -0.58532506270E+03  0.58532506270E+03  0.00000000000E+00 0. -1.
         23    2    1    2    0    0 -0.95862591386E+03  0.13836479825E+02  0.47597580729E+03  0.10745758321E+04  0.94895516052E+02 0.  0.
         13    1    3    3    0    0 -0.21875648203E+03 -0.31129177023E+02  0.13234099793E+03  0.25756079636E+03  0.00000000000E+00 0. -1.
        -13    1    3    3    0    0 -0.73986943184E+03  0.44965656848E+02  0.34363480936E+03  0.81701503577E+03  0.00000000000E+00 0.  1.
         22    1    1    2    0    0  0.95862591386E+03 -0.13836479825E+02  0.51736182963E+03  0.10894119302E+04  0.00000000000E+00 0. -1.
<mgrwt>
<rscale>  0 0.19225305E+04</rscale>
<asrwt>0</asrwt>
<pdfrwt beam="1">  1        2 0.90050010E-01 0.19225305E+04</pdfrwt>
<pdfrwt beam="2">  1       -2 0.24287118E+00 0.19225305E+04</pdfrwt>
<totfact> 0.33960693E+00</totfact>
</mgrwt>
</event>
<event>
 6    1  0.1780144E-005  0.2394778E+04  0.7818608E-02  0.8441461E-01
         -2   -1    0    0    0  501 -0.00000000000E+00  0.00000000000E+00  0.11642887166E+04  0.11642887166E+04  0.00000000000E+00 0.  1.
          2   -1    0    0  501    0  0.00000000000E+00 -0.00000000000E+00 -0.12314305686E+04  0.12314305686E+04  0.00000000000E+00 0. -1.
         23    2    1    2    0    0 -0.70846469418E+03  0.14570568431E+03 -0.98611899162E+03  0.12262444661E+04  0.89958077123E+02 0.  0.
         13    1    3    3    0    0 -0.16984992060E+03  0.72367229320E+02 -0.27309653892E+03  0.32964788938E+03  0.00000000000E+00 0. -1.
        -13    1    3    3    0    0 -0.53861477358E+03  0.73338454987E+02 -0.71302245270E+03  0.89659657670E+03  0.00000000000E+00 0.  1.
         22    1    1    2    0    0  0.70846469418E+03 -0.14570568431E+03  0.91897713966E+03  0.11694748191E+04  0.00000000000E+00 0.  1.
<mgrwt>
<rscale>  0 0.23947782E+04</rscale>
<asrwt>0</asrwt>
<pdfrwt beam="1">  1        2 0.18945086E+00 0.23947782E+04</pdfrwt>
<pdfrwt beam="2">  1       -2 0.17912134E+00 0.23947782E+04</pdfrwt>
<totfact> 0.30011205E+00</totfact>
</mgrwt>
</event>
<event>
 6    1  0.1780144E-005  0.2825876E+04  0.7818608E-02  0.8295280E-01
         -1   -1    0    0    0  501 -0.00000000000E+00  0.00000000000E+00  0.10665253956E+04  0.10665253956E+04  0.00000000000E+00 0. -1.
          1   -1    0    0  501    0  0.00000000000E+00 -0.00000000000E+00 -0.18718666256E+04  0.18718666256E+04  0.00000000000E+00 0.  1.
         23    2    1    2    0    0 -0.79181088078E+03 -0.28593875391E+03 -0.15811566414E+04  0.17935710769E+04  0.90085743244E+02 0.  0.
         13    1    3    3    0    0 -0.48717898904E+03 -0.13377073719E+03 -0.90294559087E+03  0.10346732419E+04  0.00000000000E+00 0. -1.
        -13    1    3    3    0    0 -0.30463189174E+03 -0.15216801672E+03 -0.67821105057E+03  0.75889783495E+03  0.00000000000E+00 0.  1.
         22    1    1    2    0    0  0.79181088078E+03  0.28593875391E+03  0.77581541141E+03  0.11448209443E+04  0.00000000000E+00 0. -1.
<mgrwt>
<rscale>  0 0.28258756E+04</rscale>
<asrwt>0</asrwt>
<pdfrwt beam="1">  1        1 0.28797948E+00 0.28258756E+04</pdfrwt>
<pdfrwt beam="2">  1       -1 0.16408083E+00 0.28258756E+04</pdfrwt>
<totfact> 0.85622842E-01</totfact>
</mgrwt>
</event>
<event>
 6    1  0.1780144E-005  0.2444606E+04  0.7818608E-02  0.8422990E-01
         -2   -1    0    0    0  501 -0.00000000000E+00  0.00000000000E+00  0.12907062223E+04  0.12907062223E+04  0.00000000000E+00 0.  1.
          2   -1    0    0  501    0  0.00000000000E+00 -0.00000000000E+00 -0.11575245693E+04  0.11575245693E+04  0.00000000000E+00 0. -1.
         23    2    1    2    0    0  0.62187251348E+03 -0.95578173913E+03 -0.36869293528E+03  0.12023888039E+04  0.97776272252E+02 0.  0.
         11    1    3    3    0    0  0.52130169854E+03 -0.82130831220E+03 -0.27892590384E+03  0.10119794783E+04  0.00000000000E+00 0. -1.
        -11    1    3    3    0    0  0.10057081494E+03 -0.13447342693E+03 -0.89767031442E+02  0.19040932567E+03  0.00000000000E+00 0.  1.
         22    1    1    2    0    0 -0.62187251348E+03  0.95578173913E+03  0.50187458834E+03  0.12458419877E+04  0.00000000000E+00 0.  1.
<mgrwt>
<rscale>  0 0.24446056E+04</rscale>
<asrwt>0</asrwt>
<pdfrwt beam="1">  1        2 0.17808070E+00 0.24446056E+04</pdfrwt>
<pdfrwt beam="2">  1       -2 0.19857019E+00 0.24446056E+04</pdfrwt>
<totfact> 0.24462463E+00</totfact>
</mgrwt>
</event>
<event>
 6    1  0.1780144E-005  0.1901040E+04  0.7818608E-02  0.8654339E-01
         -2   -1    0    0    0  501 -0.00000000000E+00  0.00000000000E+00  0.23939484203E+03  0.23939484203E+03  0.00000000000E+00 0. -1.
          2   -1    0    0  501    0  0.00000000000E+00 -0.00000000000E+00 -0.37740491083E+04  0.37740491083E+04  0.00000000000E+00 0.  1.
         23    2    1    2    0    0 -0.93217974473E+03  0.93516001841E+01 -0.21395122835E+04  0.23355084090E+04  0.89667096637E+02 0.  0.
         13    1    3    3    0    0 -0.67564771153E+03  0.46582422276E+02 -0.15356137429E+04  0.16783263447E+04  0.00000000000E+00 0. -1.
        -13    1    3    3    0    0 -0.25653203320E+03 -0.37230822092E+02 -0.60389854064E+03  0.65718206424E+03  0.00000000000E+00 0.  1.
         22    1    1    2    0    0  0.93217974473E+03 -0.93516001841E+01 -0.13951419828E+04  0.16779355414E+04  0.00000000000E+00 0. -1.
<mgrwt>
<rscale>  0 0.19010396E+04</rscale>
<asrwt>0</asrwt>
<pdfrwt beam="1">  1        2 0.58062293E+00 0.19010396E+04</pdfrwt>
<pdfrwt beam="2">  1       -2 0.36829976E-01 0.19010396E+04</pdfrwt>
<totfact> 0.33748301E+00</totfact>
</mgrwt>
</event>
<event>
 6    1  0.1780144E-005  0.1630247E+04  0.7818608E-02  0.8802179E-01
          1   -1    0    0  501    0  0.00000000000E+00  0.00000000000E+00  0.49198583559E+03  0.49198583559E+03  0.00000000000E+00 0. -1.
         -1   -1    0    0    0  501 -0.00000000000E+00 -0.00000000000E+00 -0.13504983765E+04  0.13504983765E+04  0.00000000000E+00 0.  1.
         23    2    1    2    0    0  0.75892013482E+03  0.10620179489E+03 -0.73614711655E+03  0.10664610879E+04  0.90488024128E+02 0.  0.
         11    1    3    3    0    0  0.32315297056E+03  0.43660561602E+02 -0.25219653385E+03  0.41223437351E+03  0.00000000000E+00 0.  1.
        -11    1    3    3    0    0  0.43576716425E+03  0.62541233292E+02 -0.48395058270E+03  0.65422671438E+03  0.00000000000E+00 0. -1.
         22    1    1    2    0    0 -0.75892013482E+03 -0.10620179489E+03 -0.12236542439E+03  0.77602312424E+03  0.00000000000E+00 0.  1.
<mgrwt>
<rscale>  0 0.16302467E+04</rscale>
<asrwt>0</asrwt>
<pdfrwt beam="1">  1        1 0.75690131E-01 0.16302467E+04</pdfrwt>
<pdfrwt beam="2">  1       -1 0.20776897E+00 0.16302467E+04</pdfrwt>
<totfact> 0.57742690E+00</totfact>
</mgrwt>
</event>
<event>
 6    1  0.1780144E-005  0.4571816E+04  0.7818608E-02  0.7898183E-01
         -1   -1    0    0    0  501 -0.00000000000E+00  0.00000000000E+00  0.12394407679E+04  0.12394407679E+04  0.00000000000E+00 0.  1.
          1   -1    0    0  501    0  0.00000000000E+00 -0.00000000000E+00 -0.42159143034E+04  0.42159143034E+04  0.00000000000E+00 0. -1.
         23    2    1    2    0    0 -0.55276218175E+03 -0.21946528128E+04 -0.11132256475E+04  0.25238469797E+04  0.92115342153E+02 0.  0.
         11    1    3    3    0    0 -0.24875978055E+01 -0.31318738939E+02 -0.55359843921E+01  0.31901389856E+02  0.00000000000E+00 0. -1.
        -11    1    3    3    0    0 -0.55027458394E+03 -0.21633340739E+04 -0.11076896631E+04  0.24919455898E+04  0.00000000000E+00 0.  1.
         22    1    1    2    0    0  0.55276218175E+03  0.21946528128E+04 -0.18632478881E+04  0.29315080916E+04  0.00000000000E+00 0. -1.
<mgrwt>
<rscale>  0 0.45718163E+04</rscale>
<asrwt>0</asrwt>
<pdfrwt beam="1">  1        1 0.64860220E+00 0.45718163E+04</pdfrwt>
<pdfrwt beam="2">  1       -1 0.19068319E+00 0.45718163E+04</pdfrwt>
<totfact> 0.79413464E-03</totfact>
</mgrwt>
</event>
<event>
 6    1  0.1780144E-005  0.1179633E+04  0.7818608E-02  0.9130873E-01
         -2   -1    0    0    0  501 -0.00000000000E+00  0.00000000000E+00  0.49210201914E+03  0.49210201914E+03  0.00000000000E+00 0.  1.
          2   -1    0    0  501    0  0.00000000000E+00 -0.00000000000E+00 -0.70693335629E+03  0.70693335629E+03  0.00000000000E+00 0. -1.
         23    2    1    2    0    0  0.14131181332E+03  0.29378980023E+02 -0.68569659806E+03  0.70654553087E+03  0.90524082699E+02 0.  0.
         11    1    3    3    0    0  0.75856249880E+00  0.22890558048E+02 -0.18642111884E+03  0.18782275319E+03  0.00000000000E+00 0. -1.
        -11    1    3    3    0    0  0.14055325082E+03  0.64884219748E+01 -0.49927547922E+03  0.51872277768E+03  0.00000000000E+00 0.  1.
         22    1    1    2    0    0 -0.14131181332E+03 -0.29378980023E+02  0.47086526092E+03  0.49248984456E+03  0.00000000000E+00 0.  1.
<mgrwt>
<rscale>  0 0.11796327E+04</rscale>
<asrwt>0</asrwt>
<pdfrwt beam="1">  1        2 0.10875898E+00 0.11796327E+04</pdfrwt>
<pdfrwt beam="2">  1       -2 0.75708004E-01 0.11796327E+04</pdfrwt>
<totfact> 0.62553148E+01</totfact>
</mgrwt>
</event>
<event>
 6    1  0.1780144E-005  0.1909984E+04  0.7818608E-02  0.8649903E-01
         -1   -1    0    0    0  501 -0.00000000000E+00  0.00000000000E+00  0.65158277921E+03  0.65158277921E+03  0.00000000000E+00 0.  1.
          1   -1    0    0  501    0  0.00000000000E+00 -0.00000000000E+00 -0.13996833214E+04  0.13996833214E+04  0.00000000000E+00 0. -1.
         23    2    1    2    0    0 -0.29459823294E+03  0.71388105688E+03  0.22431673100E+03  0.80948929482E+03  0.92415585181E+02 0.  0.
         13    1    3    3    0    0 -0.80141680972E+02  0.29284129441E+03  0.61989494879E+02  0.30987321636E+03  0.00000000000E+00 0.  1.
        -13    1    3    3    0    0 -0.21445655197E+03  0.42103976248E+03  0.16232723612E+03  0.49961607846E+03  0.00000000000E+00 0. -1.
         22    1    1    2    0    0  0.29459823294E+03 -0.71388105688E+03 -0.97241727324E+03  0.12417768058E+04  0.00000000000E+00 0. -1.
<mgrwt>
<rscale>  0 0.19099838E+04</rscale>
<asrwt>0</asrwt>
<pdfrwt beam="1">  1        1 0.21533589E+00 0.19099838E+04</pdfrwt>
<pdfrwt beam="2">  1       -1 0.10024351E+00 0.19099838E+04</pdfrwt>
<totfact> 0.68108829E+00</totfact>
</mgrwt>
</event>
<event>
 6    1  0.2057829E-005  0.4309392E+04  0.7818608E-02  0.7944884E-01
          2   -1    0    0  501    0  0.00000000000E+00  0.00000000000E+00  0.28797151415E+04  0.28797151415E+04  0.00000000000E+00 0. -1.
         -2   -1    0    0    0  501 -0.00000000000E+00 -0.00000000000E+00 -0.16122129315E+04  0.16122129315E+04  0.00000000000E+00 0.  1.
         23    2    1    2    0    0  0.36845120647E+02 -0.14602125907E+04 -0.10157763437E+04  0.17814042627E+04  0.89561116896E+02 0.  0.
         11    1    3    3    0    0 -0.22126518715E+02 -0.74583167407E+03 -0.49599144906E+03  0.89596985798E+03  0.00000000000E+00 0. -1.
        -11    1    3    3    0    0  0.58971639362E+02 -0.71438091665E+03 -0.51978489460E+03  0.88543440467E+03  0.00000000000E+00 0.  1.
         22    1    1    2    0    0 -0.36845120647E+02  0.14602125907E+04  0.22832785536E+04  0.27105238103E+04  0.00000000000E+00 0. -1.
<mgrwt>
<rscale>  0 0.43093916E+04</rscale>
<asrwt>0</asrwt>
<pdfrwt beam="1">  1        2 0.44303310E+00 0.43093916E+04</pdfrwt>
<pdfrwt beam="2">  1       -2 0.24803276E+00 0.43093916E+04</pdfrwt>
<totfact> 0.10509086E-01</totfact>
</mgrwt>
</event>
<event>
 6    1  0.1780144E-005  0.9052776E+03  0.7818608E-02  0.9419008E-01
          1   -1    0    0  501    0  0.00000000000E+00  0.00000000000E+00  0.10756229452E+04  0.10756229452E+04  0.00000000000E+00 0. -1.
         -1   -1    0    0    0  501 -0.00000000000E+00 -0.00000000000E+00 -0.19047741975E+03  0.19047741975E+03  0.00000000000E+00 0.  1.
         23    2    1    2    0    0  0.44034629718E+03 -0.74270846137E+02  0.40020375910E+03  0.60686631184E+03  0.93288003615E+02 0.  0.
         13    1    3    3    0    0  0.16691052136E+03 -0.17154562405E+02  0.21055301963E+03  0.26923219574E+03  0.00000000000E+00 0. -1.
        -13    1    3    3    0    0  0.27343577583E+03 -0.57116283732E+02  0.18965073948E+03  0.33763411610E+03  0.00000000000E+00 0.  1.
         22    1    1    2    0    0 -0.44034629718E+03  0.74270846137E+02  0.48494176637E+03  0.65923405312E+03  0.00000000000E+00 0. -1.
<mgrwt>
<rscale>  0 0.90527760E+03</rscale>
<asrwt>0</asrwt>
<pdfrwt beam="1">  1        1 0.16548045E+00 0.90527760E+03</pdfrwt>
<pdfrwt beam="2">  1       -1 0.29304219E-01 0.90527760E+03</pdfrwt>
<totfact> 0.14151612E+02</totfact>
</mgrwt>
</event>
<event>
 6    1  0.1780144E-005  0.2815936E+04  0.7818608E-02  0.8298338E-01
          1   -1    0    0  501    0  0.00000000000E+00  0.00000000000E+00  0.44008641442E+03  0.44008641442E+03  0.00000000000E+00 0. -1.
         -1   -1    0    0    0  501 -0.00000000000E+00 -0.00000000000E+00 -0.45045095458E+04  0.45045095458E+04  0.00000000000E+00 0.  1.
         23    2    1    2    0    0  0.80533065841E+02 -0.19386717011E+03 -0.44763782111E+04  0.44822356656E+04  0.91676710163E+02 0.  0.
         13    1    3    3    0    0  0.21895195811E+01 -0.27194300442E+02 -0.14513992180E+04  0.14516556114E+04  0.00000000000E+00 0. -1.
        -13    1    3    3    0    0  0.78343546260E+02 -0.16667286967E+03 -0.30249789930E+04  0.30305800542E+04  0.00000000000E+00 0.  1.
         22    1    1    2    0    0 -0.80533065841E+02  0.19386717011E+03  0.41195507969E+03  0.46236029460E+03  0.00000000000E+00 0. -1.
<mgrwt>
<rscale>  0 0.28159357E+04</rscale>
<asrwt>0</asrwt>
<pdfrwt beam="1">  1        1 0.67705600E-01 0.28159357E+04</pdfrwt>
<pdfrwt beam="2">  1       -1 0.69300149E+00 0.28159357E+04</pdfrwt>
<totfact> 0.95602135E-03</totfact>
</mgrwt>
</event>
<event>
 6    1  0.1780144E-005  0.1105283E+04  0.7818608E-02  0.9200058E-01
          1   -1    0    0  501    0  0.00000000000E+00  0.00000000000E+00  0.56424177790E+03  0.56424177790E+03  0.00000000000E+00 0. -1.
         -1   -1    0    0    0  501 -0.00000000000E+00 -0.00000000000E+00 -0.54127948660E+03  0.54127948660E+03  0.00000000000E+00 0.  1.
         23    2    1    2    0    0 -0.42601720002E+03  0.14346228293E+03  0.32610844148E+03  0.56333156549E+03  0.94465103302E+02 0.  0.
         11    1    3    3    0    0 -0.24424710494E+03  0.13049671365E+03  0.18876084433E+03  0.33513683309E+03  0.00000000000E+00 0. -1.
        -11    1    3    3    0    0 -0.18177009509E+03  0.12965569281E+02  0.13734759714E+03  0.22819473240E+03  0.00000000000E+00 0.  1.
         22    1    1    2    0    0  0.42601720002E+03 -0.14346228293E+03 -0.30314615018E+03  0.54218969901E+03  0.00000000000E+00 0.  1.
<mgrwt>
<rscale>  0 0.11052828E+04</rscale>
<asrwt>0</asrwt>
<pdfrwt beam="1">  1        1 0.86806427E-01 0.11052828E+04</pdfrwt>
<pdfrwt beam="2">  1       -1 0.83273767E-01 0.11052828E+04</pdfrwt>
<totfact> 0.53365713E+01</totfact>
</mgrwt>
</event>
<event>
 6    1  0.1780144E-005  0.2760492E+04  0.7818608E-02  0.8315640E-01
          2   -1    0    0  501    0  0.00000000000E+00  0.00000000000E+00  0.37467164169E+04  0.37467164169E+04  0.00000000000E+00 0. -1.
         -2   -1    0    0    0  501 -0.00000000000E+00 -0.00000000000E+00 -0.50846618960E+03  0.50846618960E+03  0.00000000000E+00 0.  1.
         23    2    1    2    0    0 -0.26028330392E+03  0.18323356485E+03  0.36887561562E+04  0.37035690374E+04  0.90441677591E+02 0.  0.
         11    1    3    3    0    0 -0.22270728144E+03  0.13490100183E+03  0.32715244797E+04  0.32818697772E+04  0.00000000000E+00 0. -1.
        -11    1    3    3    0    0 -0.37576022483E+02  0.48332563024E+02  0.41723167651E+03  0.42169926014E+03  0.00000000000E+00 0.  1.
         22    1    1    2    0    0  0.26028330392E+03 -0.18323356485E+03 -0.45050592895E+03  0.55161356909E+03  0.00000000000E+00 0.  1.
<mgrwt>
<rscale>  0 0.27604917E+04</rscale>
<asrwt>0</asrwt>
<pdfrwt beam="1">  1        2 0.57641789E+00 0.27604917E+04</pdfrwt>
<pdfrwt beam="2">  1       -2 0.78225570E-01 0.27604917E+04</pdfrwt>
<totfact> 0.68402540E-01</totfact>
</mgrwt>
</event>
<event>
 6    1  0.1780144E-005  0.1677698E+04  0.7818608E-02  0.8774187E-01
         -2   -1    0    0    0  501 -0.00000000000E+00  0.00000000000E+00  0.26317515141E+03  0.26317515141E+03  0.00000000000E+00 0.  1.
          2   -1    0    0  501    0  0.00000000000E+00 -0.00000000000E+00 -0.26737606075E+04  0.26737606075E+04  0.00000000000E+00 0. -1.
         23    2    1    2    0    0 -0.54658389263E+03  0.58381045554E+02 -0.10523565357E+03  0.56695685392E+03  0.90571702325E+02 0.  0.
         11    1    3    3    0    0 -0.39924026230E+03  0.77495418356E+02 -0.97285715965E+02  0.41816604051E+03  0.00000000000E+00 0.  1.
        -11    1    3    3    0    0 -0.14734363032E+03 -0.19114372802E+02 -0.79499376041E+01  0.14879081340E+03  0.00000000000E+00 0. -1.
         22    1    1    2    0    0  0.54658389263E+03 -0.58381045554E+02 -0.23053498025E+04  0.23699789050E+04  0.00000000000E+00 0. -1.
<mgrwt>
<rscale>  0 0.16776977E+04</rscale>
<asrwt>0</asrwt>
<pdfrwt beam="1">  1        2 0.41134777E+00 0.16776977E+04</pdfrwt>
<pdfrwt beam="2">  1       -2 0.40488486E-01 0.16776977E+04</pdfrwt>
<totfact> 0.15194130E+01</totfact>
</mgrwt>
</event>
<event>
 6    1  0.1780144E-005  0.7611101E+03  0.7818608E-02  0.9618080E-01
          2   -1    0    0  501    0  0.00000000000E+00  0.00000000000E+00  0.10668174710E+04  0.10668174710E+04  0.00000000000E+00 0.  1.
         -2   -1    0    0    0  501 -0.00000000000E+00 -0.00000000000E+00 -0.13575156569E+03  0.13575156569E+03  0.00000000000E+00 0. -1.
         23    2    1    2    0    0  0.35857325684E+03 -0.91763020517E+02  0.56766465190E+03  0.68386324009E+03  0.91817981235E+02 0.  0.
         11    1    3    3    0    0  0.11408461942E+03 -0.74487960517E+02  0.20244248961E+03  0.24402196264E+03  0.00000000000E+00 0.  1.
        -11    1    3    3    0    0  0.24448863742E+03 -0.17275060000E+02  0.36522216229E+03  0.43984127745E+03  0.00000000000E+00 0. -1.
         22    1    1    2    0    0 -0.35857325684E+03  0.91763020517E+02  0.36340125341E+03  0.51870579661E+03  0.00000000000E+00 0. -1.
<mgrwt>
<rscale>  0 0.76111009E+03</rscale>
<asrwt>0</asrwt>
<pdfrwt beam="1">  1        2 0.16412576E+00 0.76111009E+03</pdfrwt>
<pdfrwt beam="2">  1       -2 0.20884857E-01 0.76111009E+03</pdfrwt>
<totfact> 0.45452947E+02</totfact>
</mgrwt>
</event>
<event>
 6    1  0.2225608E-005  0.3296532E+04  0.7818608E-02  0.8163778E-01
         -1   -1    0    0    0  501 -0.00000000000E+00  0.00000000000E+00  0.14857146152E+04  0.14857146152E+04  0.00000000000E+00 0.  1.
          1   -1    0    0  501    0  0.00000000000E+00 -0.00000000000E+00 -0.18286022585E+04  0.18286022585E+04  0.00000000000E+00 0. -1.
         23    2    1    2    0    0  0.15126037682E+04 -0.23460791633E+03  0.43967525128E+03  0.15951846165E+04  0.91041750612E+02 0.  0.
         11    1    3    3    0    0  0.44445722255E+03 -0.91788331848E+02  0.16683391753E+03  0.48352960259E+03  0.00000000000E+00 0. -1.
        -11    1    3    3    0    0  0.10681465456E+04 -0.14281958448E+03  0.27284133375E+03  0.11116550139E+04  0.00000000000E+00 0.  1.
         22    1    1    2    0    0 -0.15126037682E+04  0.23460791633E+03 -0.78256289459E+03  0.17191322572E+04  0.00000000000E+00 0. -1.
<mgrwt>
<rscale>  0 0.32965322E+04</rscale>
<asrwt>0</asrwt>
<pdfrwt beam="1">  1        1 0.28132342E+00 0.32965322E+04</pdfrwt>
<pdfrwt beam="2">  1       -1 0.22857148E+00 0.32965322E+04</pdfrwt>
<totfact> 0.31191763E-01</totfact>
</mgrwt>
</event>
<event>
 6    1  0.1780144E-005  0.7425694E+03  0.7818608E-02  0.9647080E-01
         -1   -1    0    0    0  501 -0.00000000000E+00  0.00000000000E+00  0.52007570307E+03  0.52007570307E+03  0.00000000000E+00 0.  1.
          1   -1    0    0  501    0  0.00000000000E+00 -0.00000000000E+00 -0.26506204672E+03  0.26506204672E+03  0.00000000000E+00 0. -1.
         23    2    1    2    0    0 -0.35875184860E+02 -0.32383641437E+02  0.51273077486E+03  0.52292821088E+03  0.90693644337E+02 0.  0.
         13    1    3    3    0    0 -0.58671355938E+02 -0.36089185862E+02  0.25418459257E+03  0.26335254782E+03  0.00000000000E+00 0. -1.
        -13    1    3    3    0    0  0.22796171079E+02  0.37055444250E+01  0.25854618229E+03  0.25957566306E+03  0.00000000000E+00 0.  1.
         22    1    1    2    0    0  0.35875184860E+02  0.32383641437E+02 -0.25771711851E+03  0.26220953891E+03  0.00000000000E+00 0. -1.
<mgrwt>
<rscale>  0 0.74256940E+03</rscale>
<asrwt>0</asrwt>
<pdfrwt beam="1">  1        1 0.40778777E-01 0.74256940E+03</pdfrwt>
<pdfrwt beam="2">  1       -1 0.80011646E-01 0.74256940E+03</pdfrwt>
<totfact> 0.16296362E+02</totfact>
</mgrwt>
</event>
<event>
 6    1  0.1780144E-005  0.4717262E+03  0.7818608E-02  0.1021434E+00
         -1   -1    0    0    0  501 -0.00000000000E+00  0.00000000000E+00  0.13306925084E+03  0.13306925084E+03  0.00000000000E+00 0.  1.
          1   -1    0    0  501    0  0.00000000000E+00 -0.00000000000E+00 -0.41806349578E+03  0.41806349578E+03  0.00000000000E+00 0. -1.
         23    2    1    2    0    0  0.10943867868E+03 -0.11878470860E+03 -0.33792077792E+03  0.38116848778E+03  0.70797828631E+02 0.  0.
         11    1    3    3    0    0  0.22462325645E+02  0.65701590349E+01 -0.53884167656E+02  0.58747141097E+02  0.00000000000E+00 0. -1.
        -11    1    3    3    0    0  0.86976353038E+02 -0.12535486764E+03 -0.28403661027E+03  0.32242134669E+03  0.00000000000E+00 0.  1.
         22    1    1    2    0    0 -0.10943867868E+03  0.11878470860E+03  0.52926532985E+02  0.16996425884E+03  0.00000000000E+00 0.  1.
<mgrwt>
<rscale>  0 0.47172618E+03</rscale>
<asrwt>0</asrwt>
<pdfrwt beam="1">  1        1 0.64317460E-01 0.47172618E+03</pdfrwt>
<pdfrwt beam="2">  1       -1 0.20472193E-01 0.47172618E+03</pdfrwt>
<totfact> 0.11135589E+03</totfact>
</mgrwt>
</event>
<event>
 6    1  0.1780144E-005  0.1136914E+04  0.7818608E-02  0.9169941E-01
          2   -1    0    0  501    0  0.00000000000E+00  0.00000000000E+00  0.26059097443E+04  0.26059097443E+04  0.00000000000E+00 0. -1.
         -2   -1    0    0    0  501 -0.00000000000E+00 -0.00000000000E+00 -0.12400414133E+03  0.12400414133E+03  0.00000000000E+00 0.  1.
         23    2    1    2    0    0  0.51749442664E+03  0.21485624598E+03  0.10782527155E+04  0.12185551868E+04  0.91017233359E+02 0.  0.
         13    1    3    3    0    0  0.68359175645E+02  0.18172301525E+02  0.82789743413E+02  0.10889146455E+03  0.00000000000E+00 0.  1.
        -13    1    3    3    0    0  0.44913525099E+03  0.19668394446E+03  0.99546297209E+03  0.11096637223E+04  0.00000000000E+00 0. -1.
         22    1    1    2    0    0 -0.51749442664E+03 -0.21485624598E+03  0.14036528875E+04  0.15113586988E+04  0.00000000000E+00 0. -1.
<mgrwt>
<rscale>  0 0.11369144E+04</rscale>
<asrwt>0</asrwt>
<pdfrwt beam="1">  1        2 0.40090915E+00 0.11369144E+04</pdfrwt>
<pdfrwt beam="2">  1       -2 0.19077562E-01 0.11369144E+04</pdfrwt>
<totfact> 0.70110614E+01</totfact>
</mgrwt>
</event>
<event>
 6    1  0.1780144E-005  0.1396300E+04  0.7818608E-02  0.8956501E-01
         -2   -1    0    0    0  501 -0.00000000000E+00  0.00000000000E+00  0.21157188986E+03  0.21157188986E+03  0.00000000000E+00 0.  1.
          2   -1    0    0  501    0  0.00000000000E+00 -0.00000000000E+00 -0.23037729158E+04  0.23037729158E+04  0.00000000000E+00 0. -1.
         23    2    1    2    0    0 -0.27950797243E+03 -0.58384078486E+03 -0.59192514165E+03  0.88138565755E+03  0.86432258430E+02 0.  0.
         11    1    3    3    0    0 -0.11002608016E+03 -0.22307442936E+03 -0.28527354088E+03  0.37848240709E+03  0.00000000000E+00 0.  1.
        -11    1    3    3    0    0 -0.16948189227E+03 -0.36076635550E+03 -0.30665160077E+03  0.50290325046E+03  0.00000000000E+00 0. -1.
         22    1    1    2    0    0  0.27950797243E+03  0.58384078486E+03 -0.15002758843E+04  0.16339591481E+04  0.00000000000E+00 0. -1.
<mgrwt>
<rscale>  0 0.13963002E+04</rscale>
<asrwt>0</asrwt>
<pdfrwt beam="1">  1        2 0.35442660E+00 0.13963002E+04</pdfrwt>
<pdfrwt beam="2">  1       -2 0.32549522E-01 0.13963002E+04</pdfrwt>
<totfact> 0.38719207E+01</totfact>
</mgrwt>
</event>
<event>
 6    1  0.1780144E-005  0.2113607E+04  0.7818608E-02  0.8555273E-01
          1   -1    0    0  501    0  0.00000000000E+00  0.00000000000E+00  0.16925693221E+04  0.16925693221E+04  0.00000000000E+00 0. -1.
         -1   -1    0    0    0  501 -0.00000000000E+00 -0.00000000000E+00 -0.65984533972E+03  0.65984533972E+03  0.00000000000E+00 0.  1.
         23    2    1    2    0    0  0.22385465675E+03 -0.77331626018E+03  0.12759313489E+04  0.15114159883E+04  0.90821456391E+02 0.  0.
         13    1    3    3    0    0  0.12092844507E+03 -0.36918892030E+03  0.69645061124E+03  0.79747576866E+03  0.00000000000E+00 0.  1.
        -13    1    3    3    0    0  0.10292621168E+03 -0.40412733988E+03  0.57948073770E+03  0.71394021967E+03  0.00000000000E+00 0. -1.
         22    1    1    2    0    0 -0.22385465675E+03  0.77331626018E+03 -0.24320736659E+03  0.84099867347E+03  0.00000000000E+00 0.  1.
<mgrwt>
<rscale>  0 0.21136073E+04</rscale>
<asrwt>0</asrwt>
<pdfrwt beam="1">  1        1 0.26039528E+00 0.21136073E+04</pdfrwt>
<pdfrwt beam="2">  1       -1 0.10151467E+00 0.21136073E+04</pdfrwt>
<totfact> 0.40778984E+00</totfact>
</mgrwt>
</event>
<event>
 6    1  0.1780144E-005  0.5990038E+03  0.7818608E-02  0.9907475E-01
          4   -1    0    0  501    0  0.00000000000E+00  0.00000000000E+00  0.85571157050E+03  0.85571157050E+03  0.00000000000E+00 0. -1.
         -4   -1    0    0    0  501 -0.00000000000E+00 -0.00000000000E+00 -0.10482667895E+03  0.10482667895E+03  0.00000000000E+00 0.  1.
         23    2    1    2    0    0 -0.12242163383E+03 -0.26199501474E+03  0.31242421295E+03  0.43529905551E+03  0.90818140866E+02 0.  0.
         11    1    3    3    0    0 -0.43167974084E+02 -0.18541354182E+02  0.44449138003E+02  0.64675974447E+02  0.00000000000E+00 0.  1.
        -11    1    3    3    0    0 -0.79253659744E+02 -0.24345366056E+03  0.26797507495E+03  0.37062308106E+03  0.00000000000E+00 0. -1.
         22    1    1    2    0    0  0.12242163383E+03  0.26199501474E+03  0.43846067860E+03  0.52523919395E+03  0.00000000000E+00 0.  1.
<mgrwt>
<rscale>  0 0.59900385E+03</rscale>
<asrwt>0</asrwt>
<pdfrwt beam="1">  1        4 0.13164793E+00 0.59900385E+03</pdfrwt>
<pdfrwt beam="2">  1       -4 0.16127182E-01 0.59900385E+03</pdfrwt>
<totfact> 0.28353674E+01</totfact>
</mgrwt>
</event>
<event>
 6    1  0.1780144E-005  0.1450772E+04  0.7818608E-02  0.8917866E-01
         -2   -1    0    0    0  501 -0.00000000000E+00  0.00000000000E+00  0.17227538991E+03  0.17227538991E+03  0.00000000000E+00 0.  1.
          2   -1    0    0  501    0  0.00000000000E+00 -0.00000000000E+00 -0.30543227494E+04  0.30543227494E+04  0.00000000000E+00 0. -1.
         23    2    1    2    0    0  0.83290378451E+02 -0.50241161120E+03 -0.30703009270E+03  0.60170411508E+03  0.91791339841E+02 0.  0.
         13    1    3    3    0    0  0.71915094712E+02 -0.21266149202E+03 -0.10206271066E+03  0.24660390902E+03  0.00000000000E+00 0. -1.
        -13    1    3    3    0    0  0.11375283738E+02 -0.28975011919E+03 -0.20496738204E+03  0.35510020607E+03  0.00000000000E+00 0.  1.
         22    1    1    2    0    0 -0.83290378451E+02  0.50241161120E+03 -0.25750172668E+04  0.26248940243E+04  0.00000000000E+00 0. -1.
<mgrwt>
<rscale>  0 0.14507717E+04</rscale>
<asrwt>0</asrwt>
<pdfrwt beam="1">  1        2 0.46989578E+00 0.14507717E+04</pdfrwt>
<pdfrwt beam="2">  1       -2 0.26503908E-01 0.14507717E+04</pdfrwt>
<totfact> 0.20302484E+01</totfact>
</mgrwt>
</event>
<event>
 6    1  0.1780144E-005  0.1971168E+04  0.7818608E-02  0.8620220E-01
         -2   -1    0    0    0  501 -0.00000000000E+00  0.00000000000E+00  0.20087495986E+04  0.20087495986E+04  0.00000000000E+00 0.  1.
          2   -1    0    0  501    0  0.00000000000E+00 -0.00000000000E+00 -0.48357247540E+03  0.48357247540E+03  0.00000000000E+00 0. -1.
         23    2    1    2    0    0  0.92601422072E+03  0.32048195919E+03  0.86770189399E+03  0.13122861847E+04  0.94749303237E+02 0.  0.
         11    1    3    3    0    0  0.92161351267E+03  0.30877262053E+03  0.85695163448E+03  0.12957924609E+04  0.00000000000E+00 0. -1.
        -11    1    3    3    0    0  0.44007080452E+01  0.11709338665E+02  0.10750259505E+02  0.16493723736E+02  0.00000000000E+00 0.  1.
         22    1    1    2    0    0 -0.92601422072E+03 -0.32048195919E+03  0.65747522925E+03  0.11800358894E+04  0.00000000000E+00 0. -1.
<mgrwt>
<rscale>  0 0.19711682E+04</rscale>
<asrwt>0</asrwt>
<pdfrwt beam="1">  1        2 0.74395766E-01 0.19711682E+04</pdfrwt>
<pdfrwt beam="2">  1       -2 0.30903840E+00 0.19711682E+04</pdfrwt>
<totfact> 0.16699203E+00</totfact>
</mgrwt>
</event>
<event>
 6    1  0.1780144E-005  0.3690776E+04  0.7818608E-02  0.8070009E-01
          2   -1    0    0  501    0  0.00000000000E+00  0.00000000000E+00  0.21065942354E+04  0.21065942354E+04  0.00000000000E+00 0. -1.
         -2   -1    0    0    0  501 -0.00000000000E+00 -0.00000000000E+00 -0.16165698902E+04  0.16165698902E+04  0.00000000000E+00 0.  1.
         23    2    1    2    0    0 -0.14738228388E+04  0.66787713002E+03 -0.64762182643E+03  0.17451721053E+04  0.89431683622E+02 0.  0.
         11    1    3    3    0    0 -0.98289555494E+03  0.40759982369E+03 -0.39860865930E+03  0.11362702810E+04  0.00000000000E+00 0. -1.
        -11    1    3    3    0    0 -0.49092728384E+03  0.26027730633E+03 -0.24901316712E+03  0.60890182428E+03  0.00000000000E+00 0.  1.
         22    1    1    2    0    0  0.14738228388E+04 -0.66787713002E+03  0.11376461716E+04  0.19779920204E+04  0.00000000000E+00 0. -1.
<mgrwt>
<rscale>  0 0.36907760E+04</rscale>
<asrwt>0</asrwt>
<pdfrwt beam="1">  1        2 0.32409142E+00 0.36907760E+04</pdfrwt>
<pdfrwt beam="2">  1       -2 0.24870306E+00 0.36907760E+04</pdfrwt>
<totfact> 0.30853628E-01</totfact>
</mgrwt>
</event>
<event>
 6    1  0.1780144E-005  0.6128840E+03  0.7818608E-02  0.9879031E-01
         -1   -1    0    0    0  501 -0.00000000000E+00  0.00000000000E+00  0.29569712467E+03  0.29569712467E+03  0.00000000000E+00 0.  1.
          1   -1    0    0  501    0  0.00000000000E+00 -0.00000000000E+00 -0.31757728101E+03  0.31757728101E+03  0.00000000000E+00 0. -1.
         23    2    1    2    0    0 -0.24606198973E+03 -0.53819252525E+02  0.15147906081E+03  0.30750254153E+03  0.90381925449E+02 0.  0.
         13    1    3    3    0    0 -0.13249111661E+03  0.14873589202E+02  0.92438490240E+02  0.16223438019E+03  0.00000000000E+00 0. -1.
        -13    1    3    3    0    0 -0.11357087312E+03 -0.68692841726E+02  0.59040570573E+02  0.14526816134E+03  0.00000000000E+00 0.  1.
         22    1    1    2    0    0  0.24606198973E+03  0.53819252525E+02 -0.17335921716E+03  0.30577186415E+03  0.00000000000E+00 0. -1.
<mgrwt>
<rscale>  0 0.61288397E+03</rscale>
<asrwt>0</asrwt>
<pdfrwt beam="1">  1        1 0.48858043E-01 0.61288397E+03</pdfrwt>
<pdfrwt beam="2">  1       -1 0.45491865E-01 0.61288397E+03</pdfrwt>
<totfact> 0.39553978E+02</totfact>
</mgrwt>
</event>
<event>
 6    1  0.1780144E-005  0.2495020E+04  0.7818608E-02  0.8404762E-01
         -1   -1    0    0    0  501 -0.00000000000E+00  0.00000000000E+00  0.22741794440E+04  0.22741794440E+04  0.00000000000E+00 0.  1.
          1   -1    0    0  501    0  0.00000000000E+00 -0.00000000000E+00 -0.68432669249E+03  0.68432669249E+03  0.00000000000E+00 0. -1.
         23    2    1    2    0    0 -0.88664091164E+03  0.30347451767E+03 -0.17756346400E+03  0.95800895630E+03  0.89573922198E+02 0.  0.
         13    1    3    3    0    0 -0.26234293712E+03  0.99371012368E+02 -0.94194078316E+02  0.29592387390E+03  0.00000000000E+00 0. -1.
        -13    1    3    3    0    0 -0.62429797452E+03  0.20410350530E+03 -0.83369385684E+02  0.66208508239E+03  0.00000000000E+00 0.  1.
         22    1    1    2    0    0  0.88664091164E+03 -0.30347451767E+03  0.17674162155E+04  0.20004971802E+04  0.00000000000E+00 0.  1.
<mgrwt>
<rscale>  0 0.24950204E+04</rscale>
<asrwt>0</asrwt>
<pdfrwt beam="1">  1        1 0.10528103E+00 0.24950204E+04</pdfrwt>
<pdfrwt beam="2">  1       -1 0.34987376E+00 0.24950204E+04</pdfrwt>
<totfact> 0.39024966E-01</totfact>
</mgrwt>
</event>
<event>
 6    1  0.1780144E-005  0.1558235E+04  0.7818608E-02  0.8846625E-01
          2   -1    0    0  501    0  0.00000000000E+00  0.00000000000E+00  0.88932951936E+03  0.88932951936E+03  0.00000000000E+00 0.  1.
         -2   -1    0    0    0  501 -0.00000000000E+00 -0.00000000000E+00 -0.68256331723E+03  0.68256331723E+03  0.00000000000E+00 0. -1.
         23    2    1    2    0    0  0.61484449157E+03 -0.21392024224E+03 -0.32304851915E+03  0.73254829605E+03  0.92038260871E+02 0.  0.
         13    1    3    3    0    0  0.26343752555E+03 -0.12659308864E+03 -0.17977185890E+03  0.34313708807E+03  0.00000000000E+00 0.  1.
        -13    1    3    3    0    0  0.35140696602E+03 -0.87327153598E+02 -0.14327666025E+03  0.38941120797E+03  0.00000000000E+00 0. -1.
         22    1    1    2    0    0 -0.61484449157E+03  0.21392024224E+03  0.52981472128E+03  0.83934454055E+03  0.00000000000E+00 0. -1.
<mgrwt>
<rscale>  0 0.15582345E+04</rscale>
<asrwt>0</asrwt>
<pdfrwt beam="1">  1        2 0.13681993E+00 0.15582345E+04</pdfrwt>
<pdfrwt beam="2">  1       -2 0.10500974E+00 0.15582345E+04</pdfrwt>
<totfact> 0.21082245E+01</totfact>
</mgrwt>
</event>
<event>
 6    1  0.1780144E-005  0.2964772E+04  0.7818608E-02  0.8253863E-01
         -1   -1    0    0    0  501 -0.00000000000E+00  0.00000000000E+00  0.25124245335E+04  0.25124245335E+04  0.00000000000E+00 0.  1.
          1   -1    0    0  501    0  0.00000000000E+00 -0.00000000000E+00 -0.87464036434E+03  0.87464036434E+03  0.00000000000E+00 0. -1.
         23    2    1    2    0    0 -0.10132776738E+03 -0.40795295833E+03 -0.80273908962E+03  0.91060639642E+03  0.90116760628E+02 0.  0.
         13    1    3    3    0    0  0.23864212831E+00 -0.18380281039E+03 -0.34622234978E+03  0.39198653745E+03  0.00000000000E+00 0. -1.
        -13    1    3    3    0    0 -0.10156640950E+03 -0.22415014795E+03 -0.45651673984E+03  0.51861985897E+03  0.00000000000E+00 0.  1.
         22    1    1    2    0    0  0.10132776738E+03  0.40795295833E+03  0.24405232588E+04  0.24764585014E+04  0.00000000000E+00 0.  1.
<mgrwt>
<rscale>  0 0.29647718E+04</rscale>
<asrwt>0</asrwt>
<pdfrwt beam="1">  1        1 0.13456006E+00 0.29647718E+04</pdfrwt>
<pdfrwt beam="2">  1       -1 0.38652685E+00 0.29647718E+04</pdfrwt>
<totfact> 0.14398364E-01</totfact>
</mgrwt>
</event>
<event>
 6    1  0.1780144E-005  0.2187700E+04  0.7818608E-02  0.8523565E-01
          1   -1    0    0  501    0  0.00000000000E+00  0.00000000000E+00  0.18885584722E+04  0.18885584722E+04  0.00000000000E+00 0. -1.
         -1   -1    0    0    0  501 -0.00000000000E+00 -0.00000000000E+00 -0.63355634240E+03  0.63355634240E+03  0.00000000000E+00 0.  1.
         23    2    1    2    0    0  0.11502882058E+03  0.96424749813E+03  0.52890780129E+02  0.97677454004E+03  0.91028568177E+02 0.  0.
         13    1    3    3    0    0  0.75490559853E+02  0.55864241647E+03  0.74786614087E+02  0.56865913494E+03  0.00000000000E+00 0.  1.
        -13    1    3    3    0    0  0.39538260724E+02  0.40560508166E+03 -0.21895833957E+02  0.40811540509E+03  0.00000000000E+00 0. -1.
         22    1    1    2    0    0 -0.11502882058E+03 -0.96424749813E+03  0.12021113497E+04  0.15453402746E+04  0.00000000000E+00 0. -1.
<mgrwt>
<rscale>  0 0.21877003E+04</rscale>
<asrwt>0</asrwt>
<pdfrwt beam="1">  1        1 0.29054745E+00 0.21877003E+04</pdfrwt>
<pdfrwt beam="2">  1       -1 0.97470207E-01 0.21877003E+04</pdfrwt>
<totfact> 0.32706046E+00</totfact>
</mgrwt>
</event>
<event>
 6    1  0.1780144E-005  0.6124436E+04  0.7818608E-02  0.7675162E-01
          2   -1    0    0  501    0  0.00000000000E+00  0.00000000000E+00  0.33614092275E+04  0.33614092275E+04  0.00000000000E+00 0. -1.
         -2   -1    0    0    0  501 -0.00000000000E+00 -0.00000000000E+00 -0.27896567236E+04  0.27896567236E+04  0.00000000000E+00 0.  1.
         23    2    1    2    0    0  0.15427850785E+04 -0.12484537262E+04 -0.20552729014E+04  0.28586375184E+04  0.94017325476E+02 0.  0.
         13    1    3    3    0    0  0.10288306185E+04 -0.87133231243E+03 -0.13491275633E+04  0.19073168647E+04  0.00000000000E+00 0.  1.
        -13    1    3    3    0    0  0.51395446001E+03 -0.37712141379E+03 -0.70614533807E+03  0.95132065371E+03  0.00000000000E+00 0. -1.
         22    1    1    2    0    0 -0.15427850785E+04  0.12484537262E+04  0.26270254052E+04  0.32924284327E+04  0.00000000000E+00 0. -1.
<mgrwt>
<rscale>  0 0.61244356E+04</rscale>
<asrwt>0</asrwt>
<pdfrwt beam="1">  1        2 0.51713988E+00 0.61244356E+04</pdfrwt>
<pdfrwt beam="2">  1       -2 0.42917796E+00 0.61244356E+04</pdfrwt>
<totfact> 0.32244718E-03</totfact>
</mgrwt>
</event>
<event>
 6    1  0.1780144E-005  0.6948575E+03  0.7818608E-02  0.9726067E-01
         -2   -1    0    0    0  501 -0.00000000000E+00  0.00000000000E+00  0.86090475391E+02  0.86090475391E+02  0.00000000000E+00 0.  1.
          2   -1    0    0  501    0  0.00000000000E+00 -0.00000000000E+00 -0.14020917594E+04  0.14020917594E+04  0.00000000000E+00 0. -1.
         23    2    1    2    0    0  0.29141203042E+03  0.13798416654E+03 -0.42980179458E+03  0.54514981925E+03  0.92185362797E+02 0.  0.
         11    1    3    3    0    0  0.23284655930E+03  0.75234016965E+02 -0.27471039249E+03  0.36789057780E+03  0.00000000000E+00 0. -1.
        -11    1    3    3    0    0  0.58565471119E+02  0.62750149576E+02 -0.15509140209E+03  0.17725924146E+03  0.00000000000E+00 0.  1.
         22    1    1    2    0    0 -0.29141203042E+03 -0.13798416654E+03 -0.88619948941E+03  0.94303241552E+03  0.00000000000E+00 0. -1.
<mgrwt>
<rscale>  0 0.69485753E+03</rscale>
<asrwt>0</asrwt>
<pdfrwt beam="1">  1        2 0.21570639E+00 0.69485753E+03</pdfrwt>
<pdfrwt beam="2">  1       -2 0.13244690E-01 0.69485753E+03</pdfrwt>
<totfact> 0.63152229E+02</totfact>
</mgrwt>
</event>
<event>
 6    1  0.1780144E-005  0.9485763E+03  0.7818608E-02  0.9366816E-01
          2   -1    0    0  501    0  0.00000000000E+00  0.00000000000E+00  0.68896335112E+03  0.68896335112E+03  0.00000000000E+00 0. -1.
         -2   -1    0    0    0  501 -0.00000000000E+00 -0.00000000000E+00 -0.32650393432E+03  0.32650393432E+03  0.00000000000E+00 0.  1.
         23    2    1    2    0    0  0.34134639867E+02  0.21750047949E+03 -0.26124974079E+03  0.35404098910E+03  0.92854524321E+02 0.  0.
         11    1    3    3    0    0 -0.41246509751E+00  0.19270982406E+03 -0.23562524416E+03  0.30439530565E+03  0.00000000000E+00 0. -1.
        -11    1    3    3    0    0  0.34547104964E+02  0.24790655431E+02 -0.25624496625E+02  0.49645683452E+02  0.00000000000E+00 0.  1.
         22    1    1    2    0    0 -0.34134639867E+02 -0.21750047949E+03  0.62370915759E+03  0.66142629633E+03  0.00000000000E+00 0. -1.
<mgrwt>
<rscale>  0 0.94857629E+03</rscale>
<asrwt>0</asrwt>
<pdfrwt beam="1">  1        2 0.10599436E+00 0.94857629E+03</pdfrwt>
<pdfrwt beam="2">  1       -2 0.50231375E-01 0.94857629E+03</pdfrwt>
<totfact> 0.15688349E+02</totfact>
</mgrwt>
</event>
<event>
 6    1  0.1780144E-005  0.8766414E+03  0.7818608E-02  0.9455261E-01
         -2   -1    0    0    0  501 -0.00000000000E+00  0.00000000000E+00  0.10718747497E+03  0.10718747497E+03  0.00000000000E+00 0.  1.
          2   -1    0    0  501    0  0.00000000000E+00 -0.00000000000E+00 -0.17924204839E+04  0.17924204839E+04  0.00000000000E+00 0. -1.
         23    2    1    2    0    0  0.43311845643E+03  0.19629690939E+02 -0.88003959575E+03  0.98510626138E+03  0.89374124056E+02 0.  0.
         13    1    3    3    0    0  0.47059736098E+02  0.30697482879E+02 -0.12374118400E+03  0.13590009137E+03  0.00000000000E+00 0.  1.
        -13    1    3    3    0    0  0.38605872034E+03 -0.11067791939E+02 -0.75629841175E+03  0.84920617001E+03  0.00000000000E+00 0. -1.
         22    1    1    2    0    0 -0.43311845643E+03 -0.19629690939E+02 -0.80519341315E+03  0.91450169745E+03  0.00000000000E+00 0. -1.
<mgrwt>
<rscale>  0 0.87664138E+03</rscale>
<asrwt>0</asrwt>
<pdfrwt beam="1">  1        2 0.27575701E+00 0.87664138E+03</pdfrwt>
<pdfrwt beam="2">  1       -2 0.16490380E-01 0.87664138E+03</pdfrwt>
<totfact> 0.26231015E+02</totfact>
</mgrwt>
</event>
<event>
 6    1  0.1780144E-005  0.2448626E+04  0.7818608E-02  0.8421520E-01
          1   -1    0    0  501    0  0.00000000000E+00  0.00000000000E+00  0.23127751392E+04  0.23127751392E+04  0.00000000000E+00 0. -1.
         -1   -1    0    0    0  501 -0.00000000000E+00 -0.00000000000E+00 -0.64811408602E+03  0.64811408602E+03  0.00000000000E+00 0.  1.
         23    2    1    2    0    0 -0.13121522366E+03 -0.10200923148E+04  0.34116186096E+02  0.10330712024E+04  0.90919906423E+02 0.  0.
         13    1    3    3    0    0 -0.24268761650E+00 -0.27489687899E+03  0.29141996390E+02  0.27643735082E+03  0.00000000000E+00 0.  1.
        -13    1    3    3    0    0 -0.13097253605E+03 -0.74519543582E+03  0.49741897065E+01  0.75663385156E+03  0.00000000000E+00 0. -1.
         22    1    1    2    0    0  0.13121522366E+03  0.10200923148E+04  0.16305448671E+04  0.19278180228E+04  0.00000000000E+00 0. -1.
<mgrwt>
<rscale>  0 0.24486259E+04</rscale>
<asrwt>0</asrwt>
<pdfrwt beam="1">  1        1 0.35581156E+00 0.24486259E+04</pdfrwt>
<pdfrwt beam="2">  1       -1 0.99709861E-01 0.24486259E+04</pdfrwt>
<totfact> 0.15612842E+00</totfact>
</mgrwt>
</event>
<event>
 6    1  0.1780144E-005  0.2313605E+04  0.7818608E-02  0.8472576E-01
          1   -1    0    0  501    0  0.00000000000E+00  0.00000000000E+00  0.16265138670E+04  0.16265138670E+04  0.00000000000E+00 0. -1.
         -1   -1    0    0    0  501 -0.00000000000E+00 -0.00000000000E+00 -0.82273653959E+03  0.82273653959E+03  0.00000000000E+00 0.  1.
         23    2    1    2    0    0 -0.26711026695E+03 -0.11143497639E+04  0.25209348987E+03  0.11774491848E+04  0.98550312026E+02 0.  0.
         13    1    3    3    0    0 -0.11368141208E+03 -0.32912576225E+03  0.45772139247E+02  0.35120125222E+03  0.00000000000E+00 0.  1.
        -13    1    3    3    0    0 -0.15342885486E+03 -0.78522400170E+03  0.20632135062E+03  0.82624793256E+03  0.00000000000E+00 0. -1.
         22    1    1    2    0    0  0.26711026695E+03  0.11143497639E+04  0.55168383751E+03  0.12718012218E+04  0.00000000000E+00 0. -1.
<mgrwt>
<rscale>  0 0.23136053E+04</rscale>
<asrwt>0</asrwt>
<pdfrwt beam="1">  1        1 0.25023290E+00 0.23136053E+04</pdfrwt>
<pdfrwt beam="2">  1       -1 0.12657485E+00 0.23136053E+04</pdfrwt>
<totfact> 0.26202627E+00</totfact>
</mgrwt>
</event>
<event>
 6    1  0.1780144E-005  0.2393124E+04  0.7818608E-02  0.8442082E-01
          2   -1    0    0  501    0  0.00000000000E+00  0.00000000000E+00  0.16392983746E+04  0.16392983746E+04  0.00000000000E+00 0.  1.
         -2   -1    0    0    0  501 -0.00000000000E+00 -0.00000000000E+00 -0.87339875663E+03  0.87339875663E+03  0.00000000000E+00 0. -1.
         23    2    1    2    0    0 -0.46311590055E+03  0.48653673631E+03  0.14210417037E+04  0.15743978795E+04  0.90414745998E+02 0.  0.
         11    1    3    3    0    0 -0.28159454875E+03  0.27001482984E+03  0.72738706882E+03  0.82540623096E+03  0.00000000000E+00 0.  1.
        -11    1    3    3    0    0 -0.18152135180E+03  0.21652190647E+03  0.69365463486E+03  0.74899164856E+03  0.00000000000E+00 0. -1.
         22    1    1    2    0    0  0.46311590055E+03 -0.48653673631E+03 -0.65514208576E+03  0.93829925166E+03  0.00000000000E+00 0. -1.
<mgrwt>
<rscale>  0 0.23931245E+04</rscale>
<asrwt>0</asrwt>
<pdfrwt beam="1">  1        2 0.25219975E+00 0.23931245E+04</pdfrwt>
<pdfrwt beam="2">  1       -2 0.13436904E+00 0.23931245E+04</pdfrwt>
<totfact> 0.38090973E+00</totfact>
</mgrwt>
</event>
<event>
 6    1  0.1780144E-005  0.1182419E+04  0.7818608E-02  0.9128386E-01
          2   -1    0    0  501    0  0.00000000000E+00  0.00000000000E+00  0.14408742271E+04  0.14408742271E+04  0.00000000000E+00 0. -1.
         -2   -1    0    0    0  501 -0.00000000000E+00 -0.00000000000E+00 -0.24258111103E+03  0.24258111103E+03  0.00000000000E+00 0.  1.
         23    2    1    2    0    0 -0.48762190750E+03  0.28620343526E+03  0.83163866189E+03  0.10095688345E+04  0.88987844961E+02 0.  0.
         13    1    3    3    0    0 -0.22873570706E+03  0.86611642096E+02  0.38398906236E+03  0.45526827282E+03  0.00000000000E+00 0. -1.
        -13    1    3    3    0    0 -0.25888620045E+03  0.19959179316E+03  0.44764959953E+03  0.55430056164E+03  0.00000000000E+00 0.  1.
         22    1    1    2    0    0  0.48762190750E+03 -0.28620343526E+03  0.36665445415E+03  0.67388650364E+03  0.00000000000E+00 0. -1.
<mgrwt>
<rscale>  0 0.11824193E+04</rscale>
<asrwt>0</asrwt>
<pdfrwt beam="1">  1        2 0.22167295E+00 0.11824193E+04</pdfrwt>
<pdfrwt beam="2">  1       -2 0.37320172E-01 0.11824193E+04</pdfrwt>
<totfact> 0.91649570E+01</totfact>
</mgrwt>
</event>
<event>
 6    1  0.1780144E-005  0.5575994E+04  0.7818608E-02  0.7745318E-01
         -2   -1    0    0    0  501 -0.00000000000E+00  0.00000000000E+00  0.22261284303E+04  0.22261284303E+04  0.00000000000E+00 0.  1.
          2   -1    0    0  501    0  0.00000000000E+00 -0.00000000000E+00 -0.34916790636E+04  0.34916790636E+04  0.00000000000E+00 0. -1.
         23    2    1    2    0    0  0.37540399690E+03 -0.27244411658E+04 -0.10975886976E+04  0.29625000629E+04  0.90541960398E+02 0.  0.
         11    1    3    3    0    0  0.20472742875E+03 -0.16204245403E+04 -0.69528763896E+03  0.17751377163E+04  0.00000000000E+00 0. -1.
        -11    1    3    3    0    0  0.17067656815E+03 -0.11040166256E+04 -0.40230105867E+03  0.11873623467E+04  0.00000000000E+00 0.  1.
         22    1    1    2    0    0 -0.37540399690E+03  0.27244411658E+04 -0.16796193571E+03  0.27553074309E+04  0.00000000000E+00 0. -1.
<mgrwt>
<rscale>  0 0.55759936E+04</rscale>
<asrwt>0</asrwt>
<pdfrwt beam="1">  1        2 0.53718140E+00 0.55759936E+04</pdfrwt>
<pdfrwt beam="2">  1       -2 0.34248130E+00 0.55759936E+04</pdfrwt>
<totfact> 0.99238842E-03</totfact>
</mgrwt>
</event>
<event>
 6    1  0.1780144E-005  0.1607581E+04  0.7818608E-02  0.8815904E-01
          1   -1    0    0  501    0  0.00000000000E+00  0.00000000000E+00  0.23764585342E+04  0.23764585342E+04  0.00000000000E+00 0. -1.
         -1   -1    0    0    0  501 -0.00000000000E+00 -0.00000000000E+00 -0.27186648381E+03  0.27186648381E+03  0.00000000000E+00 0.  1.
         23    2    1    2    0    0  0.38941147033E+03 -0.29978609335E+02  0.22081223972E+04  0.22442723692E+04  0.91727510817E+02 0.  0.
         13    1    3    3    0    0  0.34580961668E+03 -0.51842641551E+02  0.18398680821E+04  0.18728017807E+04  0.00000000000E+00 0.  1.
        -13    1    3    3    0    0  0.43601853651E+02  0.21864032216E+02  0.36825431510E+03  0.37147058852E+03  0.00000000000E+00 0. -1.
         22    1    1    2    0    0 -0.38941147033E+03  0.29978609335E+02 -0.10353034681E+03  0.40405264874E+03  0.00000000000E+00 0.  1.
<mgrwt>
<rscale>  0 0.16075813E+04</rscale>
<asrwt>0</asrwt>
<pdfrwt beam="1">  1        1 0.36560899E+00 0.16075813E+04</pdfrwt>
<pdfrwt beam="2">  1       -1 0.41825615E-01 0.16075813E+04</pdfrwt>
<totfact> 0.88860562E+00</totfact>
</mgrwt>
</event>
<event>
 6    1  0.1780144E-005  0.1149611E+04  0.7818608E-02  0.9158143E-01
          2   -1    0    0  501    0  0.00000000000E+00  0.00000000000E+00  0.20862211423E+04  0.20862211423E+04  0.00000000000E+00 0. -1.
         -2   -1    0    0    0  501 -0.00000000000E+00 -0.00000000000E+00 -0.15837302322E+03  0.15837302322E+03  0.00000000000E+00 0.  1.
         23    2    1    2    0    0  0.24948538345E+03 -0.46391398582E+03  0.14002581910E+04  0.14990673216E+04  0.94977315347E+02 0.  0.
         13    1    3    3    0    0  0.15123061953E+03 -0.24436035812E+03  0.88369795992E+03  0.92924957319E+03  0.00000000000E+00 0. -1.
        -13    1    3    3    0    0  0.98254763929E+02 -0.21955362771E+03  0.51656023105E+03  0.56981774838E+03  0.00000000000E+00 0.  1.
         22    1    1    2    0    0 -0.24948538345E+03  0.46391398582E+03  0.52758992808E+03  0.74552684392E+03  0.00000000000E+00 0. -1.
<mgrwt>
<rscale>  0 0.11496106E+04</rscale>
<asrwt>0</asrwt>
<pdfrwt beam="1">  1        2 0.32095708E+00 0.11496106E+04</pdfrwt>
<pdfrwt beam="2">  1       -2 0.24365082E-01 0.11496106E+04</pdfrwt>
<totfact> 0.89210887E+01</totfact>
</mgrwt>
</event>
<event>
 6    1  0.1780144E-005  0.6228306E+03  0.7818608E-02  0.9859140E-01
          2   -1    0    0  501    0  0.00000000000E+00  0.00000000000E+00  0.30366519561E+03  0.30366519561E+03  0.00000000000E+00 0.  1.
         -2   -1    0    0    0  501 -0.00000000000E+00 -0.00000000000E+00 -0.31936315360E+03  0.31936315360E+03  0.00000000000E+00 0. -1.
         23    2    1    2    0    0  0.23851164132E+01 -0.28649101278E+03  0.95573869536E+02  0.31567804617E+03  0.91844842577E+02 0.  0.
         13    1    3    3    0    0 -0.23815794446E+02 -0.12319263469E+03  0.16550651075E+01  0.12548448728E+03  0.00000000000E+00 0. -1.
        -13    1    3    3    0    0  0.26200910859E+02 -0.16329837809E+03  0.93918804428E+02  0.19019355889E+03  0.00000000000E+00 0.  1.
         22    1    1    2    0    0 -0.23851164132E+01  0.28649101278E+03 -0.11127182752E+03  0.30735030305E+03  0.00000000000E+00 0. -1.
<mgrwt>
<rscale>  0 0.62283055E+03</rscale>
<asrwt>0</asrwt>
<pdfrwt beam="1">  1        2 0.46717723E-01 0.62283055E+03</pdfrwt>
<pdfrwt beam="2">  1       -2 0.49132793E-01 0.62283055E+03</pdfrwt>
<totfact> 0.42863805E+02</totfact>
</mgrwt>
</event>
<event>
 6    1  0.1780144E-005  0.3657552E+04  0.7818608E-02  0.8077434E-01
         -2   -1    0    0    0  501 -0.00000000000E+00  0.00000000000E+00  0.32063240717E+04  0.32063240717E+04  0.00000000000E+00 0.  1.
          2   -1    0    0  501    0  0.00000000000E+00 -0.00000000000E+00 -0.10430704165E+04  0.10430704165E+04  0.00000000000E+00 0. -1.
         23    2    1    2    0    0  0.56374464582E+02 -0.18060095743E+04  0.14012887182E+04  0.22884153379E+04  0.91575236327E+02 0.  0.
         11    1    3    3    0    0  0.25557686892E+02 -0.11209333085E+04  0.92400824319E+03  0.14529060228E+04  0.00000000000E+00 0. -1.
        -11    1    3    3    0    0  0.30816777690E+02 -0.68507626580E+03  0.47728047506E+03  0.83550931510E+03  0.00000000000E+00 0.  1.
         22    1    1    2    0    0 -0.56374464582E+02  0.18060095743E+04  0.76196493703E+03  0.19609791503E+04  0.00000000000E+00 0. -1.
<mgrwt>
<rscale>  0 0.36575521E+04</rscale>
<asrwt>0</asrwt>
<pdfrwt beam="1">  1        2 0.16047237E+00 0.36575521E+04</pdfrwt>
<pdfrwt beam="2">  1       -2 0.49328062E+00 0.36575521E+04</pdfrwt>
<totfact> 0.34833624E-02</totfact>
</mgrwt>
</event>
<event>
 6    1  0.1780144E-005  0.1727896E+04  0.7818608E-02  0.8745612E-01
         -2   -1    0    0    0  501 -0.00000000000E+00  0.00000000000E+00  0.69649126383E+03  0.69649126383E+03  0.00000000000E+00 0.  1.
          2   -1    0    0  501    0  0.00000000000E+00 -0.00000000000E+00 -0.10716661582E+04  0.10716661582E+04  0.00000000000E+00 0. -1.
         23    2    1    2    0    0  0.54095262623E+03  0.25198105661E+03 -0.82398989471E+03  0.10214586198E+04  0.91072326446E+02 0.  0.
         13    1    3    3    0    0  0.27997823784E+03  0.94663898283E+02 -0.45988097333E+03  0.54666221465E+03  0.00000000000E+00 0.  1.
        -13    1    3    3    0    0  0.26097438840E+03  0.15731715833E+03 -0.36410892138E+03  0.47479640514E+03  0.00000000000E+00 0. -1.
         22    1    1    2    0    0 -0.54095262623E+03 -0.25198105661E+03  0.44881500035E+03  0.74669880223E+03  0.00000000000E+00 0.  1.
<mgrwt>
<rscale>  0 0.17278960E+04</rscale>
<asrwt>0</asrwt>
<pdfrwt beam="1">  1        2 0.16487172E+00 0.17278960E+04</pdfrwt>
<pdfrwt beam="2">  1       -2 0.10715250E+00 0.17278960E+04</pdfrwt>
<totfact> 0.15081862E+01</totfact>
</mgrwt>
</event>
<event>
 6    1  0.1780144E-005  0.1277100E+04  0.7818608E-02  0.9047925E-01
          1   -1    0    0  501    0  0.00000000000E+00  0.00000000000E+00  0.50920290472E+03  0.50920290472E+03  0.00000000000E+00 0. -1.
         -1   -1    0    0    0  501 -0.00000000000E+00 -0.00000000000E+00 -0.80075324084E+03  0.80075324084E+03  0.00000000000E+00 0.  1.
         23    2    1    2    0    0 -0.25009544181E+03  0.35943194667E+03  0.32567454341E+03  0.55318299182E+03  0.90600551378E+02 0.  0.
         13    1    3    3    0    0 -0.19201212665E+03  0.23066005204E+03  0.26133604726E+03  0.39795633678E+03  0.00000000000E+00 0. -1.
        -13    1    3    3    0    0 -0.58083315164E+02  0.12877189463E+03  0.64338496149E+02  0.15522665504E+03  0.00000000000E+00 0.  1.
         22    1    1    2    0    0  0.25009544181E+03 -0.35943194667E+03 -0.61722487953E+03  0.75677315373E+03  0.00000000000E+00 0.  1.
<mgrwt>
<rscale>  0 0.12770996E+04</rscale>
<asrwt>0</asrwt>
<pdfrwt beam="1">  1        1 0.78338908E-01 0.12770996E+04</pdfrwt>
<pdfrwt beam="2">  1       -1 0.12319281E+00 0.12770996E+04</pdfrwt>
<totfact> 0.24688725E+01</totfact>
</mgrwt>
</event>
<event>
 6    1  0.1780144E-005  0.1719710E+04  0.7818608E-02  0.8750202E-01
         -1   -1    0    0    0  501 -0.00000000000E+00  0.00000000000E+00  0.90341008476E+03  0.90341008476E+03  0.00000000000E+00 0.  1.
          1   -1    0    0  501    0  0.00000000000E+00 -0.00000000000E+00 -0.81839982997E+03  0.81839982997E+03  0.00000000000E+00 0. -1.
         23    2    1    2    0    0 -0.28668167639E+03 -0.74319302300E+03 -0.27504811174E+03  0.84764501020E+03  0.91259775032E+02 0.  0.
         11    1    3    3    0    0 -0.11924405390E+03 -0.19693143203E+03 -0.70184487995E+02  0.24068027686E+03  0.00000000000E+00 0. -1.
        -11    1    3    3    0    0 -0.16743762248E+03 -0.54626159097E+03 -0.20486362374E+03  0.60696473334E+03  0.00000000000E+00 0.  1.
         22    1    1    2    0    0  0.28668167639E+03  0.74319302300E+03  0.36005836652E+03  0.87416490453E+03  0.00000000000E+00 0. -1.
<mgrwt>
<rscale>  0 0.17197100E+04</rscale>
<asrwt>0</asrwt>
<pdfrwt beam="1">  1        1 0.12590767E+00 0.17197100E+04</pdfrwt>
<pdfrwt beam="2">  1       -1 0.13898617E+00 0.17197100E+04</pdfrwt>
<totfact> 0.86506379E+00</totfact>
</mgrwt>
</event>
<event>
 6    1  0.1780144E-005  0.3798799E+04  0.7818608E-02  0.8046413E-01
          2   -1    0    0  501    0  0.00000000000E+00  0.00000000000E+00  0.27725376121E+04  0.27725376121E+04  0.00000000000E+00 0. -1.
         -2   -1    0    0    0  501 -0.00000000000E+00 -0.00000000000E+00 -0.13012330506E+04  0.13012330506E+04  0.00000000000E+00 0.  1.
         23    2    1    2    0    0  0.15189153673E+04 -0.11278958243E+04  0.56383144306E+03  0.19754950982E+04  0.73634933561E+02 0.  0.
         13    1    3    3    0    0  0.37690513120E+03 -0.26811870037E+03  0.16956239293E+03  0.49264238602E+03  0.00000000000E+00 0. -1.
        -13    1    3    3    0    0  0.11420102361E+04 -0.85977712394E+03  0.39426905013E+03  0.14828527122E+04  0.00000000000E+00 0.  1.
         22    1    1    2    0    0 -0.15189153673E+04  0.11278958243E+04  0.90747311850E+03  0.20982755644E+04  0.00000000000E+00 0. -1.
<mgrwt>
<rscale>  0 0.37987985E+04</rscale>
<asrwt>0</asrwt>
<pdfrwt beam="1">  1        2 0.42654425E+00 0.37987985E+04</pdfrwt>
<pdfrwt beam="2">  1       -2 0.20018970E+00 0.37987985E+04</pdfrwt>
<totfact> 0.25541769E-01</totfact>
</mgrwt>
</event>
<event>
 6    1  0.1780144E-005  0.1219663E+04  0.7818608E-02  0.9095817E-01
          1   -1    0    0  501    0  0.00000000000E+00  0.00000000000E+00  0.10836263218E+04  0.10836263218E+04  0.00000000000E+00 0. -1.
         -1   -1    0    0    0  501 -0.00000000000E+00 -0.00000000000E+00 -0.34319460792E+03  0.34319460792E+03  0.00000000000E+00 0.  1.
         23    2    1    2    0    0 -0.53748727160E+03 -0.68583829675E+02  0.53596473015E+02  0.55198439819E+03  0.90652551544E+02 0.  0.
         11    1    3    3    0    0 -0.20174704212E+03 -0.38972509714E+02 -0.21740430727E+02  0.20662374463E+03  0.00000000000E+00 0.  1.
        -11    1    3    3    0    0 -0.33574022948E+03 -0.29611319961E+02  0.75336903742E+02  0.34536065356E+03  0.00000000000E+00 0. -1.
         22    1    1    2    0    0  0.53748727160E+03  0.68583829675E+02  0.68683524088E+03  0.87483653155E+03  0.00000000000E+00 0. -1.
<mgrwt>
<rscale>  0 0.12196634E+04</rscale>
<asrwt>0</asrwt>
<pdfrwt beam="1">  1        1 0.16671174E+00 0.12196634E+04</pdfrwt>
<pdfrwt beam="2">  1       -1 0.52799171E-01 0.12196634E+04</pdfrwt>
<totfact> 0.46610774E+01</totfact>
</mgrwt>
</event>
<event>
 6    1  0.1780144E-005  0.1117745E+04  0.7818608E-02  0.9188067E-01
         -1   -1    0    0    0  501 -0.00000000000E+00  0.00000000000E+00  0.74928895174E+03  0.74928895174E+03  0.00000000000E+00 0.  1.
          1   -1    0    0  501    0  0.00000000000E+00 -0.00000000000E+00 -0.41684629642E+03  0.41684629642E+03  0.00000000000E+00 0. -1.
         23    2    1    2    0    0  0.24480049725E+03  0.30786253848E+03  0.57603711500E+03  0.70348539476E+03  0.91467572013E+02 0.  0.
         11    1    3    3    0    0  0.18638829624E+03  0.16653447635E+03  0.33364127365E+03  0.41688227148E+03  0.00000000000E+00 0. -1.
        -11    1    3    3    0    0  0.58412201011E+02  0.14132806213E+03  0.24239584135E+03  0.28660312329E+03  0.00000000000E+00 0.  1.
         22    1    1    2    0    0 -0.24480049725E+03 -0.30786253848E+03 -0.24359445968E+03  0.46264985339E+03  0.00000000000E+00 0. -1.
<mgrwt>
<rscale>  0 0.11177447E+04</rscale>
<asrwt>0</asrwt>
<pdfrwt beam="1">  1        1 0.64130200E-01 0.11177447E+04</pdfrwt>
<pdfrwt beam="2">  1       -1 0.11527522E+00 0.11177447E+04</pdfrwt>
<totfact> 0.38582195E+01</totfact>
</mgrwt>
</event>
<event>
 6    1  0.1780144E-005  0.3147868E+04  0.7818608E-02  0.8202722E-01
         -2   -1    0    0    0  501 -0.00000000000E+00  0.00000000000E+00  0.90667704374E+03  0.90667704374E+03  0.00000000000E+00 0.  1.
          2   -1    0    0  501    0  0.00000000000E+00 -0.00000000000E+00 -0.27322498232E+04  0.27322498232E+04  0.00000000000E+00 0. -1.
         23    2    1    2    0    0  0.38515378985E+03 -0.13069531942E+04 -0.18212123995E+04  0.22763964612E+04  0.93253153742E+02 0.  0.
         13    1    3    3    0    0  0.15337186926E+03 -0.49783855136E+03 -0.62245396133E+03  0.81167424961E+03  0.00000000000E+00 0.  1.
        -13    1    3    3    0    0  0.23178192059E+03 -0.80911464286E+03 -0.11987584382E+04  0.14647222116E+04  0.00000000000E+00 0. -1.
         22    1    1    2    0    0 -0.38515378985E+03  0.13069531942E+04 -0.43603799786E+01  0.13625304058E+04  0.00000000000E+00 0.  1.
<mgrwt>
<rscale>  0 0.31478680E+04</rscale>
<asrwt>0</asrwt>
<pdfrwt beam="1">  1        2 0.42034612E+00 0.31478680E+04</pdfrwt>
<pdfrwt beam="2">  1       -2 0.13948878E+00 0.31478680E+04</pdfrwt>
<totfact> 0.77861531E-01</totfact>
</mgrwt>
</event>
<event>
 6    1  0.1780144E-005  0.4122932E+04  0.7818608E-02  0.7980196E-01
          2   -1    0    0  501    0  0.00000000000E+00  0.00000000000E+00  0.37513858772E+04  0.37513858772E+04  0.00000000000E+00 0. -1.
         -2   -1    0    0    0  501 -0.00000000000E+00 -0.00000000000E+00 -0.11328190023E+04  0.11328190023E+04  0.00000000000E+00 0.  1.
         23    2    1    2    0    0  0.99154183117E+03  0.47547866526E+03 -0.75424732446E+03  0.13366549098E+04  0.92315531502E+02 0.  0.
         13    1    3    3    0    0  0.88373434015E+03  0.41069558692E+03 -0.63360347372E+03  0.11623728365E+04  0.00000000000E+00 0.  1.
        -13    1    3    3    0    0  0.10780749102E+03  0.64783078338E+02 -0.12064385074E+03  0.17428207332E+03  0.00000000000E+00 0. -1.
         22    1    1    2    0    0 -0.99154183117E+03 -0.47547866526E+03  0.33728141993E+04  0.35475499697E+04  0.00000000000E+00 0. -1.
<mgrwt>
<rscale>  0 0.41229316E+04</rscale>
<asrwt>0</asrwt>
<pdfrwt beam="1">  1        2 0.57713628E+00 0.41229316E+04</pdfrwt>
<pdfrwt beam="2">  1       -2 0.17427985E+00 0.41229316E+04</pdfrwt>
<totfact> 0.82761385E-02</totfact>
</mgrwt>
</event>
<event>
 6    1  0.1780144E-005  0.1684397E+04  0.7818608E-02  0.8770314E-01
          2   -1    0    0  501    0  0.00000000000E+00  0.00000000000E+00  0.11110047900E+04  0.11110047900E+04  0.00000000000E+00 0. -1.
         -2   -1    0    0    0  501 -0.00000000000E+00 -0.00000000000E+00 -0.63842975593E+03  0.63842975593E+03  0.00000000000E+00 0.  1.
         23    2    1    2    0    0  0.30866721351E+03 -0.22948560014E+03 -0.53837514163E+03  0.66778795526E+03  0.90298785677E+02 0.  0.
         13    1    3    3    0    0  0.18009479169E+03 -0.18675032307E+03 -0.36251697438E+03  0.44578960719E+03  0.00000000000E+00 0. -1.
        -13    1    3    3    0    0  0.12857242182E+03 -0.42735277071E+02 -0.17585816725E+03  0.22199834807E+03  0.00000000000E+00 0.  1.
         22    1    1    2    0    0 -0.30866721351E+03  0.22948560014E+03  0.10109501757E+04  0.10816465906E+04  0.00000000000E+00 0. -1.
<mgrwt>
<rscale>  0 0.16843972E+04</rscale>
<asrwt>0</asrwt>
<pdfrwt beam="1">  1        2 0.17092381E+00 0.16843972E+04</pdfrwt>
<pdfrwt beam="2">  1       -2 0.98219963E-01 0.16843972E+04</pdfrwt>
<totfact> 0.17613910E+01</totfact>
</mgrwt>
</event>
<event>
 6    1  0.1780144E-005  0.2684988E+04  0.7818608E-02  0.8339892E-01
         -1   -1    0    0    0  501 -0.00000000000E+00  0.00000000000E+00  0.28002418744E+04  0.28002418744E+04  0.00000000000E+00 0.  1.
          1   -1    0    0  501    0  0.00000000000E+00 -0.00000000000E+00 -0.64361961739E+03  0.64361961739E+03  0.00000000000E+00 0. -1.
         23    2    1    2    0    0 -0.13675841499E+03 -0.42420306490E+03  0.27017408308E+04  0.27397270132E+04  0.89718927162E+02 0.  0.
         13    1    3    3    0    0 -0.37514901787E+02 -0.14012478678E+03  0.64651432947E+03  0.66258818427E+03  0.00000000000E+00 0.  1.
        -13    1    3    3    0    0 -0.99243513206E+02 -0.28407827811E+03  0.20552265013E+04  0.20771388290E+04  0.00000000000E+00 0. -1.
         22    1    1    2    0    0  0.13675841499E+03  0.42420306490E+03 -0.54511857382E+03  0.70413447853E+03  0.00000000000E+00 0. -1.
<mgrwt>
<rscale>  0 0.26849883E+04</rscale>
<asrwt>0</asrwt>
<pdfrwt beam="1">  1        1 0.99018404E-01 0.26849883E+04</pdfrwt>
<pdfrwt beam="2">  1       -1 0.43080643E+00 0.26849883E+04</pdfrwt>
<totfact> 0.11855863E-01</totfact>
</mgrwt>
</event>
<event>
 6    1  0.1780144E-005  0.6311450E+04  0.7818608E-02  0.7652941E-01
          2   -1    0    0  501    0  0.00000000000E+00  0.00000000000E+00  0.46679342085E+04  0.46679342085E+04  0.00000000000E+00 0. -1.
         -2   -1    0    0    0  501 -0.00000000000E+00 -0.00000000000E+00 -0.21334061347E+04  0.21334061347E+04  0.00000000000E+00 0.  1.
         23    2    1    2    0    0 -0.48912117854E+03 -0.13750974533E+04 -0.17470722326E+04  0.22778202850E+04  0.77918748658E+02 0.  0.
         13    1    3    3    0    0 -0.15210744734E+03 -0.53080289403E+03 -0.68399091252E+03  0.87905173696E+03  0.00000000000E+00 0.  1.
        -13    1    3    3    0    0 -0.33701373120E+03 -0.84429455930E+03 -0.10630813201E+04  0.13987685480E+04  0.00000000000E+00 0. -1.
         22    1    1    2    0    0  0.48912117854E+03  0.13750974533E+04  0.42816003064E+04  0.45235200582E+04  0.00000000000E+00 0. -1.
<mgrwt>
<rscale>  0 0.63114497E+04</rscale>
<asrwt>0</asrwt>
<pdfrwt beam="1">  1        2 0.71814372E+00 0.63114497E+04</pdfrwt>
<pdfrwt beam="2">  1       -2 0.32821633E+00 0.63114497E+04</pdfrwt>
<totfact> 0.11443672E-03</totfact>
</mgrwt>
</event>
<event>
 6    1  0.1780144E-005  0.2494059E+04  0.7818608E-02  0.8405105E-01
         -1   -1    0    0    0  501 -0.00000000000E+00  0.00000000000E+00  0.12825778132E+04  0.12825778132E+04  0.00000000000E+00 0.  1.
          1   -1    0    0  501    0  0.00000000000E+00 -0.00000000000E+00 -0.12124662627E+04  0.12124662627E+04  0.00000000000E+00 0. -1.
         23    2    1    2    0    0 -0.10915132332E+03 -0.45995576125E+03 -0.11174594115E+04  0.12168429558E+04  0.92292627014E+02 0.  0.
         11    1    3    3    0    0 -0.91932461783E+01 -0.16477716142E+03 -0.30731462713E+03  0.34882418028E+03  0.00000000000E+00 0. -1.
        -11    1    3    3    0    0 -0.99958077141E+02 -0.29517859983E+03 -0.81014478436E+03  0.86801877550E+03  0.00000000000E+00 0.  1.
         22    1    1    2    0    0  0.10915132332E+03  0.45995576125E+03  0.11875709621E+04  0.12782011202E+04  0.00000000000E+00 0.  1.
<mgrwt>
<rscale>  0 0.24940588E+04</rscale>
<asrwt>0</asrwt>
<pdfrwt beam="1">  1        1 0.18653327E+00 0.24940588E+04</pdfrwt>
<pdfrwt beam="2">  1       -1 0.19731966E+00 0.24940588E+04</pdfrwt>
<totfact> 0.14609494E+00</totfact>
</mgrwt>
</event>
<event>
 6    1  0.1780144E-005  0.2446010E+04  0.7818608E-02  0.8422476E-01
         -1   -1    0    0    0  501 -0.00000000000E+00  0.00000000000E+00  0.17520996984E+04  0.17520996984E+04  0.00000000000E+00 0.  1.
          1   -1    0    0  501    0  0.00000000000E+00 -0.00000000000E+00 -0.85368520149E+03  0.85368520149E+03  0.00000000000E+00 0. -1.
         23    2    1    2    0    0 -0.20347868164E+02 -0.11114826215E+04  0.98864828930E+03  0.14904599289E+04  0.90761809771E+02 0.  0.
         13    1    3    3    0    0 -0.78611939675E+01 -0.93888352220E+03  0.79043885643E+03  0.12273376277E+04  0.00000000000E+00 0. -1.
        -13    1    3    3    0    0 -0.12486674196E+02 -0.17259909929E+03  0.19820943287E+03  0.26312230120E+03  0.00000000000E+00 0.  1.
         22    1    1    2    0    0  0.20347868164E+02  0.11114826215E+04 -0.90233792387E+02  0.11153249710E+04  0.00000000000E+00 0. -1.
<mgrwt>
<rscale>  0 0.24460103E+04</rscale>
<asrwt>0</asrwt>
<pdfrwt beam="1">  1        1 0.13133619E+00 0.24460103E+04</pdfrwt>
<pdfrwt beam="2">  1       -1 0.26955380E+00 0.24460103E+04</pdfrwt>
<totfact> 0.92317227E-01</totfact>
</mgrwt>
</event>
<event>
 6    1  0.1780144E-005  0.4683005E+04  0.7818608E-02  0.7879358E-01
          1   -1    0    0  501    0  0.00000000000E+00  0.00000000000E+00  0.26663757240E+04  0.26663757240E+04  0.00000000000E+00 0. -1.
         -1   -1    0    0    0  501 -0.00000000000E+00 -0.00000000000E+00 -0.20562123097E+04  0.20562123097E+04  0.00000000000E+00 0.  1.
         23    2    1    2    0    0 -0.17734252296E+04  0.52287527491E+03  0.17525617052E+04  0.25492244071E+04  0.92935189180E+02 0.  0.
         13    1    3    3    0    0 -0.22791880033E+03  0.82535181133E+02  0.26916406960E+03  0.36222690684E+03  0.00000000000E+00 0.  1.
        -13    1    3    3    0    0 -0.15455064293E+04  0.44034009378E+03  0.14833976356E+04  0.21869975003E+04  0.00000000000E+00 0. -1.
         22    1    1    2    0    0  0.17734252296E+04 -0.52287527491E+03 -0.11423982909E+04  0.21733636265E+04  0.00000000000E+00 0.  1.
<mgrwt>
<rscale>  0 0.46830053E+04</rscale>
<asrwt>0</asrwt>
<pdfrwt beam="1">  1        1 0.41021165E+00 0.46830053E+04</pdfrwt>
<pdfrwt beam="2">  1       -1 0.31634035E+00 0.46830053E+04</pdfrwt>
<totfact> 0.19843565E-02</totfact>
</mgrwt>
</event>
<event>
 6    1  0.1780144E-005  0.1360163E+04  0.7818608E-02  0.8983170E-01
          2   -1    0    0  501    0  0.00000000000E+00  0.00000000000E+00  0.57598076228E+03  0.57598076228E+03  0.00000000000E+00 0. -1.
         -2   -1    0    0    0  501 -0.00000000000E+00 -0.00000000000E+00 -0.80299754730E+03  0.80299754730E+03  0.00000000000E+00 0.  1.
         23    2    1    2    0    0  0.39779190929E+03 -0.40014968255E+03  0.26483074098E+03  0.63046500951E+03  0.94829506485E+02 0.  0.
         11    1    3    3    0    0  0.19799038451E+03 -0.13375140425E+03  0.10219163743E+03  0.25987066255E+03  0.00000000000E+00 0.  1.
        -11    1    3    3    0    0  0.19980152478E+03 -0.26639827831E+03  0.16263910355E+03  0.37059434695E+03  0.00000000000E+00 0. -1.
         22    1    1    2    0    0 -0.39779190929E+03  0.40014968255E+03 -0.49184752600E+03  0.74851330007E+03  0.00000000000E+00 0.  1.
<mgrwt>
<rscale>  0 0.13601634E+04</rscale>
<asrwt>0</asrwt>
<pdfrwt beam="1">  1        2 0.88612425E-01 0.13601634E+04</pdfrwt>
<pdfrwt beam="2">  1       -2 0.12353808E+00 0.13601634E+04</pdfrwt>
<totfact> 0.25106564E+01</totfact>
</mgrwt>
</event>
<event>
 6    1  0.1780144E-005  0.1669440E+04  0.7818608E-02  0.8778988E-01
          2   -1    0    0  501    0  0.00000000000E+00  0.00000000000E+00  0.21455343903E+04  0.21455343903E+04  0.00000000000E+00 0. -1.
         -2   -1    0    0    0  501 -0.00000000000E+00 -0.00000000000E+00 -0.32474782693E+03  0.32474782693E+03  0.00000000000E+00 0.  1.
         23    2    1    2    0    0 -0.79114404331E+03  0.13007968527E+03  0.12428940419E+04  0.14819556577E+04  0.92613985919E+02 0.  0.
         11    1    3    3    0    0 -0.21242994170E+03 -0.63242696489E+01  0.32595872209E+03  0.38912152989E+03  0.00000000000E+00 0.  1.
        -11    1    3    3    0    0 -0.57871410161E+03  0.13640395492E+03  0.91693531979E+03  0.10928341278E+04  0.00000000000E+00 0. -1.
         22    1    1    2    0    0  0.79114404331E+03 -0.13007968527E+03  0.57789252148E+03  0.98832655948E+03  0.00000000000E+00 0.  1.
<mgrwt>
<rscale>  0 0.16694402E+04</rscale>
<asrwt>0</asrwt>
<pdfrwt beam="1">  1        2 0.33008221E+00 0.16694402E+04</pdfrwt>
<pdfrwt beam="2">  1       -2 0.49961205E-01 0.16694402E+04</pdfrwt>
<totfact> 0.20040084E+01</totfact>
</mgrwt>
</event>
<event>
 6    1  0.1954852E-005  0.3165343E+04  0.7818608E-02  0.8198030E-01
         -1   -1    0    0    0  501 -0.00000000000E+00  0.00000000000E+00  0.17881325518E+04  0.17881325518E+04  0.00000000000E+00 0.  1.
          1   -1    0    0  501    0  0.00000000000E+00 -0.00000000000E+00 -0.14008186261E+04  0.14008186261E+04  0.00000000000E+00 0. -1.
         23    2    1    2    0    0  0.29139917884E+03 -0.11188978521E+04  0.12807430819E+04  0.17277661991E+04  0.89595267511E+02 0.  0.
         13    1    3    3    0    0  0.34050967618E+02 -0.28314998888E+03  0.31020889742E+03  0.42138218358E+03  0.00000000000E+00 0.  1.
        -13    1    3    3    0    0  0.25734821122E+03 -0.83574786325E+03  0.97053418448E+03  0.13063840155E+04  0.00000000000E+00 0. -1.
         22    1    1    2    0    0 -0.29139917884E+03  0.11188978521E+04 -0.89342915621E+03  0.14611849787E+04  0.00000000000E+00 0. -1.
<mgrwt>
<rscale>  0 0.31653432E+04</rscale>
<asrwt>0</asrwt>
<pdfrwt beam="1">  1        1 0.21551056E+00 0.31653432E+04</pdfrwt>
<pdfrwt beam="2">  1       -1 0.27509732E+00 0.31653432E+04</pdfrwt>
<totfact> 0.30826813E-01</totfact>
</mgrwt>
</event>
<event>
 6    1  0.1780144E-005  0.1910876E+04  0.7818608E-02  0.8649462E-01
          2   -1    0    0  501    0  0.00000000000E+00  0.00000000000E+00  0.11396519880E+04  0.11396519880E+04  0.00000000000E+00 0. -1.
         -2   -1    0    0    0  501 -0.00000000000E+00 -0.00000000000E+00 -0.80100029012E+03  0.80100029012E+03  0.00000000000E+00 0.  1.
         23    2    1    2    0    0  0.57165766297E+03  0.50578711531E+03 -0.41029110811E+03  0.87129339716E+03  0.90555512736E+02 0.  0.
         13    1    3    3    0    0  0.16372158603E+03  0.94105473355E+02 -0.91514193131E+02  0.20984624226E+03  0.00000000000E+00 0. -1.
        -13    1    3    3    0    0  0.40793607694E+03  0.41168164196E+03 -0.31877691498E+03  0.66144715489E+03  0.00000000000E+00 0.  1.
         22    1    1    2    0    0 -0.57165766297E+03 -0.50578711531E+03  0.74894280595E+03  0.10693588809E+04  0.00000000000E+00 0.  1.
<mgrwt>
<rscale>  0 0.19108758E+04</rscale>
<asrwt>0</asrwt>
<pdfrwt beam="1">  1        2 0.17533108E+00 0.19108758E+04</pdfrwt>
<pdfrwt beam="2">  1       -2 0.12323081E+00 0.19108758E+04</pdfrwt>
<totfact> 0.95798442E+00</totfact>
</mgrwt>
</event>
<event>
 6    1  0.1780144E-005  0.2807249E+04  0.7818608E-02  0.8301021E-01
         -2   -1    0    0    0  501 -0.00000000000E+00  0.00000000000E+00  0.97936010170E+03  0.97936010170E+03  0.00000000000E+00 0.  1.
          2   -1    0    0  501    0  0.00000000000E+00 -0.00000000000E+00 -0.20116823307E+04  0.20116823307E+04  0.00000000000E+00 0. -1.
         23    2    1    2    0    0  0.10528567592E+04  0.74573655148E+03 -0.11018019038E+04  0.16989674404E+04  0.88840130139E+02 0.  0.
         13    1    3    3    0    0  0.66158319407E+03  0.44956525817E+03 -0.62946025362E+03  0.10178513914E+04  0.00000000000E+00 0.  1.
        -13    1    3    3    0    0  0.39127356511E+03  0.29617129331E+03 -0.47234165020E+03  0.68111604903E+03  0.00000000000E+00 0. -1.
         22    1    1    2    0    0 -0.10528567592E+04 -0.74573655148E+03  0.69479674863E+02  0.12920749919E+04  0.00000000000E+00 0.  1.
<mgrwt>
<rscale>  0 0.28072488E+04</rscale>
<asrwt>0</asrwt>
<pdfrwt beam="1">  1        2 0.30948959E+00 0.28072488E+04</pdfrwt>
<pdfrwt beam="2">  1       -2 0.15067079E+00 0.28072488E+04</pdfrwt>
<totfact> 0.16948918E+00</totfact>
</mgrwt>
</event>
<event>
 6    1  0.1780144E-005  0.1326063E+04  0.7818608E-02  0.9009149E-01
         -1   -1    0    0    0  501 -0.00000000000E+00  0.00000000000E+00  0.31029483190E+03  0.31029483190E+03  0.00000000000E+00 0.  1.
          1   -1    0    0  501    0  0.00000000000E+00 -0.00000000000E+00 -0.14167517040E+04  0.14167517040E+04  0.00000000000E+00 0. -1.
         23    2    1    2    0    0  0.60156423975E+02 -0.47911236030E+03  0.29561928006E+02  0.49266160269E+03  0.93134837977E+02 0.  0.
         13    1    3    3    0    0  0.12190246819E+02 -0.33960474780E+03  0.50861428857E+02  0.34360860261E+03  0.00000000000E+00 0.  1.
        -13    1    3    3    0    0  0.47966177156E+02 -0.13950761250E+03 -0.21299500851E+02  0.14905300008E+03  0.00000000000E+00 0. -1.
         22    1    1    2    0    0 -0.60156423975E+02  0.47911236030E+03 -0.11360188001E+04  0.12343849332E+04  0.00000000000E+00 0. -1.
<mgrwt>
<rscale>  0 0.13260629E+04</rscale>
<asrwt>0</asrwt>
<pdfrwt beam="1">  1        1 0.21796180E+00 0.13260629E+04</pdfrwt>
<pdfrwt beam="2">  1       -1 0.47737667E-01 0.13260629E+04</pdfrwt>
<totfact> 0.32130726E+01</totfact>
</mgrwt>
</event>
<event>
 6    1  0.1780144E-005  0.1477386E+04  0.7818608E-02  0.8899632E-01
         -2   -1    0    0    0  501 -0.00000000000E+00  0.00000000000E+00  0.72696266861E+03  0.72696266861E+03  0.00000000000E+00 0.  1.
          2   -1    0    0  501    0  0.00000000000E+00 -0.00000000000E+00 -0.75061238051E+03  0.75061238051E+03  0.00000000000E+00 0. -1.
         23    2    1    2    0    0  0.61777417213E+03 -0.38679327371E+03 -0.11286976780E+03  0.74326300188E+03  0.91903977789E+02 0.  0.
         11    1    3    3    0    0  0.23119282906E+03 -0.10365063898E+03 -0.65838091515E+02  0.26177897827E+03  0.00000000000E+00 0. -1.
        -11    1    3    3    0    0  0.38658134308E+03 -0.28314263474E+03 -0.47031676284E+02  0.48148402361E+03  0.00000000000E+00 0.  1.
         22    1    1    2    0    0 -0.61777417213E+03  0.38679327371E+03  0.89220055898E+02  0.73431204724E+03  0.00000000000E+00 0.  1.
<mgrwt>
<rscale>  0 0.14773858E+04</rscale>
<asrwt>0</asrwt>
<pdfrwt beam="1">  1        2 0.11547883E+00 0.14773858E+04</pdfrwt>
<pdfrwt beam="2">  1       -2 0.11184041E+00 0.14773858E+04</pdfrwt>
<totfact> 0.22880746E+01</totfact>
</mgrwt>
</event>
<event>
 6    1  0.1780144E-005  0.1636424E+04  0.7818608E-02  0.8798479E-01
          1   -1    0    0  501    0  0.00000000000E+00  0.00000000000E+00  0.83355561639E+03  0.83355561639E+03  0.00000000000E+00 0. -1.
         -1   -1    0    0    0  501 -0.00000000000E+00 -0.00000000000E+00 -0.80315045676E+03  0.80315045676E+03  0.00000000000E+00 0.  1.
         23    2    1    2    0    0 -0.18172263113E+03  0.61205390813E+03 -0.49241858344E+03  0.81149230240E+03  0.91709292921E+02 0.  0.
         13    1    3    3    0    0 -0.93546378913E+02  0.45597236273E+03 -0.36609452431E+03  0.59218824820E+03  0.00000000000E+00 0. -1.
        -13    1    3    3    0    0 -0.88176252221E+02  0.15608154540E+03 -0.12632405913E+03  0.21930405420E+03  0.00000000000E+00 0.  1.
         22    1    1    2    0    0  0.18172263113E+03 -0.61205390813E+03  0.52282374307E+03  0.82521377076E+03  0.00000000000E+00 0. -1.
<mgrwt>
<rscale>  0 0.16364236E+04</rscale>
<asrwt>0</asrwt>
<pdfrwt beam="1">  1        1 0.12823933E+00 0.16364236E+04</pdfrwt>
<pdfrwt beam="2">  1       -1 0.12356161E+00 0.16364236E+04</pdfrwt>
<totfact> 0.11398884E+01</totfact>
</mgrwt>
</event>
<event>
 6    1  0.1780144E-005  0.1372092E+04  0.7818608E-02  0.8974271E-01
          2   -1    0    0  501    0  0.00000000000E+00  0.00000000000E+00  0.22845424432E+04  0.22845424432E+04  0.00000000000E+00 0.  1.
         -2   -1    0    0    0  501 -0.00000000000E+00 -0.00000000000E+00 -0.20601887443E+03  0.20601887443E+03  0.00000000000E+00 0. -1.
         23    2    1    2    0    0 -0.39082447835E+03  0.55442490061E+03  0.11900047704E+04  0.13727078396E+04  0.89915048689E+02 0.  0.
         13    1    3    3    0    0 -0.33404562383E+03  0.49676292243E+03  0.98953030499E+03  0.11565163658E+04  0.00000000000E+00 0. -1.
        -13    1    3    3    0    0 -0.56778854524E+02  0.57661978174E+02  0.20047446541E+03  0.21619147377E+03  0.00000000000E+00 0.  1.
         22    1    1    2    0    0  0.39082447835E+03 -0.55442490061E+03  0.88851879833E+03  0.11178534780E+04  0.00000000000E+00 0.  1.
<mgrwt>
<rscale>  0 0.13720916E+04</rscale>
<asrwt>0</asrwt>
<pdfrwt beam="1">  1        2 0.35146805E+00 0.13720916E+04</pdfrwt>
<pdfrwt beam="2">  1       -2 0.31695213E-01 0.13720916E+04</pdfrwt>
<totfact> 0.41823433E+01</totfact>
</mgrwt>
</event>
<event>
 6    1  0.1780144E-005  0.1977740E+04  0.7818608E-02  0.8617099E-01
          1   -1    0    0  501    0  0.00000000000E+00  0.00000000000E+00  0.87097248650E+03  0.87097248650E+03  0.00000000000E+00 0. -1.
         -1   -1    0    0    0  501 -0.00000000000E+00 -0.00000000000E+00 -0.11227262444E+04  0.11227262444E+04  0.00000000000E+00 0.  1.
         23    2    1    2    0    0  0.82758231336E+03  0.44364755711E+03 -0.43198525702E+03  0.10375611709E+04  0.90588524536E+02 0.  0.
         11    1    3    3    0    0  0.48176789519E+03  0.28015893662E+03 -0.21175004412E+03  0.59617733585E+03  0.00000000000E+00 0. -1.
        -11    1    3    3    0    0  0.34581441817E+03  0.16348862049E+03 -0.22023521290E+03  0.44138383505E+03  0.00000000000E+00 0.  1.
         22    1    1    2    0    0 -0.82758231336E+03 -0.44364755711E+03  0.18023149913E+03  0.95613755997E+03  0.00000000000E+00 0.  1.
<mgrwt>
<rscale>  0 0.19777398E+04</rscale>
<asrwt>0</asrwt>
<pdfrwt beam="1">  1        1 0.13399577E+00 0.19777398E+04</pdfrwt>
<pdfrwt beam="2">  1       -1 0.17272711E+00 0.19777398E+04</pdfrwt>
<totfact> 0.42003112E+00</totfact>
</mgrwt>
</event>
<event>
 6    1  0.1780144E-005  0.2200889E+04  0.7818608E-02  0.8518058E-01
          1   -1    0    0  501    0  0.00000000000E+00  0.00000000000E+00  0.10596201666E+04  0.10596201666E+04  0.00000000000E+00 0. -1.
         -1   -1    0    0    0  501 -0.00000000000E+00 -0.00000000000E+00 -0.11428418432E+04  0.11428418432E+04  0.00000000000E+00 0.  1.
         23    2    1    2    0    0  0.82571801780E+03 -0.72103647323E+03  0.29647942673E+02  0.11004441372E+04  0.91621274744E+02 0.  0.
         13    1    3    3    0    0  0.36926848875E+03 -0.38319097286E+03  0.16178807420E+02  0.53240613471E+03  0.00000000000E+00 0.  1.
        -13    1    3    3    0    0  0.45644952906E+03 -0.33784550036E+03  0.13469135253E+02  0.56803800251E+03  0.00000000000E+00 0. -1.
         22    1    1    2    0    0 -0.82571801780E+03  0.72103647323E+03 -0.11286961928E+03  0.11020178726E+04  0.00000000000E+00 0.  1.
<mgrwt>
<rscale>  0 0.22008892E+04</rscale>
<asrwt>0</asrwt>
<pdfrwt beam="1">  1        1 0.16301849E+00 0.22008892E+04</pdfrwt>
<pdfrwt beam="2">  1       -1 0.17582182E+00 0.22008892E+04</pdfrwt>
<totfact> 0.27674323E+00</totfact>
</mgrwt>
</event>
<event>
 6    1  0.1780144E-005  0.2001786E+04  0.7818608E-02  0.8605786E-01
         -2   -1    0    0    0  501 -0.00000000000E+00  0.00000000000E+00  0.64311628352E+03  0.64311628352E+03  0.00000000000E+00 0.  1.
          2   -1    0    0  501    0  0.00000000000E+00 -0.00000000000E+00 -0.15577071719E+04  0.15577071719E+04  0.00000000000E+00 0. -1.
         23    2    1    2    0    0 -0.31783299831E+03  0.17279308074E+03  0.56534174691E+03  0.67731570401E+03  0.90939587282E+02 0.  0.
         11    1    3    3    0    0 -0.19171367497E+03  0.84331417408E+02  0.39878917712E+03  0.45044281427E+03  0.00000000000E+00 0. -1.
        -11    1    3    3    0    0 -0.12611932334E+03  0.88461663334E+02  0.16655256979E+03  0.22687288975E+03  0.00000000000E+00 0.  1.
         22    1    1    2    0    0  0.31783299831E+03 -0.17279308074E+03 -0.14799326353E+04  0.15235077514E+04  0.00000000000E+00 0. -1.
<mgrwt>
<rscale>  0 0.20017860E+04</rscale>
<asrwt>0</asrwt>
<pdfrwt beam="1">  1        2 0.23964725E+00 0.20017860E+04</pdfrwt>
<pdfrwt beam="2">  1       -2 0.98940969E-01 0.20017860E+04</pdfrwt>
<totfact> 0.92686560E+00</totfact>
</mgrwt>
</event>
<event>
 6    1  0.1780144E-005  0.2446276E+04  0.7818608E-02  0.8422379E-01
         -2   -1    0    0    0  501 -0.00000000000E+00  0.00000000000E+00  0.84123169744E+03  0.84123169744E+03  0.00000000000E+00 0.  1.
          2   -1    0    0  501    0  0.00000000000E+00 -0.00000000000E+00 -0.17784239324E+04  0.17784239324E+04  0.00000000000E+00 0. -1.
         23    2    1    2    0    0 -0.12488240057E+03 -0.11316437548E+04  0.45319209045E+01  0.11421382569E+04  0.90807806782E+02 0.  0.
         13    1    3    3    0    0 -0.87568858096E+02 -0.55150135601E+03 -0.34602913757E+02  0.55948137791E+03  0.00000000000E+00 0.  1.
        -13    1    3    3    0    0 -0.37313542470E+02 -0.58014239878E+03  0.39134834661E+02  0.58265687896E+03  0.00000000000E+00 0. -1.
         22    1    1    2    0    0  0.12488240057E+03  0.11316437548E+04 -0.94172415588E+03  0.14775173730E+04  0.00000000000E+00 0.  1.
<mgrwt>
<rscale>  0 0.24462760E+04</rscale>
<asrwt>0</asrwt>
<pdfrwt beam="1">  1        2 0.27360368E+00 0.24462760E+04</pdfrwt>
<pdfrwt beam="2">  1       -2 0.12942026E+00 0.24462760E+04</pdfrwt>
<totfact> 0.34906919E+00</totfact>
</mgrwt>
</event>
<event>
 6    1  0.1780144E-005  0.3078866E+04  0.7818608E-02  0.8221562E-01
         -2   -1    0    0    0  501 -0.00000000000E+00  0.00000000000E+00  0.63818448565E+03  0.63818448565E+03  0.00000000000E+00 0. -1.
          2   -1    0    0  501    0  0.00000000000E+00 -0.00000000000E+00 -0.37134317717E+04  0.37134317717E+04  0.00000000000E+00 0.  1.
         23    2    1    2    0    0 -0.10565232068E+04 -0.74104908915E+03 -0.35606185557E+03  0.13417384451E+04  0.89927587635E+02 0.  0.
         13    1    3    3    0    0 -0.39510101506E+02 -0.11302786244E+02 -0.19834003139E+02  0.45631006765E+02  0.00000000000E+00 0. -1.
        -13    1    3    3    0    0 -0.10170131053E+04 -0.72974630291E+03 -0.33622785243E+03  0.12961074384E+04  0.00000000000E+00 0.  1.
         22    1    1    2    0    0  0.10565232068E+04  0.74104908915E+03 -0.27191854305E+04  0.30098778123E+04  0.00000000000E+00 0.  1.
<mgrwt>
<rscale>  0 0.30788664E+04</rscale>
<asrwt>0</asrwt>
<pdfrwt beam="1">  1        2 0.57129719E+00 0.30788664E+04</pdfrwt>
<pdfrwt beam="2">  1       -2 0.98182229E-01 0.30788664E+04</pdfrwt>
<totfact> 0.41808940E-01</totfact>
</mgrwt>
</event>
<event>
 6    1  0.1780144E-005  0.1344101E+04  0.7818608E-02  0.8995306E-01
          1   -1    0    0  501    0  0.00000000000E+00  0.00000000000E+00  0.46070806068E+03  0.46070806068E+03  0.00000000000E+00 0.  1.
         -1   -1    0    0    0  501 -0.00000000000E+00 -0.00000000000E+00 -0.98034226841E+03  0.98034226841E+03  0.00000000000E+00 0. -1.
         23    2    1    2    0    0 -0.61806699606E+03  0.78913550779E+02 -0.10362012224E+01  0.63038513774E+03  0.95656615303E+02 0.  0.
         11    1    3    3    0    0 -0.20187625154E+03  0.63138797917E+00 -0.37495130879E+02  0.20532974560E+03  0.00000000000E+00 0.  1.
        -11    1    3    3    0    0 -0.41619074452E+03  0.78282162800E+02  0.36458929657E+02  0.42505539214E+03  0.00000000000E+00 0. -1.
         22    1    1    2    0    0  0.61806699606E+03 -0.78913550779E+02 -0.51859800651E+03  0.81066519136E+03  0.00000000000E+00 0. -1.
<mgrwt>
<rscale>  0 0.13441006E+04</rscale>
<asrwt>0</asrwt>
<pdfrwt beam="1">  1        1 0.70878164E-01 0.13441006E+04</pdfrwt>
<pdfrwt beam="2">  1       -1 0.15082188E+00 0.13441006E+04</pdfrwt>
<totfact> 0.16696741E+01</totfact>
</mgrwt>
</event>
<event>
 6    1  0.1780144E-005  0.1696291E+04  0.7818608E-02  0.8763482E-01
         -2   -1    0    0    0  501 -0.00000000000E+00  0.00000000000E+00  0.21839608044E+03  0.21839608044E+03  0.00000000000E+00 0.  1.
          2   -1    0    0  501    0  0.00000000000E+00 -0.00000000000E+00 -0.32937914537E+04  0.32937914537E+04  0.00000000000E+00 0. -1.
         23    2    1    2    0    0 -0.40441774519E+03  0.53903060447E+03 -0.48307657744E+03  0.83371325868E+03  0.87218764258E+02 0.  0.
         13    1    3    3    0    0 -0.11756772069E+03  0.99498832459E+02 -0.12478849947E+03  0.19822804092E+03  0.00000000000E+00 0. -1.
        -13    1    3    3    0    0 -0.28685002450E+03  0.43953177201E+03 -0.35828807798E+03  0.63548521775E+03  0.00000000000E+00 0.  1.
         22    1    1    2    0    0  0.40441774519E+03 -0.53903060447E+03 -0.25923187958E+04  0.26784742754E+04  0.00000000000E+00 0. -1.
<mgrwt>
<rscale>  0 0.16962914E+04</rscale>
<asrwt>0</asrwt>
<pdfrwt beam="1">  1        2 0.50673712E+00 0.16962914E+04</pdfrwt>
<pdfrwt beam="2">  1       -2 0.33599399E-01 0.16962914E+04</pdfrwt>
<totfact> 0.89328606E+00</totfact>
</mgrwt>
</event>
<event>
 6    1  0.1780144E-005  0.3839406E+04  0.7818608E-02  0.8037751E-01
          1   -1    0    0  501    0  0.00000000000E+00  0.00000000000E+00  0.38268022312E+04  0.38268022312E+04  0.00000000000E+00 0. -1.
         -1   -1    0    0    0  501 -0.00000000000E+00 -0.00000000000E+00 -0.96301281192E+03  0.96301281192E+03  0.00000000000E+00 0.  1.
         23    2    1    2    0    0  0.42335442850E+03 -0.69921125541E+03 -0.73277649168E+03  0.11015347252E+04  0.91060486456E+02 0.  0.
         13    1    3    3    0    0  0.15187619814E+03 -0.33300255353E+03 -0.30576664019E+03  0.47691751747E+03  0.00000000000E+00 0. -1.
        -13    1    3    3    0    0  0.27147823037E+03 -0.36620870188E+03 -0.42700985150E+03  0.62461720771E+03  0.00000000000E+00 0.  1.
         22    1    1    2    0    0 -0.42335442850E+03  0.69921125541E+03  0.35965659110E+04  0.36882803180E+04  0.00000000000E+00 0. -1.
<mgrwt>
<rscale>  0 0.38394060E+04</rscale>
<asrwt>0</asrwt>
<pdfrwt beam="1">  1        1 0.58873880E+00 0.38394060E+04</pdfrwt>
<pdfrwt beam="2">  1       -1 0.14815582E+00 0.38394060E+04</pdfrwt>
<totfact> 0.38610822E-02</totfact>
</mgrwt>
</event>
<event>
 6    1  0.1780144E-005  0.2320958E+04  0.7818608E-02  0.8469703E-01
          2   -1    0    0  501    0  0.00000000000E+00  0.00000000000E+00  0.24283193388E+04  0.24283193388E+04  0.00000000000E+00 0. -1.
         -2   -1    0    0    0  501 -0.00000000000E+00 -0.00000000000E+00 -0.55458570726E+03  0.55458570726E+03  0.00000000000E+00 0.  1.
         23    2    1    2    0    0 -0.11325042108E+04 -0.12402150338E+03  0.12095967970E+04  0.16641841295E+04  0.91854693894E+02 0.  0.
         11    1    3    3    0    0 -0.67870024161E+03 -0.68436771196E+02  0.65844269877E+03  0.94808459389E+03  0.00000000000E+00 0. -1.
        -11    1    3    3    0    0 -0.45380396920E+03 -0.55584732186E+02  0.55115409821E+03  0.71609953560E+03  0.00000000000E+00 0.  1.
         22    1    1    2    0    0  0.11325042108E+04  0.12402150338E+03  0.66413683460E+03  0.13187209166E+04  0.00000000000E+00 0.  1.
<mgrwt>
<rscale>  0 0.23209577E+04</rscale>
<asrwt>0</asrwt>
<pdfrwt beam="1">  1        2 0.37358759E+00 0.23209577E+04</pdfrwt>
<pdfrwt beam="2">  1       -2 0.85320879E-01 0.23209577E+04</pdfrwt>
<totfact> 0.41398816E+00</totfact>
</mgrwt>
</event>
<event>
 6    1  0.1780144E-005  0.1452512E+04  0.7818608E-02  0.8916661E-01
         -1   -1    0    0    0  501 -0.00000000000E+00  0.00000000000E+00  0.47656642796E+03  0.47656642796E+03  0.00000000000E+00 0.  1.
          1   -1    0    0  501    0  0.00000000000E+00 -0.00000000000E+00 -0.11067664277E+04  0.11067664277E+04  0.00000000000E+00 0. -1.
         23    2    1    2    0    0  0.46443988750E+03 -0.53618450141E+03 -0.16224746003E+03  0.73352240146E+03  0.92372325371E+02 0.  0.
         13    1    3    3    0    0  0.33225362807E+03 -0.39159809796E+03 -0.74760565830E+02  0.51897079484E+03  0.00000000000E+00 0.  1.
        -13    1    3    3    0    0  0.13218625943E+03 -0.14458640346E+03 -0.87486894200E+02  0.21455160662E+03  0.00000000000E+00 0. -1.
         22    1    1    2    0    0 -0.46443988750E+03  0.53618450141E+03 -0.46795253971E+03  0.84981045421E+03  0.00000000000E+00 0.  1.
<mgrwt>
<rscale>  0 0.14525119E+04</rscale>
<asrwt>0</asrwt>
<pdfrwt beam="1">  1        1 0.17027176E+00 0.14525119E+04</pdfrwt>
<pdfrwt beam="2">  1       -1 0.73317913E-01 0.14525119E+04</pdfrwt>
<totfact> 0.22813372E+01</totfact>
</mgrwt>
</event>
<event>
 6    1  0.1780144E-005  0.1963818E+04  0.7818608E-02  0.8623726E-01
         -2   -1    0    0    0  501 -0.00000000000E+00  0.00000000000E+00  0.26642422735E+03  0.26642422735E+03  0.00000000000E+00 0.  1.
          2   -1    0    0  501    0  0.00000000000E+00 -0.00000000000E+00 -0.36188357758E+04  0.36188357758E+04  0.00000000000E+00 0. -1.
         23    2    1    2    0    0 -0.50860316565E+03 -0.40247625815E+02 -0.33347524827E+04  0.33747613312E+04  0.90237852440E+02 0.  0.
         11    1    3    3    0    0 -0.70955559551E+02  0.12290820352E+02 -0.66199771355E+03  0.66590294221E+03  0.00000000000E+00 0. -1.
        -11    1    3    3    0    0 -0.43764760610E+03 -0.52538446167E+02 -0.26727547691E+04  0.27088583890E+04  0.00000000000E+00 0.  1.
         22    1    1    2    0    0  0.50860316565E+03  0.40247625815E+02 -0.17659065769E+02  0.51049867199E+03  0.00000000000E+00 0.  1.
<mgrwt>
<rscale>  0 0.19638182E+04</rscale>
<asrwt>0</asrwt>
<pdfrwt beam="1">  1        2 0.55674390E+00 0.19638182E+04</pdfrwt>
<pdfrwt beam="2">  1       -2 0.40988347E-01 0.19638182E+04</pdfrwt>
<totfact> 0.35399511E+00</totfact>
</mgrwt>
</event>
<event>
 6    1  0.1780144E-005  0.2173530E+04  0.7818608E-02  0.8529527E-01
         -2   -1    0    0    0  501 -0.00000000000E+00  0.00000000000E+00  0.14778138266E+04  0.14778138266E+04  0.00000000000E+00 0. -1.
          2   -1    0    0  501    0  0.00000000000E+00 -0.00000000000E+00 -0.79919300984E+03  0.79919300984E+03  0.00000000000E+00 0.  1.
         23    2    1    2    0    0  0.88937833697E+02  0.14501189803E+03  0.14623006650E+04  0.14750763572E+04  0.92674893772E+02 0.  0.
         13    1    3    3    0    0  0.51272464352E+02  0.88482528285E+02  0.49830566202E+03  0.50869102235E+03  0.00000000000E+00 0.  1.
        -13    1    3    3    0    0  0.37665369346E+02  0.56529369743E+02  0.96399500298E+03  0.96638533487E+03  0.00000000000E+00 0. -1.
         22    1    1    2    0    0 -0.88937833697E+02 -0.14501189803E+03 -0.78367984829E+03  0.80193047918E+03  0.00000000000E+00 0.  1.
<mgrwt>
<rscale>  0 0.21735303E+04</rscale>
<asrwt>0</asrwt>
<pdfrwt beam="1">  1        2 0.12295277E+00 0.21735303E+04</pdfrwt>
<pdfrwt beam="2">  1       -2 0.22735597E+00 0.21735303E+04</pdfrwt>
<totfact> 0.28054863E+00</totfact>
</mgrwt>
</event>
<event>
 6    1  0.1780144E-005  0.2341861E+04  0.7818608E-02  0.8461596E-01
         -2   -1    0    0    0  501 -0.00000000000E+00  0.00000000000E+00  0.19046065127E+04  0.19046065127E+04  0.00000000000E+00 0.  1.
          2   -1    0    0  501    0  0.00000000000E+00 -0.00000000000E+00 -0.71987481515E+03  0.71987481515E+03  0.00000000000E+00 0. -1.
         23    2    1    2    0    0  0.40323586311E+03 -0.24405800404E+03  0.17923400352E+04  0.18554875940E+04  0.90487230954E+02 0.  0.
         11    1    3    3    0    0  0.32049723562E+03 -0.21067689058E+03  0.15638735619E+04  0.16102185404E+04  0.00000000000E+00 0. -1.
        -11    1    3    3    0    0  0.82738627481E+02 -0.33381113452E+02  0.22846647334E+03  0.24526905360E+03  0.00000000000E+00 0.  1.
         22    1    1    2    0    0 -0.40323586311E+03  0.24405800404E+03 -0.60760833770E+03  0.76899373383E+03  0.00000000000E+00 0. -1.
<mgrwt>
<rscale>  0 0.23418610E+04</rscale>
<asrwt>0</asrwt>
<pdfrwt beam="1">  1        2 0.11074997E+00 0.23418610E+04</pdfrwt>
<pdfrwt beam="2">  1       -2 0.29301639E+00 0.23418610E+04</pdfrwt>
<totfact> 0.12530651E+00</totfact>
</mgrwt>
</event>
<event>
 6    1  0.1780144E-005  0.3502335E+04  0.7818608E-02  0.8113237E-01
          1   -1    0    0  501    0  0.00000000000E+00  0.00000000000E+00  0.18208133137E+04  0.18208133137E+04  0.00000000000E+00 0. -1.
         -1   -1    0    0    0  501 -0.00000000000E+00 -0.00000000000E+00 -0.16841858456E+04  0.16841858456E+04  0.00000000000E+00 0.  1.
         23    2    1    2    0    0  0.17153740063E+04  0.25634381354E+03  0.30111626047E+03  0.17627946091E+04  0.92486211633E+02 0.  0.
         11    1    3    3    0    0  0.13884843640E+04  0.22057997758E+03  0.27819717652E+03  0.14331566644E+04  0.00000000000E+00 0.  1.
        -11    1    3    3    0    0  0.32688964226E+03  0.35763835963E+02  0.22919083943E+02  0.32963794471E+03  0.00000000000E+00 0. -1.
         22    1    1    2    0    0 -0.17153740063E+04 -0.25634381354E+03 -0.16448879238E+03  0.17422045502E+04  0.00000000000E+00 0.  1.
<mgrwt>
<rscale>  0 0.35023352E+04</rscale>
<asrwt>0</asrwt>
<pdfrwt beam="1">  1        1 0.28012512E+00 0.35023352E+04</pdfrwt>
<pdfrwt beam="2">  1       -1 0.25910552E+00 0.35023352E+04</pdfrwt>
<totfact> 0.19560942E-01</totfact>
</mgrwt>
</event>
<event>
 6    1  0.1780144E-005  0.1882770E+04  0.7818608E-02  0.8663481E-01
         -2   -1    0    0    0  501 -0.00000000000E+00  0.00000000000E+00  0.31002642677E+03  0.31002642677E+03  0.00000000000E+00 0.  1.
          2   -1    0    0  501    0  0.00000000000E+00 -0.00000000000E+00 -0.28584830638E+04  0.28584830638E+04  0.00000000000E+00 0. -1.
         23    2    1    2    0    0 -0.90803328528E+03  0.88814896189E+02 -0.90141655438E+03  0.12856516715E+04  0.89083573147E+02 0.  0.
         13    1    3    3    0    0 -0.44393499232E+03  0.26120930180E+01 -0.41133413265E+03  0.60521142514E+03  0.00000000000E+00 0. -1.
        -13    1    3    3    0    0 -0.46409829295E+03  0.86202803171E+02 -0.49008242172E+03  0.68044024637E+03  0.00000000000E+00 0.  1.
         22    1    1    2    0    0  0.90803328528E+03 -0.88814896189E+02 -0.16470400827E+04  0.18828578191E+04  0.00000000000E+00 0. -1.
<mgrwt>
<rscale>  0 0.18827695E+04</rscale>
<asrwt>0</asrwt>
<pdfrwt beam="1">  1        2 0.43976662E+00 0.18827695E+04</pdfrwt>
<pdfrwt beam="2">  1       -2 0.47696374E-01 0.18827695E+04</pdfrwt>
<totfact> 0.83424343E+00</totfact>
</mgrwt>
</event>
<event>
 6    1  0.1780144E-005  0.3816652E+04  0.7818608E-02  0.8042591E-01
          2   -1    0    0  501    0  0.00000000000E+00  0.00000000000E+00  0.28052394811E+04  0.28052394811E+04  0.00000000000E+00 0.  1.
         -2   -1    0    0    0  501 -0.00000000000E+00 -0.00000000000E+00 -0.12981809637E+04  0.12981809637E+04  0.00000000000E+00 0. -1.
         23    2    1    2    0    0 -0.80807014082E+03  0.40969508773E+03 -0.10504701763E+04  0.13901603327E+04  0.90723436512E+02 0.  0.
         13    1    3    3    0    0 -0.70892549589E+03  0.39044886858E+03 -0.94277515829E+03  0.12425178779E+04  0.00000000000E+00 0. -1.
        -13    1    3    3    0    0 -0.99144644923E+02  0.19246219149E+02 -0.10769501799E+03  0.14764245483E+03  0.00000000000E+00 0.  1.
         22    1    1    2    0    0  0.80807014082E+03 -0.40969508773E+03  0.25575286936E+04  0.27132601121E+04  0.00000000000E+00 0.  1.
<mgrwt>
<rscale>  0 0.38166522E+04</rscale>
<asrwt>0</asrwt>
<pdfrwt beam="1">  1        2 0.43157530E+00 0.38166522E+04</pdfrwt>
<pdfrwt beam="2">  1       -2 0.19972015E+00 0.38166522E+04</pdfrwt>
<totfact> 0.24542395E-01</totfact>
</mgrwt>
</event>
<event>
 6    1  0.1780144E-005  0.2867641E+04  0.7818608E-02  0.8282571E-01
         -1   -1    0    0    0  501 -0.00000000000E+00  0.00000000000E+00  0.11726446327E+04  0.11726446327E+04  0.00000000000E+00 0.  1.
          1   -1    0    0  501    0  0.00000000000E+00 -0.00000000000E+00 -0.17531663468E+04  0.17531663468E+04  0.00000000000E+00 0. -1.
         23    2    1    2    0    0 -0.75854503592E+03 -0.12067452038E+04 -0.43520669875E+03  0.14930719900E+04  0.90744356654E+02 0.  0.
         13    1    3    3    0    0 -0.22220690922E+03 -0.28276111745E+03 -0.97604916192E+02  0.37263451224E+03  0.00000000000E+00 0.  1.
        -13    1    3    3    0    0 -0.53633812670E+03 -0.92398408633E+03 -0.33760178255E+03  0.11204374777E+04  0.00000000000E+00 0. -1.
         22    1    1    2    0    0  0.75854503592E+03  0.12067452038E+04 -0.14531501529E+03  0.14327389895E+04  0.00000000000E+00 0.  1.
<mgrwt>
<rscale>  0 0.28676409E+04</rscale>
<asrwt>0</asrwt>
<pdfrwt beam="1">  1        1 0.26971790E+00 0.28676409E+04</pdfrwt>
<pdfrwt beam="2">  1       -1 0.18040687E+00 0.28676409E+04</pdfrwt>
<totfact> 0.78010462E-01</totfact>
</mgrwt>
</event>
<event>
 6    1  0.1780144E-005  0.3328008E+04  0.7818608E-02  0.8155805E-01
          2   -1    0    0  501    0  0.00000000000E+00  0.00000000000E+00  0.18643208503E+04  0.18643208503E+04  0.00000000000E+00 0. -1.
         -2   -1    0    0    0  501 -0.00000000000E+00 -0.00000000000E+00 -0.14852103784E+04  0.14852103784E+04  0.00000000000E+00 0.  1.
         23    2    1    2    0    0 -0.88307292771E+03 -0.67176476458E+03 -0.10567701782E+04  0.15349131047E+04  0.90051844947E+02 0.  0.
         11    1    3    3    0    0 -0.71742373802E+03 -0.57556685837E+03 -0.83985335189E+03  0.12455230552E+04  0.00000000000E+00 0. -1.
        -11    1    3    3    0    0 -0.16564918970E+03 -0.96197906215E+02 -0.21691682630E+03  0.28939004948E+03  0.00000000000E+00 0.  1.
         22    1    1    2    0    0  0.88307292771E+03  0.67176476458E+03  0.14358806501E+04  0.18146181240E+04  0.00000000000E+00 0. -1.
<mgrwt>
<rscale>  0 0.33280076E+04</rscale>
<asrwt>0</asrwt>
<pdfrwt beam="1">  1        2 0.28681859E+00 0.33280076E+04</pdfrwt>
<pdfrwt beam="2">  1       -2 0.22849391E+00 0.33280076E+04</pdfrwt>
<totfact> 0.57874159E-01</totfact>
</mgrwt>
</event>
<event>
 6    1  0.2052053E-005  0.4011994E+04  0.7818608E-02  0.8002131E-01
          1   -1    0    0  501    0  0.00000000000E+00  0.00000000000E+00  0.29260998745E+04  0.29260998745E+04  0.00000000000E+00 0. -1.
         -1   -1    0    0    0  501 -0.00000000000E+00 -0.00000000000E+00 -0.13752176562E+04  0.13752176562E+04  0.00000000000E+00 0.  1.
         23    2    1    2    0    0  0.20681837051E+03 -0.71922829486E+03  0.27700407630E+04  0.28707893990E+04  0.90789682201E+02 0.  0.
         11    1    3    3    0    0  0.11084875716E+03 -0.35865753959E+03  0.15597132482E+04  0.16042531266E+04  0.00000000000E+00 0. -1.
        -11    1    3    3    0    0  0.95969613349E+02 -0.36057075526E+03  0.12103275148E+04  0.12665362724E+04  0.00000000000E+00 0.  1.
         22    1    1    2    0    0 -0.20681837051E+03  0.71922829486E+03 -0.12191585447E+04  0.14305281317E+04  0.00000000000E+00 0.  1.
<mgrwt>
<rscale>  0 0.40119941E+04</rscale>
<asrwt>0</asrwt>
<pdfrwt beam="1">  1        1 0.45016921E+00 0.40119941E+04</pdfrwt>
<pdfrwt beam="2">  1       -1 0.21157195E+00 0.40119941E+04</pdfrwt>
<totfact> 0.66319566E-02</totfact>
</mgrwt>
</event>
<event>
 6    1  0.1780144E-005  0.1352818E+04  0.7818608E-02  0.8988698E-01
          1   -1    0    0  501    0  0.00000000000E+00  0.00000000000E+00  0.34391893177E+03  0.34391893177E+03  0.00000000000E+00 0. -1.
         -1   -1    0    0    0  501 -0.00000000000E+00 -0.00000000000E+00 -0.13303391924E+04  0.13303391924E+04  0.00000000000E+00 0.  1.
         23    2    1    2    0    0 -0.40731448783E+03 -0.96066788533E+02  0.15935782525E+03  0.45444611328E+03  0.77410810297E+02 0.  0.
         13    1    3    3    0    0 -0.22637223777E+03 -0.14150857639E+02  0.78851120182E+02  0.24012941502E+03  0.00000000000E+00 0. -1.
        -13    1    3    3    0    0 -0.18094225006E+03 -0.81915930894E+02  0.80506705063E+02  0.21431669826E+03  0.00000000000E+00 0.  1.
         22    1    1    2    0    0  0.40731448783E+03  0.96066788533E+02 -0.11457780859E+04  0.12198120109E+04  0.00000000000E+00 0.  1.
<mgrwt>
<rscale>  0 0.13528176E+04</rscale>
<asrwt>0</asrwt>
<pdfrwt beam="1">  1        1 0.52910604E-01 0.13528176E+04</pdfrwt>
<pdfrwt beam="2">  1       -1 0.20466757E+00 0.13528176E+04</pdfrwt>
<totfact> 0.10026338E+01</totfact>
</mgrwt>
</event>
<event>
 6    1  0.1780144E-005  0.2491357E+04  0.7818608E-02  0.8406071E-01
          1   -1    0    0  501    0  0.00000000000E+00  0.00000000000E+00  0.30515691722E+04  0.30515691722E+04  0.00000000000E+00 0. -1.
         -1   -1    0    0    0  501 -0.00000000000E+00 -0.00000000000E+00 -0.50849747570E+03  0.50849747570E+03  0.00000000000E+00 0.  1.
         23    2    1    2    0    0  0.67374816685E+03 -0.59187445157E+03  0.25052946535E+04  0.26624703780E+04  0.89416183558E+02 0.  0.
         11    1    3    3    0    0  0.31084558199E+03 -0.27174404636E+03  0.12860236787E+04  0.13506763878E+04  0.00000000000E+00 0. -1.
        -11    1    3    3    0    0  0.36290258486E+03 -0.32013040520E+03  0.12192709749E+04  0.13117939902E+04  0.00000000000E+00 0.  1.
         22    1    1    2    0    0 -0.67374816685E+03  0.59187445157E+03  0.37777042944E+02  0.89759626989E+03  0.00000000000E+00 0.  1.
<mgrwt>
<rscale>  0 0.24913572E+04</rscale>
<asrwt>0</asrwt>
<pdfrwt beam="1">  1        1 0.46947217E+00 0.24913572E+04</pdfrwt>
<pdfrwt beam="2">  1       -1 0.78230382E-01 0.24913572E+04</pdfrwt>
<totfact> 0.79697113E-01</totfact>
</mgrwt>
</event>
<event>
 6    1  0.1780144E-005  0.1759455E+04  0.7818608E-02  0.8728163E-01
         -1   -1    0    0    0  501 -0.00000000000E+00  0.00000000000E+00  0.55723080585E+03  0.55723080585E+03  0.00000000000E+00 0.  1.
          1   -1    0    0  501    0  0.00000000000E+00 -0.00000000000E+00 -0.13888694792E+04  0.13888694792E+04  0.00000000000E+00 0. -1.
         23    2    1    2    0    0  0.84984008017E+03 -0.21731428154E+03 -0.43572904345E+03  0.98370842417E+03  0.91481176478E+02 0.  0.
         13    1    3    3    0    0  0.57682930790E+03 -0.18446803305E+03 -0.32468306727E+03  0.68715325790E+03  0.00000000000E+00 0. -1.
        -13    1    3    3    0    0  0.27301077227E+03 -0.32846248492E+02 -0.11104597618E+03  0.29655516627E+03  0.00000000000E+00 0.  1.
         22    1    1    2    0    0 -0.84984008017E+03  0.21731428154E+03 -0.39590962987E+03  0.96239186086E+03  0.00000000000E+00 0.  1.
<mgrwt>
<rscale>  0 0.17594554E+04</rscale>
<asrwt>0</asrwt>
<pdfrwt beam="1">  1        1 0.21367223E+00 0.17594554E+04</pdfrwt>
<pdfrwt beam="2">  1       -1 0.85727817E-01 0.17594554E+04</pdfrwt>
<totfact> 0.99546082E+00</totfact>
</mgrwt>
</event>
<event>
 6    1  0.1780144E-005  0.2252719E+04  0.7818608E-02  0.8496800E-01
          2   -1    0    0  501    0  0.00000000000E+00  0.00000000000E+00  0.21343335247E+04  0.21343335247E+04  0.00000000000E+00 0. -1.
         -2   -1    0    0    0  501 -0.00000000000E+00 -0.00000000000E+00 -0.59441770533E+03  0.59441770533E+03  0.00000000000E+00 0.  1.
         23    2    1    2    0    0  0.31536322315E+03 -0.86613628199E+02  0.20745465269E+04  0.21020249130E+04  0.88371712996E+02 0.  0.
         11    1    3    3    0    0  0.10122847774E+03 -0.36889126976E+02  0.95830074598E+03  0.96433828719E+03  0.00000000000E+00 0. -1.
        -11    1    3    3    0    0  0.21413474541E+03 -0.49724501223E+02  0.11162457809E+04  0.11376866258E+04  0.00000000000E+00 0.  1.
         22    1    1    2    0    0 -0.31536322315E+03  0.86613628199E+02 -0.53463070748E+03  0.62672631705E+03  0.00000000000E+00 0.  1.
<mgrwt>
<rscale>  0 0.22527189E+04</rscale>
<asrwt>0</asrwt>
<pdfrwt beam="1">  1        2 0.32835900E+00 0.22527189E+04</pdfrwt>
<pdfrwt beam="2">  1       -2 0.91448878E-01 0.22527189E+04</pdfrwt>
<totfact> 0.52100575E+00</totfact>
</mgrwt>
</event>
<event>
 6    1  0.1780144E-005  0.1363268E+04  0.7818608E-02  0.8980845E-01
          1   -1    0    0  501    0  0.00000000000E+00  0.00000000000E+00  0.12270064596E+04  0.12270064596E+04  0.00000000000E+00 0. -1.
         -1   -1    0    0    0  501 -0.00000000000E+00 -0.00000000000E+00 -0.37866537526E+03  0.37866537526E+03  0.00000000000E+00 0.  1.
         23    2    1    2    0    0 -0.29972559558E+03  0.60672672699E+03  0.47122915934E+03  0.83096791857E+03  0.10245978331E+03 0.  0.
         11    1    3    3    0    0 -0.15849721863E+03  0.39371537203E+03  0.33913630191E+03  0.54327395829E+03  0.00000000000E+00 0.  1.
        -11    1    3    3    0    0 -0.14122837695E+03  0.21301135496E+03  0.13209285743E+03  0.28769396029E+03  0.00000000000E+00 0. -1.
         22    1    1    2    0    0  0.29972559558E+03 -0.60672672699E+03  0.37711192496E+03  0.77470391624E+03  0.00000000000E+00 0.  1.
<mgrwt>
<rscale>  0 0.13632679E+04</rscale>
<asrwt>0</asrwt>
<pdfrwt beam="1">  1        1 0.18877022E+00 0.13632679E+04</pdfrwt>
<pdfrwt beam="2">  1       -1 0.58256212E-01 0.13632679E+04</pdfrwt>
<totfact> 0.29809310E+01</totfact>
</mgrwt>
</event>
<event>
 6    1  0.1780144E-005  0.3370144E+04  0.7818608E-02  0.8145273E-01
          2   -1    0    0  501    0  0.00000000000E+00  0.00000000000E+00  0.29447663533E+04  0.29447663533E+04  0.00000000000E+00 0. -1.
         -2   -1    0    0    0  501 -0.00000000000E+00 -0.00000000000E+00 -0.96424208653E+03  0.96424208653E+03  0.00000000000E+00 0.  1.
         23    2    1    2    0    0 -0.49866995879E+03  0.46473879546E+03  0.27768923714E+04  0.28607450979E+04  0.89874339346E+02 0.  0.
         11    1    3    3    0    0 -0.17922550458E+03  0.14972312210E+03  0.11270350347E+04  0.11509764395E+04  0.00000000000E+00 0. -1.
        -11    1    3    3    0    0 -0.31944445420E+03  0.31501567336E+03  0.16498573367E+04  0.17097686584E+04  0.00000000000E+00 0.  1.
         22    1    1    2    0    0  0.49866995879E+03 -0.46473879546E+03 -0.79636810469E+03  0.10482633419E+04  0.00000000000E+00 0.  1.
<mgrwt>
<rscale>  0 0.33701440E+04</rscale>
<asrwt>0</asrwt>
<pdfrwt beam="1">  1        2 0.45304097E+00 0.33701440E+04</pdfrwt>
<pdfrwt beam="2">  1       -2 0.14834494E+00 0.33701440E+04</pdfrwt>
<totfact> 0.48269832E-01</totfact>
</mgrwt>
</event>
<event>
 6    1  0.1780144E-005  0.1522719E+04  0.7818608E-02  0.8869484E-01
         -2   -1    0    0    0  501 -0.00000000000E+00  0.00000000000E+00  0.34370231284E+03  0.34370231284E+03  0.00000000000E+00 0.  1.
          2   -1    0    0  501    0  0.00000000000E+00 -0.00000000000E+00 -0.16865427843E+04  0.16865427843E+04  0.00000000000E+00 0. -1.
         23    2    1    2    0    0  0.42034594276E+02  0.73000677049E+03 -0.40502109247E+03  0.84105126111E+03  0.92996485870E+02 0.  0.
         13    1    3    3    0    0  0.46851670757E+02  0.46503052320E+03 -0.30335006885E+03  0.55719810735E+03  0.00000000000E+00 0.  1.
        -13    1    3    3    0    0 -0.48170764814E+01  0.26497624729E+03 -0.10167102362E+03  0.28385315376E+03  0.00000000000E+00 0. -1.
         22    1    1    2    0    0 -0.42034594276E+02 -0.73000677049E+03 -0.93781937903E+03  0.11891938361E+04  0.00000000000E+00 0. -1.
<mgrwt>
<rscale>  0 0.15227195E+04</rscale>
<asrwt>0</asrwt>
<pdfrwt beam="1">  1        2 0.25946812E+00 0.15227195E+04</pdfrwt>
<pdfrwt beam="2">  1       -2 0.52877279E-01 0.15227195E+04</pdfrwt>
<totfact> 0.32460349E+01</totfact>
</mgrwt>
</event>
<event>
 6    1  0.1780144E-005  0.1064757E+04  0.7818608E-02  0.9240239E-01
         -1   -1    0    0    0  501 -0.00000000000E+00  0.00000000000E+00  0.36622535445E+03  0.36622535445E+03  0.00000000000E+00 0.  1.
          1   -1    0    0  501    0  0.00000000000E+00 -0.00000000000E+00 -0.77391408983E+03  0.77391408983E+03  0.00000000000E+00 0. -1.
         23    2    1    2    0    0 -0.21812959725E+03 -0.34903341512E+03 -0.56007907768E+03  0.70124576411E+03  0.93017215450E+02 0.  0.
         13    1    3    3    0    0 -0.76476019278E+02 -0.20207500768E+03 -0.25567028697E+03  0.33473898173E+03  0.00000000000E+00 0. -1.
        -13    1    3    3    0    0 -0.14165357798E+03 -0.14695840743E+03 -0.30440879071E+03  0.36650678238E+03  0.00000000000E+00 0.  1.
         22    1    1    2    0    0  0.21812959725E+03  0.34903341512E+03  0.15239034230E+03  0.43889368017E+03  0.00000000000E+00 0.  1.
<mgrwt>
<rscale>  0 0.10647572E+04</rscale>
<asrwt>0</asrwt>
<pdfrwt beam="1">  1        1 0.11906371E+00 0.10647572E+04</pdfrwt>
<pdfrwt beam="2">  1       -1 0.56342362E-01 0.10647572E+04</pdfrwt>
<totfact> 0.74213455E+01</totfact>
</mgrwt>
</event>
<event>
 6    1  0.1780144E-005  0.2817982E+04  0.7818608E-02  0.8297707E-01
          1   -1    0    0  501    0  0.00000000000E+00  0.00000000000E+00  0.17551982276E+04  0.17551982276E+04  0.00000000000E+00 0. -1.
         -1   -1    0    0    0  501 -0.00000000000E+00 -0.00000000000E+00 -0.11310719187E+04  0.11310719187E+04  0.00000000000E+00 0.  1.
         23    2    1    2    0    0 -0.60656864588E+03  0.53997879652E+03 -0.86516125152E+03  0.11899564783E+04  0.89385716016E+02 0.  0.
         11    1    3    3    0    0 -0.46117822795E+03  0.45769677212E+03 -0.69859630264E+03  0.95404847215E+03  0.00000000000E+00 0. -1.
        -11    1    3    3    0    0 -0.14539041793E+03  0.82282024403E+02 -0.16656494888E+03  0.23590800614E+03  0.00000000000E+00 0.  1.
         22    1    1    2    0    0  0.60656864588E+03 -0.53997879652E+03  0.14892875604E+04  0.16963136681E+04  0.00000000000E+00 0. -1.
<mgrwt>
<rscale>  0 0.28179819E+04</rscale>
<asrwt>0</asrwt>
<pdfrwt beam="1">  1        1 0.27003050E+00 0.28179819E+04</pdfrwt>
<pdfrwt beam="2">  1       -1 0.17401106E+00 0.28179819E+04</pdfrwt>
<totfact> 0.86879451E-01</totfact>
</mgrwt>
</event>
<event>
 6    1  0.1780144E-005  0.4639725E+04  0.7818608E-02  0.7886622E-01
         -2   -1    0    0    0  501 -0.00000000000E+00  0.00000000000E+00  0.18173983642E+04  0.18173983642E+04  0.00000000000E+00 0. -1.
          2   -1    0    0  501    0  0.00000000000E+00 -0.00000000000E+00 -0.29612445131E+04  0.29612445131E+04  0.00000000000E+00 0.  1.
         23    2    1    2    0    0 -0.71438850810E+03 -0.64210574141E+03  0.16018679309E+04  0.18697605264E+04  0.85865210182E+02 0.  0.
         11    1    3    3    0    0 -0.63247628480E+03 -0.60197793121E+03  0.14523968663E+04  0.16946564070E+04  0.00000000000E+00 0. -1.
        -11    1    3    3    0    0 -0.81912223305E+02 -0.40127810199E+02  0.14947106461E+03  0.17510411941E+03  0.00000000000E+00 0.  1.
         22    1    1    2    0    0  0.71438850810E+03  0.64210574141E+03 -0.27457140797E+04  0.29088823509E+04  0.00000000000E+00 0.  1.
<mgrwt>
<rscale>  0 0.46397245E+04</rscale>
<asrwt>0</asrwt>
<pdfrwt beam="1">  1        2 0.45557607E+00 0.46397245E+04</pdfrwt>
<pdfrwt beam="2">  1       -2 0.27959975E+00 0.46397245E+04</pdfrwt>
<totfact> 0.58387842E-02</totfact>
</mgrwt>
</event>
<event>
 6    1  0.1780144E-005  0.5824140E+04  0.7818608E-02  0.7712597E-01
          2   -1    0    0  501    0  0.00000000000E+00  0.00000000000E+00  0.26032246148E+04  0.26032246148E+04  0.00000000000E+00 0. -1.
         -2   -1    0    0    0  501 -0.00000000000E+00 -0.00000000000E+00 -0.32575570687E+04  0.32575570687E+04  0.00000000000E+00 0.  1.
         23    2    1    2    0    0  0.72120571288E+03  0.27402658306E+04 -0.99962157331E+03  0.30062380985E+04  0.95024797925E+02 0.  0.
         11    1    3    3    0    0  0.17088976242E+03  0.77944559067E+03 -0.25287232979E+03  0.83706819010E+03  0.00000000000E+00 0.  1.
        -11    1    3    3    0    0  0.55031595047E+03  0.19608202399E+04 -0.74674924353E+03  0.21691699084E+04  0.00000000000E+00 0. -1.
         22    1    1    2    0    0 -0.72120571288E+03 -0.27402658306E+04  0.34528911945E+03  0.28545435850E+04  0.00000000000E+00 0.  1.
<mgrwt>
<rscale>  0 0.58241404E+04</rscale>
<asrwt>0</asrwt>
<pdfrwt beam="1">  1        2 0.40049610E+00 0.58241404E+04</pdfrwt>
<pdfrwt beam="2">  1       -2 0.50116262E+00 0.58241404E+04</pdfrwt>
<totfact> 0.33909733E-03</totfact>
</mgrwt>
</event>
<event>
 6    1  0.1780144E-005  0.2842679E+04  0.7818608E-02  0.8290139E-01
          1   -1    0    0  501    0  0.00000000000E+00  0.00000000000E+00  0.24361111631E+04  0.24361111631E+04  0.00000000000E+00 0. -1.
         -1   -1    0    0    0  501 -0.00000000000E+00 -0.00000000000E+00 -0.82927492432E+03  0.82927492432E+03  0.00000000000E+00 0.  1.
         23    2    1    2    0    0  0.91927642805E+03  0.91396297043E+03  0.13848847745E+03  0.13067021898E+04  0.88848703102E+02 0.  0.
         13    1    3    3    0    0  0.74935214445E+03  0.77185416752E+03  0.87026242515E+02  0.10792872922E+04  0.00000000000E+00 0.  1.
        -13    1    3    3    0    0  0.16992428360E+03  0.14210880291E+03  0.51462234937E+02  0.22741489759E+03  0.00000000000E+00 0. -1.
         22    1    1    2    0    0 -0.91927642805E+03 -0.91396297043E+03  0.14683477614E+04  0.19586838976E+04  0.00000000000E+00 0. -1.
<mgrwt>
<rscale>  0 0.28426789E+04</rscale>
<asrwt>0</asrwt>
<pdfrwt beam="1">  1        1 0.37478633E+00 0.28426789E+04</pdfrwt>
<pdfrwt beam="2">  1       -1 0.12758076E+00 0.28426789E+04</pdfrwt>
<totfact> 0.68775756E-01</totfact>
</mgrwt>
</event>
<event>
 6    1  0.1780144E-005  0.1609523E+04  0.7818608E-02  0.8814719E-01
         -2   -1    0    0    0  501 -0.00000000000E+00  0.00000000000E+00  0.10934970583E+04  0.10934970583E+04  0.00000000000E+00 0.  1.
          2   -1    0    0  501    0  0.00000000000E+00 -0.00000000000E+00 -0.59226560563E+03  0.59226560563E+03  0.00000000000E+00 0. -1.
         23    2    1    2    0    0  0.26025740408E+02 -0.35435177331E+03 -0.50191969426E+03  0.62154711152E+03  0.90304562169E+02 0.  0.
         13    1    3    3    0    0 -0.92828561564E+01 -0.30512132866E+03 -0.40324827182E+03  0.50576117422E+03  0.00000000000E+00 0. -1.
        -13    1    3    3    0    0  0.35308596565E+02 -0.49230444652E+02 -0.98671422439E+02  0.11578593731E+03  0.00000000000E+00 0.  1.
         22    1    1    2    0    0 -0.26025740408E+02  0.35435177331E+03  0.10031511469E+04  0.10642155524E+04  0.00000000000E+00 0.  1.
<mgrwt>
<rscale>  0 0.16095225E+04</rscale>
<asrwt>0</asrwt>
<pdfrwt beam="1">  1        2 0.91117786E-01 0.16095225E+04</pdfrwt>
<pdfrwt beam="2">  1       -2 0.16823032E+00 0.16095225E+04</pdfrwt>
<totfact> 0.10583831E+01</totfact>
</mgrwt>
</event>
<event>
 6    1  0.1780144E-005  0.2099532E+04  0.7818608E-02  0.8561449E-01
          1   -1    0    0  501    0  0.00000000000E+00  0.00000000000E+00  0.68256930806E+03  0.68256930806E+03  0.00000000000E+00 0. -1.
         -1   -1    0    0    0  501 -0.00000000000E+00 -0.00000000000E+00 -0.16145010693E+04  0.16145010693E+04  0.00000000000E+00 0.  1.
         23    2    1    2    0    0 -0.30062513274E+03 -0.77883652233E+03 -0.11594694543E+04  0.14317755139E+04  0.93004880269E+02 0.  0.
         11    1    3    3    0    0 -0.75924657807E+02 -0.11251456154E+03 -0.21539446690E+03  0.25459547638E+03  0.00000000000E+00 0.  1.
        -11    1    3    3    0    0 -0.22470047493E+03 -0.66632196079E+03 -0.94407498737E+03  0.11771800375E+04  0.00000000000E+00 0. -1.
         22    1    1    2    0    0  0.30062513274E+03  0.77883652233E+03  0.22753769307E+03  0.86529486345E+03  0.00000000000E+00 0. -1.
<mgrwt>
<rscale>  0 0.20995322E+04</rscale>
<asrwt>0</asrwt>
<pdfrwt beam="1">  1        1 0.10501066E+00 0.20995322E+04</pdfrwt>
<pdfrwt beam="2">  1       -1 0.24838478E+00 0.20995322E+04</pdfrwt>
<totfact> 0.18596636E+00</totfact>
</mgrwt>
</event>
<event>
 6    1  0.1780144E-005  0.1891844E+04  0.7818608E-02  0.8658927E-01
          1   -1    0    0  501    0  0.00000000000E+00  0.00000000000E+00  0.35349016345E+03  0.35349016345E+03  0.00000000000E+00 0. -1.
         -1   -1    0    0    0  501 -0.00000000000E+00 -0.00000000000E+00 -0.25312405259E+04  0.25312405259E+04  0.00000000000E+00 0.  1.
         23    2    1    2    0    0 -0.17793675001E+03  0.71883122055E+02 -0.25003396824E+04  0.25093741394E+04  0.91822512580E+02 0.  0.
         13    1    3    3    0    0 -0.15244628719E+03  0.22675931195E+02 -0.16293338789E+04  0.16366071482E+04  0.00000000000E+00 0.  1.
        -13    1    3    3    0    0 -0.25490462818E+02  0.49207190860E+02 -0.87100580343E+03  0.87276699121E+03  0.00000000000E+00 0. -1.
         22    1    1    2    0    0  0.17793675001E+03 -0.71883122055E+02  0.32258931995E+03  0.37535654995E+03  0.00000000000E+00 0. -1.
<mgrwt>
<rscale>  0 0.18918442E+04</rscale>
<asrwt>0</asrwt>
<pdfrwt beam="1">  1        1 0.54383103E-01 0.18918442E+04</pdfrwt>
<pdfrwt beam="2">  1       -1 0.38942161E+00 0.18918442E+04</pdfrwt>
<totfact> 0.56036474E-01</totfact>
</mgrwt>
</event>
<event>
 6    1  0.1780144E-005  0.5025563E+04  0.7818608E-02  0.7824576E-01
         -2   -1    0    0    0  501 -0.00000000000E+00  0.00000000000E+00  0.14563079555E+04  0.14563079555E+04  0.00000000000E+00 0.  1.
          2   -1    0    0  501    0  0.00000000000E+00 -0.00000000000E+00 -0.43356693755E+04  0.43356693755E+04  0.00000000000E+00 0. -1.
         23    2    1    2    0    0  0.14369117703E+04  0.16860695824E+04 -0.75406662432E+02  0.22185044608E+04  0.92356945358E+02 0.  0.
         13    1    3    3    0    0  0.90715896823E+03  0.11120156576E+04 -0.80384680472E+02  0.14373510056E+04  0.00000000000E+00 0.  1.
        -13    1    3    3    0    0  0.52975280207E+03  0.57405392483E+03  0.49780180404E+01  0.78115345520E+03  0.00000000000E+00 0. -1.
         22    1    1    2    0    0 -0.14369117703E+04 -0.16860695824E+04 -0.28039547576E+04  0.35734728703E+04  0.00000000000E+00 0.  1.
<mgrwt>
<rscale>  0 0.50255626E+04</rscale>
<asrwt>0</asrwt>
<pdfrwt beam="1">  1        2 0.66702606E+00 0.50255626E+04</pdfrwt>
<pdfrwt beam="2">  1       -2 0.22404738E+00 0.50255626E+04</pdfrwt>
<totfact> 0.11826178E-02</totfact>
</mgrwt>
</event>
<event>
 6    1  0.1780144E-005  0.1637926E+04  0.7818608E-02  0.8797581E-01
         -2   -1    0    0    0  501 -0.00000000000E+00  0.00000000000E+00  0.55728072776E+03  0.55728072776E+03  0.00000000000E+00 0.  1.
          2   -1    0    0  501    0  0.00000000000E+00 -0.00000000000E+00 -0.12035235194E+04  0.12035235194E+04  0.00000000000E+00 0. -1.
         23    2    1    2    0    0  0.79137904760E+03  0.16441444594E+03 -0.44787681579E+03  0.92854108721E+03  0.91005502627E+02 0.  0.
         13    1    3    3    0    0  0.68037581613E+02  0.73169337544E+01 -0.68317660091E+02  0.96695153506E+02  0.00000000000E+00 0. -1.
        -13    1    3    3    0    0  0.72334146599E+03  0.15709751218E+03 -0.37955915570E+03  0.83184593371E+03  0.00000000000E+00 0.  1.
         22    1    1    2    0    0 -0.79137904760E+03 -0.16441444594E+03 -0.19836597583E+03  0.83226315993E+03  0.00000000000E+00 0.  1.
<mgrwt>
<rscale>  0 0.16379261E+04</rscale>
<asrwt>0</asrwt>
<pdfrwt beam="1">  1        2 0.18515746E+00 0.16379261E+04</pdfrwt>
<pdfrwt beam="2">  1       -2 0.85735497E-01 0.16379261E+04</pdfrwt>
<totfact> 0.21295895E+01</totfact>
</mgrwt>
</event>
<event>
 6    1  0.1780144E-005  0.3188537E+04  0.7818608E-02  0.8191851E-01
          2   -1    0    0  501    0  0.00000000000E+00  0.00000000000E+00  0.24693264614E+04  0.24693264614E+04  0.00000000000E+00 0.  1.
         -2   -1    0    0    0  501 -0.00000000000E+00 -0.00000000000E+00 -0.10293057872E+04  0.10293057872E+04  0.00000000000E+00 0. -1.
         23    2    1    2    0    0  0.83919894364E+03  0.13248028570E+04  0.41520021116E+03  0.16252357453E+04  0.98196413007E+02 0.  0.
         11    1    3    3    0    0  0.62426821453E+03  0.98022968346E+03  0.26286855548E+03  0.11914952427E+04  0.00000000000E+00 0.  1.
        -11    1    3    3    0    0  0.21493072911E+03  0.34457317356E+03  0.15233165568E+03  0.43374050257E+03  0.00000000000E+00 0. -1.
         22    1    1    2    0    0 -0.83919894364E+03 -0.13248028570E+04  0.10248204631E+04  0.18733965033E+04  0.00000000000E+00 0.  1.
<mgrwt>
<rscale>  0 0.31885370E+04</rscale>
<asrwt>0</asrwt>
<pdfrwt beam="1">  1        2 0.37989638E+00 0.31885370E+04</pdfrwt>
<pdfrwt beam="2">  1       -2 0.15835474E+00 0.31885370E+04</pdfrwt>
<totfact> 0.79174988E-01</totfact>
</mgrwt>
</event>
<event>
 6    1  0.1780144E-005  0.2487853E+04  0.7818608E-02  0.8407326E-01
         -2   -1    0    0    0  501 -0.00000000000E+00  0.00000000000E+00  0.15938922190E+04  0.15938922190E+04  0.00000000000E+00 0.  1.
          2   -1    0    0  501    0  0.00000000000E+00 -0.00000000000E+00 -0.97080137942E+03  0.97080137942E+03  0.00000000000E+00 0. -1.
         23    2    1    2    0    0  0.81975302730E+03 -0.52120308512E+03  0.11101986947E+04  0.14779913649E+04  0.90937622502E+02 0.  0.
         13    1    3    3    0    0  0.33867733249E+03 -0.16293801386E+03  0.43008821592E+03  0.57116285364E+03  0.00000000000E+00 0. -1.
        -13    1    3    3    0    0  0.48107569482E+03 -0.35826507126E+03  0.68011047883E+03  0.90682851126E+03  0.00000000000E+00 0.  1.
         22    1    1    2    0    0 -0.81975302730E+03  0.52120308512E+03 -0.48710785519E+03  0.10867022335E+04  0.00000000000E+00 0. -1.
<mgrwt>
<rscale>  0 0.24878527E+04</rscale>
<asrwt>0</asrwt>
<pdfrwt beam="1">  1        2 0.14935406E+00 0.24878527E+04</pdfrwt>
<pdfrwt beam="2">  1       -2 0.24521419E+00 0.24878527E+04</pdfrwt>
<totfact> 0.16152810E+00</totfact>
</mgrwt>
</event>
<event>
 6    1  0.1780144E-005  0.3222401E+04  0.7818608E-02  0.8182926E-01
          2   -1    0    0  501    0  0.00000000000E+00  0.00000000000E+00  0.22401052313E+04  0.22401052313E+04  0.00000000000E+00 0. -1.
         -2   -1    0    0    0  501 -0.00000000000E+00 -0.00000000000E+00 -0.11588595536E+04  0.11588595536E+04  0.00000000000E+00 0.  1.
         23    2    1    2    0    0  0.65265049766E+03  0.13953045349E+04  0.10347075962E+04  0.18578634870E+04  0.90606343421E+02 0.  0.
         13    1    3    3    0    0  0.81802739612E+02  0.18858100452E+03  0.10282720217E+03  0.22984324436E+03  0.00000000000E+00 0.  1.
        -13    1    3    3    0    0  0.57084775805E+03  0.12067235304E+04  0.93188039400E+03  0.16280202426E+04  0.00000000000E+00 0. -1.
         22    1    1    2    0    0 -0.65265049766E+03 -0.13953045349E+04  0.46538081490E+02  0.15411012979E+04  0.00000000000E+00 0. -1.
<mgrwt>
<rscale>  0 0.32224012E+04</rscale>
<asrwt>0</asrwt>
<pdfrwt beam="1">  1        2 0.34463157E+00 0.32224012E+04</pdfrwt>
<pdfrwt beam="2">  1       -2 0.17828609E+00 0.32224012E+04</pdfrwt>
<totfact> 0.76778906E-01</totfact>
</mgrwt>
</event>
<event>
 6    1  0.1780144E-005  0.3715224E+04  0.7818608E-02  0.8064596E-01
         -1   -1    0    0    0  501 -0.00000000000E+00  0.00000000000E+00  0.15122944062E+04  0.15122944062E+04  0.00000000000E+00 0.  1.
          1   -1    0    0  501    0  0.00000000000E+00 -0.00000000000E+00 -0.22817789559E+04  0.22817789559E+04  0.00000000000E+00 0. -1.
         23    2    1    2    0    0 -0.99722613696E+03 -0.49297280595E+03 -0.19028112077E+04  0.22060206333E+04  0.91402333285E+02 0.  0.
         13    1    3    3    0    0 -0.36487730510E+03 -0.22843907028E+03 -0.71225432791E+03  0.83224160208E+03  0.00000000000E+00 0.  1.
        -13    1    3    3    0    0 -0.63234883187E+03 -0.26453373567E+03 -0.11905568798E+04  0.13737790312E+04  0.00000000000E+00 0. -1.
         22    1    1    2    0    0  0.99722613696E+03  0.49297280595E+03  0.11333266581E+04  0.15880527288E+04  0.00000000000E+00 0.  1.
<mgrwt>
<rscale>  0 0.37152236E+04</rscale>
<asrwt>0</asrwt>
<pdfrwt beam="1">  1        1 0.35104291E+00 0.37152236E+04</pdfrwt>
<pdfrwt beam="2">  1       -1 0.23266068E+00 0.37152236E+04</pdfrwt>
<totfact> 0.13912067E-01</totfact>
</mgrwt>
</event>
<event>
 6    1  0.1780144E-005  0.2308997E+04  0.7818608E-02  0.8474382E-01
         -2   -1    0    0    0  501 -0.00000000000E+00  0.00000000000E+00  0.10598422745E+04  0.10598422745E+04  0.00000000000E+00 0.  1.
          2   -1    0    0  501    0  0.00000000000E+00 -0.00000000000E+00 -0.12576083712E+04  0.12576083712E+04  0.00000000000E+00 0. -1.
         23    2    1    2    0    0 -0.10726369070E+03 -0.11140620577E+04  0.17786401944E+03  0.11368839377E+04  0.90717752563E+02 0.  0.
         11    1    3    3    0    0 -0.62153124628E+02 -0.29084493664E+03  0.68622692319E+02  0.30522591956E+03  0.00000000000E+00 0. -1.
        -11    1    3    3    0    0 -0.45110566074E+02 -0.82321712110E+03  0.10924132712E+03  0.83165801818E+03  0.00000000000E+00 0.  1.
         22    1    1    2    0    0  0.10726369070E+03  0.11140620577E+04 -0.37563011608E+03  0.11805667080E+04  0.00000000000E+00 0. -1.
<mgrwt>
<rscale>  0 0.23089968E+04</rscale>
<asrwt>0</asrwt>
<pdfrwt beam="1">  1        2 0.19347821E+00 0.23089968E+04</pdfrwt>
<pdfrwt beam="2">  1       -2 0.16305266E+00 0.23089968E+04</pdfrwt>
<totfact> 0.37938918E+00</totfact>
</mgrwt>
</event>
<event>
 6    1  0.1780144E-005  0.1564415E+04  0.7818608E-02  0.8842712E-01
          1   -1    0    0  501    0  0.00000000000E+00  0.00000000000E+00  0.16886794571E+04  0.16886794571E+04  0.00000000000E+00 0. -1.
         -1   -1    0    0    0  501 -0.00000000000E+00 -0.00000000000E+00 -0.36232367774E+03  0.36232367774E+03  0.00000000000E+00 0.  1.
         23    2    1    2    0    0 -0.37360351419E+03 -0.36856010737E+03  0.14213912622E+04  0.15176665793E+04  0.86848068770E+02 0.  0.
         11    1    3    3    0    0 -0.25500331175E+03 -0.28662669223E+03  0.11126137425E+04  0.11768988443E+04  0.00000000000E+00 0. -1.
        -11    1    3    3    0    0 -0.11860020244E+03 -0.81933415145E+02  0.30877751968E+03  0.34076773497E+03  0.00000000000E+00 0.  1.
         22    1    1    2    0    0  0.37360351419E+03  0.36856010737E+03 -0.95035482798E+02  0.53333655561E+03  0.00000000000E+00 0. -1.
<mgrwt>
<rscale>  0 0.15644150E+04</rscale>
<asrwt>0</asrwt>
<pdfrwt beam="1">  1        1 0.25979683E+00 0.15644150E+04</pdfrwt>
<pdfrwt beam="2">  1       -1 0.55742105E-01 0.15644150E+04</pdfrwt>
<totfact> 0.15197576E+01</totfact>
</mgrwt>
</event>
<event>
 6    1  0.1780144E-005  0.8034676E+03  0.7818608E-02  0.9555011E-01
          1   -1    0    0  501    0  0.00000000000E+00  0.00000000000E+00  0.62450857642E+03  0.62450857642E+03  0.00000000000E+00 0. -1.
         -1   -1    0    0    0  501 -0.00000000000E+00 -0.00000000000E+00 -0.25842729654E+03  0.25842729654E+03  0.00000000000E+00 0.  1.
         23    2    1    2    0    0 -0.26972245313E+03 -0.22161975487E+03 -0.21065994799E+02  0.36164082238E+03  0.92058627008E+02 0.  0.
         13    1    3    3    0    0 -0.26386974473E+03 -0.19007723806E+03 -0.34157945168E+02  0.32699138189E+03  0.00000000000E+00 0. -1.
        -13    1    3    3    0    0 -0.58527084063E+01 -0.31542516809E+02  0.13091950369E+02  0.34649440498E+02  0.00000000000E+00 0.  1.
         22    1    1    2    0    0  0.26972245313E+03  0.22161975487E+03  0.38714727468E+03  0.52129505058E+03  0.00000000000E+00 0. -1.
<mgrwt>
<rscale>  0 0.80346764E+03</rscale>
<asrwt>0</asrwt>
<pdfrwt beam="1">  1        1 0.96078242E-01 0.80346764E+03</pdfrwt>
<pdfrwt beam="2">  1       -1 0.39758046E-01 0.80346764E+03</pdfrwt>
<totfact> 0.20107079E+02</totfact>
</mgrwt>
</event>
<event>
 6    1  0.1780144E-005  0.2451497E+04  0.7818608E-02  0.8420472E-01
         -1   -1    0    0    0  501 -0.00000000000E+00  0.00000000000E+00  0.67362697525E+03  0.67362697525E+03  0.00000000000E+00 0.  1.
          1   -1    0    0  501    0  0.00000000000E+00 -0.00000000000E+00 -0.22304023658E+04  0.22304023658E+04  0.00000000000E+00 0. -1.
         23    2    1    2    0    0 -0.10653808402E+04 -0.20015049668E+03 -0.10520938158E+03  0.10923614812E+04  0.84190473359E+02 0.  0.
         13    1    3    3    0    0 -0.25090955521E+03 -0.55579084413E+02 -0.60124425388E+02  0.26393102517E+03  0.00000000000E+00 0.  1.
        -13    1    3    3    0    0 -0.81447128495E+03 -0.14457141227E+03 -0.45084956195E+02  0.82843045606E+03  0.00000000000E+00 0. -1.
         22    1    1    2    0    0  0.10653808402E+04  0.20015049668E+03 -0.14515660090E+04  0.18116678598E+04  0.00000000000E+00 0.  1.
<mgrwt>
<rscale>  0 0.24514968E+04</rscale>
<asrwt>0</asrwt>
<pdfrwt beam="1">  1        1 0.34313883E+00 0.24514968E+04</pdfrwt>
<pdfrwt beam="2">  1       -1 0.10363492E+00 0.24514968E+04</pdfrwt>
<totfact> 0.16258037E+00</totfact>
</mgrwt>
</event>
<event>
 6    1  0.1780144E-005  0.2246667E+04  0.7818608E-02  0.8499252E-01
         -3   -1    0    0    0  501 -0.00000000000E+00  0.00000000000E+00  0.15094859214E+04  0.15094859214E+04  0.00000000000E+00 0.  1.
          3   -1    0    0  501    0  0.00000000000E+00 -0.00000000000E+00 -0.83596544783E+03  0.83596544783E+03  0.00000000000E+00 0. -1.
         23    2    1    2    0    0 -0.70571759357E+03 -0.61465096936E+03 -0.30774206361E+03  0.98946121332E+03  0.92169295011E+02 0.  0.
         11    1    3    3    0    0 -0.72380765205E+02 -0.88760228241E+02 -0.13864998116E+02  0.11536720271E+03  0.00000000000E+00 0. -1.
        -11    1    3    3    0    0 -0.63333682837E+03 -0.52589074112E+03 -0.29387706549E+03  0.87409401061E+03  0.00000000000E+00 0.  1.
         22    1    1    2    0    0  0.70571759357E+03  0.61465096936E+03  0.98126253715E+03  0.13559901559E+04  0.00000000000E+00 0.  1.
<mgrwt>
<rscale>  0 0.22466669E+04</rscale>
<asrwt>0</asrwt>
<pdfrwt beam="1">  1        3 0.12861007E+00 0.22466669E+04</pdfrwt>
<pdfrwt beam="2">  1       -3 0.23222860E+00 0.22466669E+04</pdfrwt>
<totfact> 0.10550270E-01</totfact>
</mgrwt>
</event>
<event>
 6    1  0.1780144E-005  0.1215365E+04  0.7818608E-02  0.9099513E-01
          2   -1    0    0  501    0  0.00000000000E+00  0.00000000000E+00  0.19157933769E+04  0.19157933769E+04  0.00000000000E+00 0. -1.
         -2   -1    0    0    0  501 -0.00000000000E+00 -0.00000000000E+00 -0.19275454606E+03  0.19275454606E+03  0.00000000000E+00 0.  1.
         23    2    1    2    0    0 -0.47612204123E+03 -0.31383745549E+03  0.12127021137E+04  0.13432834514E+04  0.92616777856E+02 0.  0.
         11    1    3    3    0    0 -0.22906896613E+03 -0.19832167087E+03  0.58216348233E+03  0.65629139606E+03  0.00000000000E+00 0. -1.
        -11    1    3    3    0    0 -0.24705307509E+03 -0.11551578462E+03  0.63053863139E+03  0.68699205533E+03  0.00000000000E+00 0.  1.
         22    1    1    2    0    0  0.47612204123E+03  0.31383745549E+03  0.51033671711E+03  0.76526447156E+03  0.00000000000E+00 0.  1.
<mgrwt>
<rscale>  0 0.12153648E+04</rscale>
<asrwt>0</asrwt>
<pdfrwt beam="1">  1        2 0.29473743E+00 0.12153648E+04</pdfrwt>
<pdfrwt beam="2">  1       -2 0.29654547E-01 0.12153648E+04</pdfrwt>
<totfact> 0.76925745E+01</totfact>
</mgrwt>
</event>
<event>
 6    1  0.1780144E-005  0.1679743E+04  0.7818608E-02  0.8773002E-01
          1   -1    0    0  501    0  0.00000000000E+00  0.00000000000E+00  0.24502393696E+04  0.24502393696E+04  0.00000000000E+00 0. -1.
         -1   -1    0    0    0  501 -0.00000000000E+00 -0.00000000000E+00 -0.28788390076E+03  0.28788390076E+03  0.00000000000E+00 0.  1.
         23    2    1    2    0    0  0.63512632632E+02 -0.19763609712E+03  0.24067668825E+04  0.24174508199E+04  0.91911688246E+02 0.  0.
         13    1    3    3    0    0  0.30198790930E+02 -0.17012995747E+03  0.15512021472E+04  0.15607960375E+04  0.00000000000E+00 0.  1.
        -13    1    3    3    0    0  0.33313841702E+02 -0.27506139647E+02  0.85556473532E+03  0.85665478233E+03  0.00000000000E+00 0. -1.
         22    1    1    2    0    0 -0.63512632632E+02  0.19763609712E+03 -0.24441141365E+03  0.32067245050E+03  0.00000000000E+00 0.  1.
<mgrwt>
<rscale>  0 0.16797434E+04</rscale>
<asrwt>0</asrwt>
<pdfrwt beam="1">  1        1 0.37695989E+00 0.16797434E+04</pdfrwt>
<pdfrwt beam="2">  1       -1 0.44289833E-01 0.16797434E+04</pdfrwt>
<totfact> 0.70637834E+00</totfact>
</mgrwt>
</event>
<event>
 6    1  0.1780144E-005  0.2554051E+04  0.7818608E-02  0.8383979E-01
          2   -1    0    0  501    0  0.00000000000E+00  0.00000000000E+00  0.11571236308E+04  0.11571236308E+04  0.00000000000E+00 0. -1.
         -2   -1    0    0    0  501 -0.00000000000E+00 -0.00000000000E+00 -0.14093517942E+04  0.14093517942E+04  0.00000000000E+00 0.  1.
         23    2    1    2    0    0  0.98117832540E+02  0.12681783310E+04 -0.22045579281E+03  0.12941103548E+04  0.90650236656E+02 0.  0.
         13    1    3    3    0    0  0.24064043750E+02  0.69596299370E+02 -0.29080163771E+01  0.73696537550E+02  0.00000000000E+00 0.  1.
        -13    1    3    3    0    0  0.74053788791E+02  0.11985820317E+04 -0.21754777644E+03  0.12204138172E+04  0.00000000000E+00 0. -1.
         22    1    1    2    0    0 -0.98117832540E+02 -0.12681783310E+04 -0.31772370671E+02  0.12723650702E+04  0.00000000000E+00 0.  1.
<mgrwt>
<rscale>  0 0.25540511E+04</rscale>
<asrwt>0</asrwt>
<pdfrwt beam="1">  1        2 0.17801902E+00 0.25540511E+04</pdfrwt>
<pdfrwt beam="2">  1       -2 0.21682335E+00 0.25540511E+04</pdfrwt>
<totfact> 0.18478747E+00</totfact>
</mgrwt>
</event>
<event>
 6    1  0.1780144E-005  0.1475979E+04  0.7818608E-02  0.8900586E-01
          2   -1    0    0  501    0  0.00000000000E+00  0.00000000000E+00  0.26695461815E+04  0.26695461815E+04  0.00000000000E+00 0. -1.
         -2   -1    0    0    0  501 -0.00000000000E+00 -0.00000000000E+00 -0.20401534925E+03  0.20401534925E+03  0.00000000000E+00 0.  1.
         23    2    1    2    0    0 -0.50132442973E+03  0.53590375146E+03  0.13197822982E+04  0.15129518446E+04  0.93160908274E+02 0.  0.
         11    1    3    3    0    0 -0.85920748730E+02  0.46894664259E+02  0.16267901279E+03  0.18985769882E+03  0.00000000000E+00 0. -1.
        -11    1    3    3    0    0 -0.41540368100E+03  0.48900908720E+03  0.11571032854E+04  0.13230941458E+04  0.00000000000E+00 0.  1.
         22    1    1    2    0    0  0.50132442973E+03 -0.53590375146E+03  0.11457485341E+04  0.13606096861E+04  0.00000000000E+00 0. -1.
<mgrwt>
<rscale>  0 0.14759789E+04</rscale>
<asrwt>0</asrwt>
<pdfrwt beam="1">  1        2 0.41069939E+00 0.14759789E+04</pdfrwt>
<pdfrwt beam="2">  1       -2 0.31386979E-01 0.14759789E+04</pdfrwt>
<totfact> 0.25357467E+01</totfact>
</mgrwt>
</event>
<event>
 6    1  0.1780144E-005  0.5457992E+03  0.7818608E-02  0.1002471E+00
          1   -1    0    0  501    0  0.00000000000E+00  0.00000000000E+00  0.13285060125E+04  0.13285060125E+04  0.00000000000E+00 0. -1.
         -1   -1    0    0    0  501 -0.00000000000E+00 -0.00000000000E+00 -0.56058610582E+02  0.56058610582E+02  0.00000000000E+00 0.  1.
         23    2    1    2    0    0 -0.51209868416E+02 -0.49200284925E+02  0.13024063734E+04  0.13074889549E+04  0.90674620859E+02 0.  0.
         11    1    3    3    0    0 -0.42767891741E+02  0.13743631488E+02  0.76980985439E+03  0.77111944074E+03  0.00000000000E+00 0. -1.
        -11    1    3    3    0    0 -0.84419766751E+01 -0.62943916413E+02  0.53259651905E+03  0.53636951413E+03  0.00000000000E+00 0.  1.
         22    1    1    2    0    0  0.51209868416E+02  0.49200284925E+02 -0.29958971504E+02  0.77075668232E+02  0.00000000000E+00 0.  1.
<mgrwt>
<rscale>  0 0.54579923E+03</rscale>
<asrwt>0</asrwt>
<pdfrwt beam="1">  1        1 0.20438552E+00 0.54579923E+03</pdfrwt>
<pdfrwt beam="2">  1       -1 0.86244026E-02 0.54579923E+03</pdfrwt>
<totfact> 0.70406952E+02</totfact>
</mgrwt>
</event>
<event>
 6    1  0.1780144E-005  0.5344200E+04  0.7818608E-02  0.7777499E-01
         -2   -1    0    0    0  501 -0.00000000000E+00  0.00000000000E+00  0.42899984861E+04  0.42899984861E+04  0.00000000000E+00 0.  1.
          2   -1    0    0  501    0  0.00000000000E+00 -0.00000000000E+00 -0.16643639467E+04  0.16643639467E+04  0.00000000000E+00 0. -1.
         23    2    1    2    0    0 -0.43195060619E+03  0.25131195084E+04  0.22002146940E+04  0.33691481217E+04  0.88675680877E+02 0.  0.
         13    1    3    3    0    0 -0.26793629191E+03  0.17916149103E+04  0.15515478168E+04  0.23851571167E+04  0.00000000000E+00 0. -1.
        -13    1    3    3    0    0 -0.16401431429E+03  0.72150459810E+03  0.64866687722E+03  0.98399100502E+03  0.00000000000E+00 0.  1.
         22    1    1    2    0    0  0.43195060619E+03 -0.25131195084E+04  0.42541984526E+03  0.25852143111E+04  0.00000000000E+00 0.  1.
<mgrwt>
<rscale>  0 0.53442002E+04</rscale>
<asrwt>0</asrwt>
<pdfrwt beam="1">  1        2 0.25605599E+00 0.53442002E+04</pdfrwt>
<pdfrwt beam="2">  1       -2 0.65999976E+00 0.53442002E+04</pdfrwt>
<totfact> 0.22945127E-03</totfact>
</mgrwt>
</event>
<event>
 6    1  0.1780144E-005  0.4254974E+04  0.7818608E-02  0.7954997E-01
          2   -1    0    0  501    0  0.00000000000E+00  0.00000000000E+00  0.39196332140E+04  0.39196332140E+04  0.00000000000E+00 0. -1.
         -2   -1    0    0    0  501 -0.00000000000E+00 -0.00000000000E+00 -0.11547509601E+04  0.11547509601E+04  0.00000000000E+00 0.  1.
         23    2    1    2    0    0 -0.15209084052E+04 -0.13470057040E+04  0.63401362392E+03  0.21302055345E+04  0.90639947916E+02 0.  0.
         13    1    3    3    0    0 -0.15936320948E+03 -0.16759754470E+03  0.50514751196E+02  0.23672200914E+03  0.00000000000E+00 0.  1.
        -13    1    3    3    0    0 -0.13615451957E+04 -0.11794081593E+04  0.58349887272E+03  0.18934835253E+04  0.00000000000E+00 0. -1.
         22    1    1    2    0    0  0.15209084052E+04  0.13470057040E+04  0.21308686300E+04  0.29441786396E+04  0.00000000000E+00 0. -1.
<mgrwt>
<rscale>  0 0.42549737E+04</rscale>
<asrwt>0</asrwt>
<pdfrwt beam="1">  1        2 0.60302049E+00 0.42549737E+04</pdfrwt>
<pdfrwt beam="2">  1       -2 0.17765400E+00 0.42549737E+04</pdfrwt>
<totfact> 0.57511096E-02</totfact>
</mgrwt>
</event>
<event>
 6    1  0.1780144E-005  0.1661043E+04  0.7818608E-02  0.8783901E-01
          2   -1    0    0  501    0  0.00000000000E+00  0.00000000000E+00  0.14413686030E+04  0.14413686030E+04  0.00000000000E+00 0. -1.
         -2   -1    0    0    0  501 -0.00000000000E+00 -0.00000000000E+00 -0.47854905103E+03  0.47854905103E+03  0.00000000000E+00 0.  1.
         23    2    1    2    0    0  0.36480772415E+03 -0.18196962675E+03 -0.34992496014E+03  0.54532834274E+03  0.93476751159E+02 0.  0.
         13    1    3    3    0    0  0.18268906568E+03 -0.13659567381E+03 -0.22115253126E+03  0.31771388843E+03  0.00000000000E+00 0. -1.
        -13    1    3    3    0    0  0.18211865848E+03 -0.45373952948E+02 -0.12877242888E+03  0.22761445431E+03  0.00000000000E+00 0.  1.
         22    1    1    2    0    0 -0.36480772415E+03  0.18196962675E+03  0.13127445121E+04  0.13745893113E+04  0.00000000000E+00 0. -1.
<mgrwt>
<rscale>  0 0.16610425E+04</rscale>
<asrwt>0</asrwt>
<pdfrwt beam="1">  1        2 0.22174901E+00 0.16610425E+04</pdfrwt>
<pdfrwt beam="2">  1       -2 0.73622932E-01 0.16610425E+04</pdfrwt>
<totfact> 0.21760722E+01</totfact>
</mgrwt>
</event>
<event>
 6    1  0.1780144E-005  0.1831351E+04  0.7818608E-02  0.8689803E-01
         -1   -1    0    0    0  501 -0.00000000000E+00  0.00000000000E+00  0.40563662345E+03  0.40563662345E+03  0.00000000000E+00 0.  1.
          1   -1    0    0  501    0  0.00000000000E+00 -0.00000000000E+00 -0.20670274621E+04  0.20670274621E+04  0.00000000000E+00 0. -1.
         23    2    1    2    0    0  0.25330910685E+03 -0.62978892126E+02 -0.20146185583E+04  0.20334583634E+04  0.90183900993E+02 0.  0.
         13    1    3    3    0    0  0.25913813698E+02 -0.96170243611E+01 -0.51667575120E+03  0.51741457727E+03  0.00000000000E+00 0. -1.
        -13    1    3    3    0    0  0.22739529315E+03 -0.53361867765E+02 -0.14979428071E+04  0.15160437862E+04  0.00000000000E+00 0.  1.
         22    1    1    2    0    0 -0.25330910685E+03  0.62978892126E+02  0.35322771961E+03  0.43920572215E+03  0.00000000000E+00 0.  1.
<mgrwt>
<rscale>  0 0.18313515E+04</rscale>
<asrwt>0</asrwt>
<pdfrwt beam="1">  1        1 0.31800422E+00 0.18313515E+04</pdfrwt>
<pdfrwt beam="2">  1       -1 0.62405635E-01 0.18313515E+04</pdfrwt>
<totfact> 0.65780378E+00</totfact>
</mgrwt>
</event>
<event>
 6    1  0.1780144E-005  0.9029761E+03  0.7818608E-02  0.9421869E-01
          2   -1    0    0  501    0  0.00000000000E+00  0.00000000000E+00  0.32178768981E+03  0.32178768981E+03  0.00000000000E+00 0. -1.
         -2   -1    0    0    0  501 -0.00000000000E+00 -0.00000000000E+00 -0.63346561809E+03  0.63346561809E+03  0.00000000000E+00 0.  1.
         23    2    1    2    0    0 -0.32247039022E+03 -0.18125533759E+03  0.10586140081E+03  0.39741843869E+03  0.99469237764E+02 0.  0.
         13    1    3    3    0    0 -0.17444846951E+03 -0.59088883559E+02  0.14205569222E+02  0.18473105551E+03  0.00000000000E+00 0.  1.
        -13    1    3    3    0    0 -0.14802192071E+03 -0.12216645403E+03  0.91655831583E+02  0.21268738318E+03  0.00000000000E+00 0. -1.
         22    1    1    2    0    0  0.32247039022E+03  0.18125533759E+03 -0.41753932909E+03  0.55783486921E+03  0.00000000000E+00 0.  1.
<mgrwt>
<rscale>  0 0.90297605E+03</rscale>
<asrwt>0</asrwt>
<pdfrwt beam="1">  1        2 0.49505799E-01 0.90297605E+03</pdfrwt>
<pdfrwt beam="2">  1       -2 0.97456248E-01 0.90297605E+03</pdfrwt>
<totfact> 0.89416931E+01</totfact>
</mgrwt>
</event>
<event>
 6    1  0.1780144E-005  0.2190385E+04  0.7818608E-02  0.8522441E-01
          1   -1    0    0  501    0  0.00000000000E+00  0.00000000000E+00  0.10749445814E+04  0.10749445814E+04  0.00000000000E+00 0. -1.
         -1   -1    0    0    0  501 -0.00000000000E+00 -0.00000000000E+00 -0.11158218442E+04  0.11158218442E+04  0.00000000000E+00 0.  1.
         23    2    1    2    0    0 -0.20504763188E+03 -0.69254233167E+03  0.80033455993E+03  0.10820298729E+04  0.92702889051E+02 0.  0.
         11    1    3    3    0    0 -0.30644967978E+02 -0.58399166149E+02  0.41839433891E+02  0.78103232312E+02  0.00000000000E+00 0. -1.
        -11    1    3    3    0    0 -0.17440266390E+03 -0.63414316552E+03  0.75849512604E+03  0.10039266406E+04  0.00000000000E+00 0.  1.
         22    1    1    2    0    0  0.20504763188E+03  0.69254233167E+03 -0.84121182275E+03  0.11087365527E+04  0.00000000000E+00 0.  1.
<mgrwt>
<rscale>  0 0.21903850E+04</rscale>
<asrwt>0</asrwt>
<pdfrwt beam="1">  1        1 0.16537609E+00 0.21903850E+04</pdfrwt>
<pdfrwt beam="2">  1       -1 0.17166490E+00 0.21903850E+04</pdfrwt>
<totfact> 0.28914818E+00</totfact>
</mgrwt>
</event>
<event>
 6    1  0.1780144E-005  0.1094614E+04  0.7818608E-02  0.9210457E-01
          2   -1    0    0  501    0  0.00000000000E+00  0.00000000000E+00  0.67645237369E+03  0.67645237369E+03  0.00000000000E+00 0. -1.
         -2   -1    0    0    0  501 -0.00000000000E+00 -0.00000000000E+00 -0.44281755277E+03  0.44281755277E+03  0.00000000000E+00 0.  1.
         23    2    1    2    0    0  0.21252906708E+03 -0.48004125544E+03  0.26108848207E+03  0.59356857132E+03  0.92456704010E+02 0.  0.
         11    1    3    3    0    0  0.16457872650E+03 -0.26164682774E+03  0.16227855155E+03  0.34911251478E+03  0.00000000000E+00 0. -1.
        -11    1    3    3    0    0  0.47950340582E+02 -0.21839442770E+03  0.98809930519E+02  0.24445605654E+03  0.00000000000E+00 0.  1.
         22    1    1    2    0    0 -0.21252906708E+03  0.48004125544E+03 -0.27453661153E+02  0.52570135513E+03  0.00000000000E+00 0.  1.
<mgrwt>
<rscale>  0 0.10946141E+04</rscale>
<asrwt>0</asrwt>
<pdfrwt beam="1">  1        2 0.10406960E+00 0.10946141E+04</pdfrwt>
<pdfrwt beam="2">  1       -2 0.68125777E-01 0.10946141E+04</pdfrwt>
<totfact> 0.83848127E+01</totfact>
</mgrwt>
</event>
<event>
 6    1  0.1780144E-005  0.1307399E+04  0.7818608E-02  0.9023718E-01
         -2   -1    0    0    0  501 -0.00000000000E+00  0.00000000000E+00  0.15886807006E+03  0.15886807006E+03  0.00000000000E+00 0.  1.
          2   -1    0    0  501    0  0.00000000000E+00 -0.00000000000E+00 -0.26897964936E+04  0.26897964936E+04  0.00000000000E+00 0. -1.
         23    2    1    2    0    0 -0.27351843142E+03 -0.29951489566E+03 -0.16213790297E+03  0.44539802926E+03  0.87001148491E+02 0.  0.
         11    1    3    3    0    0 -0.88098208459E+02 -0.15987940721E+03 -0.64961344429E+02  0.19375937514E+03  0.00000000000E+00 0.  1.
        -11    1    3    3    0    0 -0.18542022296E+03 -0.13963548845E+03 -0.97176558545E+02  0.25163865412E+03  0.00000000000E+00 0. -1.
         22    1    1    2    0    0  0.27351843142E+03  0.29951489566E+03 -0.23687905205E+04  0.24032665344E+04  0.00000000000E+00 0. -1.
<mgrwt>
<rscale>  0 0.13073986E+04</rscale>
<asrwt>0</asrwt>
<pdfrwt beam="1">  1        2 0.41381483E+00 0.13073986E+04</pdfrwt>
<pdfrwt beam="2">  1       -2 0.24441242E-01 0.13073986E+04</pdfrwt>
<totfact> 0.39702263E+01</totfact>
</mgrwt>
</event>
<event>
 6    1  0.1780144E-005  0.4629185E+04  0.7818608E-02  0.7888403E-01
         -1   -1    0    0    0  501 -0.00000000000E+00  0.00000000000E+00  0.31400602376E+04  0.31400602376E+04  0.00000000000E+00 0.  1.
          1   -1    0    0  501    0  0.00000000000E+00 -0.00000000000E+00 -0.17061260428E+04  0.17061260428E+04  0.00000000000E+00 0. -1.
         23    2    1    2    0    0  0.64437627271E+03  0.18557256848E+04 -0.56248126015E+03  0.20453626038E+04  0.90467757053E+02 0.  0.
         13    1    3    3    0    0  0.48911915921E+03  0.14820550927E+04 -0.47510639298E+03  0.16313953949E+04  0.00000000000E+00 0. -1.
        -13    1    3    3    0    0  0.15525711350E+03  0.37367059208E+03 -0.87374867171E+02  0.41396720896E+03  0.00000000000E+00 0.  1.
         22    1    1    2    0    0 -0.64437627271E+03 -0.18557256848E+04  0.19964154549E+04  0.28008236765E+04  0.00000000000E+00 0.  1.
<mgrwt>
<rscale>  0 0.46291850E+04</rscale>
<asrwt>0</asrwt>
<pdfrwt beam="1">  1        1 0.26248093E+00 0.46291850E+04</pdfrwt>
<pdfrwt beam="2">  1       -1 0.48308619E+00 0.46291850E+04</pdfrwt>
<totfact> 0.67793950E-03</totfact>
</mgrwt>
</event>
<event>
 6    1  0.1780144E-005  0.2401588E+04  0.7818608E-02  0.8438909E-01
          1   -1    0    0  501    0  0.00000000000E+00  0.00000000000E+00  0.10778966319E+04  0.10778966319E+04  0.00000000000E+00 0. -1.
         -1   -1    0    0    0  501 -0.00000000000E+00 -0.00000000000E+00 -0.13377034794E+04  0.13377034794E+04  0.00000000000E+00 0.  1.
         23    2    1    2    0    0 -0.74862335489E+03  0.70292094474E+03  0.49248749831E+03  0.11426187427E+04  0.92189333496E+02 0.  0.
         11    1    3    3    0    0 -0.54957603085E+03  0.56012599646E+03  0.35006164181E+03  0.85925438530E+03  0.00000000000E+00 0. -1.
        -11    1    3    3    0    0 -0.19904732404E+03  0.14279494828E+03  0.14242585650E+03  0.28336435743E+03  0.00000000000E+00 0.  1.
         22    1    1    2    0    0  0.74862335489E+03 -0.70292094474E+03 -0.75229434579E+03  0.12729813686E+04  0.00000000000E+00 0.  1.
<mgrwt>
<rscale>  0 0.24015879E+04</rscale>
<asrwt>0</asrwt>
<pdfrwt beam="1">  1        1 0.16583025E+00 0.24015879E+04</pdfrwt>
<pdfrwt beam="2">  1       -1 0.20580054E+00 0.24015879E+04</pdfrwt>
<totfact> 0.16211214E+00</totfact>
</mgrwt>
</event>
<event>
 6    1  0.1780144E-005  0.4288726E+04  0.7818608E-02  0.7948706E-01
          2   -1    0    0  501    0  0.00000000000E+00  0.00000000000E+00  0.20399167909E+04  0.20399167909E+04  0.00000000000E+00 0. -1.
         -2   -1    0    0    0  501 -0.00000000000E+00 -0.00000000000E+00 -0.22541566273E+04  0.22541566273E+04  0.00000000000E+00 0.  1.
         23    2    1    2    0    0 -0.14982056180E+04 -0.60353385225E+03  0.13035138489E+04  0.20776687995E+04  0.93199257303E+02 0.  0.
         13    1    3    3    0    0 -0.28724438611E+03 -0.14664294134E+03  0.23006370731E+03  0.39616006742E+03  0.00000000000E+00 0.  1.
        -13    1    3    3    0    0 -0.12109612319E+04 -0.45689091091E+03  0.10734501416E+04  0.16815087321E+04  0.00000000000E+00 0. -1.
         22    1    1    2    0    0  0.14982056180E+04  0.60353385225E+03 -0.15177536853E+04  0.22164046187E+04  0.00000000000E+00 0.  1.
<mgrwt>
<rscale>  0 0.42887257E+04</rscale>
<asrwt>0</asrwt>
<pdfrwt beam="1">  1        2 0.31383335E+00 0.42887257E+04</pdfrwt>
<pdfrwt beam="2">  1       -2 0.34679333E+00 0.42887257E+04</pdfrwt>
<totfact> 0.79733700E-02</totfact>
</mgrwt>
</event>
<event>
 6    1  0.1780144E-005  0.1316435E+04  0.7818608E-02  0.9016632E-01
         -1   -1    0    0    0  501 -0.00000000000E+00  0.00000000000E+00  0.29360360809E+03  0.29360360809E+03  0.00000000000E+00 0.  1.
          1   -1    0    0  501    0  0.00000000000E+00 -0.00000000000E+00 -0.14756305807E+04  0.14756305807E+04  0.00000000000E+00 0. -1.
         23    2    1    2    0    0  0.92337302244E+02  0.62631311019E+03 -0.81932929014E+03  0.10396151798E+04  0.93300305899E+02 0.  0.
         13    1    3    3    0    0  0.10976097028E+02  0.18212815394E+03 -0.17513990734E+03  0.25291327823E+03  0.00000000000E+00 0. -1.
        -13    1    3    3    0    0  0.81361205216E+02  0.44418495625E+03 -0.64418938280E+03  0.78670190160E+03  0.00000000000E+00 0.  1.
         22    1    1    2    0    0 -0.92337302244E+02 -0.62631311019E+03 -0.36269768249E+03  0.72961900898E+03  0.00000000000E+00 0. -1.
<mgrwt>
<rscale>  0 0.13164353E+04</rscale>
<asrwt>0</asrwt>
<pdfrwt beam="1">  1        1 0.22702010E+00 0.13164353E+04</pdfrwt>
<pdfrwt beam="2">  1       -1 0.45169785E-01 0.13164353E+04</pdfrwt>
<totfact> 0.32454541E+01</totfact>
</mgrwt>
</event>
<event>
 6    1  0.1780144E-005  0.1601110E+04  0.7818608E-02  0.8819867E-01
          2   -1    0    0  501    0  0.00000000000E+00  0.00000000000E+00  0.27027018445E+04  0.27027018445E+04  0.00000000000E+00 0. -1.
         -2   -1    0    0    0  501 -0.00000000000E+00 -0.00000000000E+00 -0.23712864052E+03  0.23712864052E+03  0.00000000000E+00 0.  1.
         23    2    1    2    0    0  0.47088358687E+03  0.30650123454E+03  0.19618010600E+03  0.60192129252E+03  0.90267653359E+02 0.  0.
         11    1    3    3    0    0  0.13377534506E+03  0.56666653911E+02  0.19260402927E+02  0.14655345691E+03  0.00000000000E+00 0. -1.
        -11    1    3    3    0    0  0.33710824181E+03  0.24983458063E+03  0.17691970307E+03  0.45536783561E+03  0.00000000000E+00 0.  1.
         22    1    1    2    0    0 -0.47088358687E+03 -0.30650123454E+03  0.22693930979E+04  0.23379091924E+04  0.00000000000E+00 0. -1.
<mgrwt>
<rscale>  0 0.16011096E+04</rscale>
<asrwt>0</asrwt>
<pdfrwt beam="1">  1        2 0.41580026E+00 0.16011096E+04</pdfrwt>
<pdfrwt beam="2">  1       -2 0.36481331E-01 0.16011096E+04</pdfrwt>
<totfact> 0.18007604E+01</totfact>
</mgrwt>
</event>
<event>
 6    1  0.1780144E-005  0.4446293E+04  0.7818608E-02  0.7920107E-01
         -2   -1    0    0    0  501 -0.00000000000E+00  0.00000000000E+00  0.26884261894E+04  0.26884261894E+04  0.00000000000E+00 0.  1.
          2   -1    0    0  501    0  0.00000000000E+00 -0.00000000000E+00 -0.18383914983E+04  0.18383914983E+04  0.00000000000E+00 0. -1.
         23    2    1    2    0    0  0.57997518118E+03 -0.18598911802E+04 -0.66377990089E+03  0.20595923165E+04  0.75831000195E+02 0.  0.
         11    1    3    3    0    0  0.13234068699E+03 -0.44846283488E+03 -0.19292522793E+03  0.50581925159E+03  0.00000000000E+00 0. -1.
        -11    1    3    3    0    0  0.44763449419E+03 -0.14114283453E+04 -0.47085467296E+03  0.15537730650E+04  0.00000000000E+00 0.  1.
         22    1    1    2    0    0 -0.57997518118E+03  0.18598911802E+04  0.15138145920E+04  0.24672253711E+04  0.00000000000E+00 0.  1.
<mgrwt>
<rscale>  0 0.44462928E+04</rscale>
<asrwt>0</asrwt>
<pdfrwt beam="1">  1        2 0.28282946E+00 0.44462928E+04</pdfrwt>
<pdfrwt beam="2">  1       -2 0.41360403E+00 0.44462928E+04</pdfrwt>
<totfact> 0.37786594E-02</totfact>
</mgrwt>
</event>
<event>
 6    1  0.1780144E-005  0.1996181E+04  0.7818608E-02  0.8608408E-01
          1   -1    0    0  501    0  0.00000000000E+00  0.00000000000E+00  0.14751049705E+04  0.14751049705E+04  0.00000000000E+00 0.  1.
         -1   -1    0    0    0  501 -0.00000000000E+00 -0.00000000000E+00 -0.67533142099E+03  0.67533142099E+03  0.00000000000E+00 0. -1.
         23    2    1    2    0    0 -0.22587642989E+03 -0.94681149418E+03  0.62988561289E+03  0.11623402028E+04  0.82502694998E+02 0.  0.
         13    1    3    3    0    0 -0.15744698840E+03 -0.49159114788E+03  0.34842617703E+03  0.62277781887E+03  0.00000000000E+00 0. -1.
        -13    1    3    3    0    0 -0.68429441487E+02 -0.45522034629E+03  0.28145943586E+03  0.53956238395E+03  0.00000000000E+00 0.  1.
         22    1    1    2    0    0  0.22587642989E+03  0.94681149418E+03  0.16988793664E+03  0.98809618869E+03  0.00000000000E+00 0. -1.
<mgrwt>
<rscale>  0 0.19961811E+04</rscale>
<asrwt>0</asrwt>
<pdfrwt beam="1">  1        1 0.22693923E+00 0.19961811E+04</pdfrwt>
<pdfrwt beam="2">  1       -1 0.10389714E+00 0.19961811E+04</pdfrwt>
<totfact> 0.55118684E+00</totfact>
</mgrwt>
</event>
<event>
 6    1  0.1780144E-005  0.3545689E+04  0.7818608E-02  0.8103047E-01
         -2   -1    0    0    0  501 -0.00000000000E+00  0.00000000000E+00  0.23269785286E+04  0.23269785286E+04  0.00000000000E+00 0.  1.
          2   -1    0    0  501    0  0.00000000000E+00 -0.00000000000E+00 -0.13506689997E+04  0.13506689997E+04  0.00000000000E+00 0. -1.
         23    2    1    2    0    0  0.10812285871E+04 -0.49921721239E+03  0.18488721361E+04  0.22012876174E+04  0.95215104389E+02 0.  0.
         11    1    3    3    0    0  0.46953841539E+03 -0.26581012719E+03  0.86534707308E+03  0.10197778700E+04  0.00000000000E+00 0.  1.
        -11    1    3    3    0    0  0.61169017176E+03 -0.23340708520E+03  0.98352506301E+03  0.11815097474E+04  0.00000000000E+00 0. -1.
         22    1    1    2    0    0 -0.10812285871E+04  0.49921721239E+03 -0.87256260722E+03  0.14763599108E+04  0.00000000000E+00 0. -1.
<mgrwt>
<rscale>  0 0.35456891E+04</rscale>
<asrwt>0</asrwt>
<pdfrwt beam="1">  1        2 0.20779523E+00 0.35456891E+04</pdfrwt>
<pdfrwt beam="2">  1       -2 0.35799670E+00 0.35456891E+04</pdfrwt>
<totfact> 0.17503884E-01</totfact>
</mgrwt>
</event>
<event>
 6    1  0.1780144E-005  0.1183848E+04  0.7818608E-02  0.9127113E-01
         -1   -1    0    0    0  501 -0.00000000000E+00  0.00000000000E+00  0.41283597698E+03  0.41283597698E+03  0.00000000000E+00 0.  1.
          1   -1    0    0  501    0  0.00000000000E+00 -0.00000000000E+00 -0.84869962875E+03  0.84869962875E+03  0.00000000000E+00 0. -1.
         23    2    1    2    0    0  0.28459893523E+03 -0.26615675464E+03 -0.68905825700E+03  0.79683841390E+03  0.91182258968E+02 0.  0.
         13    1    3    3    0    0  0.21690783340E+03 -0.20130638632E+03 -0.59232815159E+03  0.66213737889E+03  0.00000000000E+00 0.  1.
        -13    1    3    3    0    0  0.67691101836E+02 -0.64850368325E+02 -0.96730105413E+02  0.13470103501E+03  0.00000000000E+00 0. -1.
         22    1    1    2    0    0 -0.28459893523E+03  0.26615675464E+03  0.25319460524E+03  0.46469719183E+03  0.00000000000E+00 0.  1.
<mgrwt>
<rscale>  0 0.11838475E+04</rscale>
<asrwt>0</asrwt>
<pdfrwt beam="1">  1        1 0.13056917E+00 0.11838475E+04</pdfrwt>
<pdfrwt beam="2">  1       -1 0.63513227E-01 0.11838475E+04</pdfrwt>
<totfact> 0.50026783E+01</totfact>
</mgrwt>
</event>
<event>
 6    1  0.1780144E-005  0.2807370E+04  0.7818608E-02  0.8300984E-01
         -1   -1    0    0    0  501 -0.00000000000E+00  0.00000000000E+00  0.10499735438E+04  0.10499735438E+04  0.00000000000E+00 0.  1.
          1   -1    0    0  501    0  0.00000000000E+00 -0.00000000000E+00 -0.18765534994E+04  0.18765534994E+04  0.00000000000E+00 0. -1.
         23    2    1    2    0    0  0.13756848710E+04  0.26720570254E+03 -0.46512949448E+03  0.14792695722E+04  0.89360330471E+02 0.  0.
         11    1    3    3    0    0  0.91589459064E+03  0.19743113145E+03 -0.27113117804E+03  0.97537380964E+03  0.00000000000E+00 0. -1.
        -11    1    3    3    0    0  0.45979028038E+03  0.69774571090E+02 -0.19399831645E+03  0.50389576252E+03  0.00000000000E+00 0.  1.
         22    1    1    2    0    0 -0.13756848710E+04 -0.26720570254E+03 -0.36145046111E+03  0.14472574711E+04  0.00000000000E+00 0.  1.
<mgrwt>
<rscale>  0 0.28073700E+04</rscale>
<asrwt>0</asrwt>
<pdfrwt beam="1">  1        1 0.28870054E+00 0.28073700E+04</pdfrwt>
<pdfrwt beam="2">  1       -1 0.16153439E+00 0.28073700E+04</pdfrwt>
<totfact> 0.88968280E-01</totfact>
</mgrwt>
</event>
<event>
 6    1  0.1780144E-005  0.1918465E+04  0.7818608E-02  0.8645720E-01
         -2   -1    0    0    0  501 -0.00000000000E+00  0.00000000000E+00  0.83515290289E+03  0.83515290289E+03  0.00000000000E+00 0.  1.
          2   -1    0    0  501    0  0.00000000000E+00 -0.00000000000E+00 -0.11017463694E+04  0.11017463694E+04  0.00000000000E+00 0. -1.
         23    2    1    2    0    0  0.71416853495E+03  0.20693298483E+03 -0.74219609693E+03  0.10542578850E+04  0.88015256264E+02 0.  0.
         11    1    3    3    0    0  0.45228319587E+03  0.86489813130E+02 -0.45512836162E+03  0.64744297246E+03  0.00000000000E+00 0. -1.
        -11    1    3    3    0    0  0.26188533908E+03  0.12044317170E+03 -0.28706773531E+03  0.40681491257E+03  0.00000000000E+00 0.  1.
         22    1    1    2    0    0 -0.71416853495E+03 -0.20693298483E+03  0.47560263039E+03  0.88264138729E+03  0.00000000000E+00 0.  1.
<mgrwt>
<rscale>  0 0.19184647E+04</rscale>
<asrwt>0</asrwt>
<pdfrwt beam="1">  1        2 0.16949944E+00 0.19184647E+04</pdfrwt>
<pdfrwt beam="2">  1       -2 0.12848506E+00 0.19184647E+04</pdfrwt>
<totfact> 0.90931258E+00</totfact>
</mgrwt>
</event>
<event>
 6    1  0.1780144E-005  0.2017885E+04  0.7818608E-02  0.8598304E-01
          2   -1    0    0  501    0  0.00000000000E+00  0.00000000000E+00  0.37880635489E+03  0.37880635489E+03  0.00000000000E+00 0.  1.
         -2   -1    0    0    0  501 -0.00000000000E+00 -0.00000000000E+00 -0.26872973399E+04  0.26872973399E+04  0.00000000000E+00 0. -1.
         23    2    1    2    0    0 -0.42297272774E+03 -0.16302116794E+03  0.20937477285E+03  0.50775856478E+03  0.92190753316E+02 0.  0.
         13    1    3    3    0    0 -0.38042418808E+03 -0.17341779657E+03  0.19743453781E+03  0.46235991583E+03  0.00000000000E+00 0. -1.
        -13    1    3    3    0    0 -0.42548539661E+02  0.10396628631E+02  0.11940235032E+02  0.45398648953E+02  0.00000000000E+00 0.  1.
         22    1    1    2    0    0  0.42297272774E+03  0.16302116794E+03 -0.25178657579E+04  0.25583451300E+04  0.00000000000E+00 0. -1.
<mgrwt>
<rscale>  0 0.20178853E+04</rscale>
<asrwt>0</asrwt>
<pdfrwt beam="1">  1        2 0.58277902E-01 0.20178853E+04</pdfrwt>
<pdfrwt beam="2">  1       -2 0.41343035E+00 0.20178853E+04</pdfrwt>
<totfact> 0.47651381E-01</totfact>
</mgrwt>
</event>
<event>
 6    1  0.1780144E-005  0.2512740E+04  0.7818608E-02  0.8398461E-01
          1   -1    0    0  501    0  0.00000000000E+00  0.00000000000E+00  0.13469639945E+04  0.13469639945E+04  0.00000000000E+00 0. -1.
         -1   -1    0    0    0  501 -0.00000000000E+00 -0.00000000000E+00 -0.11718688358E+04  0.11718688358E+04  0.00000000000E+00 0.  1.
         23    2    1    2    0    0 -0.41705944599E+03  0.10542592345E+04  0.62655361917E+03  0.12984985087E+04  0.90154447552E+02 0.  0.
         11    1    3    3    0    0 -0.31282964129E+03  0.70699049453E+03  0.45881172631E+03  0.89900286096E+03  0.00000000000E+00 0. -1.
        -11    1    3    3    0    0 -0.10422980470E+03  0.34726873995E+03  0.16774189286E+03  0.39949564773E+03  0.00000000000E+00 0.  1.
         22    1    1    2    0    0  0.41705944599E+03 -0.10542592345E+04 -0.45145846048E+03  0.12203343216E+04  0.00000000000E+00 0.  1.
<mgrwt>
<rscale>  0 0.25127396E+04</rscale>
<asrwt>0</asrwt>
<pdfrwt beam="1">  1        1 0.20722523E+00 0.25127396E+04</pdfrwt>
<pdfrwt beam="2">  1       -1 0.18028751E+00 0.25127396E+04</pdfrwt>
<totfact> 0.15394381E+00</totfact>
</mgrwt>
</event>
<event>
 6    1  0.1780144E-005  0.2048376E+04  0.7818608E-02  0.8584331E-01
          2   -1    0    0  501    0  0.00000000000E+00  0.00000000000E+00  0.18791364770E+04  0.18791364770E+04  0.00000000000E+00 0.  1.
         -2   -1    0    0    0  501 -0.00000000000E+00 -0.00000000000E+00 -0.55821433155E+03  0.55821433155E+03  0.00000000000E+00 0. -1.
         23    2    1    2    0    0  0.67298422197E+03 -0.57859146860E+03  0.58437388270E+02  0.89412573985E+03  0.91488030692E+02 0.  0.
         11    1    3    3    0    0  0.14965498329E+03 -0.17028740213E+03 -0.94263484680E+01  0.22689924944E+03  0.00000000000E+00 0. -1.
        -11    1    3    3    0    0  0.52332923867E+03 -0.40830406647E+03  0.67863736738E+02  0.66722649042E+03  0.00000000000E+00 0.  1.
         22    1    1    2    0    0 -0.67298422197E+03  0.57859146860E+03  0.12624847572E+04  0.15432250687E+04  0.00000000000E+00 0.  1.
<mgrwt>
<rscale>  0 0.20483759E+04</rscale>
<asrwt>0</asrwt>
<pdfrwt beam="1">  1        2 0.28909792E+00 0.20483759E+04</pdfrwt>
<pdfrwt beam="2">  1       -2 0.85879129E-01 0.20483759E+04</pdfrwt>
<totfact> 0.84935698E+00</totfact>
</mgrwt>
</event>
<event>
 6    1  0.1780144E-005  0.1492713E+04  0.7818608E-02  0.8889313E-01
         -2   -1    0    0    0  501 -0.00000000000E+00  0.00000000000E+00  0.30103477620E+03  0.30103477620E+03  0.00000000000E+00 0.  1.
          2   -1    0    0  501    0  0.00000000000E+00 -0.00000000000E+00 -0.18504446991E+04  0.18504446991E+04  0.00000000000E+00 0. -1.
         23    2    1    2    0    0 -0.29580196377E+03  0.65178687746E+03 -0.48748770594E+03  0.87085317138E+03  0.91739017128E+02 0.  0.
         13    1    3    3    0    0 -0.19093020084E+03  0.51367263099E+03 -0.37893775283E+03  0.66626401219E+03  0.00000000000E+00 0. -1.
        -13    1    3    3    0    0 -0.10487176293E+03  0.13811424647E+03 -0.10854995311E+03  0.20458915919E+03  0.00000000000E+00 0.  1.
         22    1    1    2    0    0  0.29580196377E+03 -0.65178687746E+03 -0.10619222170E+04  0.12806263039E+04  0.00000000000E+00 0. -1.
<mgrwt>
<rscale>  0 0.14927132E+04</rscale>
<asrwt>0</asrwt>
<pdfrwt beam="1">  1        2 0.28468379E+00 0.14927132E+04</pdfrwt>
<pdfrwt beam="2">  1       -2 0.46313044E-01 0.14927132E+04</pdfrwt>
<totfact> 0.34572285E+01</totfact>
</mgrwt>
</event>
<event>
 6    1  0.1780144E-005  0.4417817E+04  0.7818608E-02  0.7925185E-01
          1   -1    0    0  501    0  0.00000000000E+00  0.00000000000E+00  0.27991372510E+04  0.27991372510E+04  0.00000000000E+00 0. -1.
         -1   -1    0    0    0  501 -0.00000000000E+00 -0.00000000000E+00 -0.17431361062E+04  0.17431361062E+04  0.00000000000E+00 0.  1.
         23    2    1    2    0    0 -0.14506071460E+04 -0.50908089899E+03  0.21577095599E+04  0.26509283635E+04  0.91028509543E+02 0.  0.
         13    1    3    3    0    0 -0.13848076370E+03 -0.68995078822E+02  0.18496601849E+03  0.24114242848E+03  0.00000000000E+00 0.  1.
        -13    1    3    3    0    0 -0.13121263823E+04 -0.44008582017E+03  0.19727435414E+04  0.24097859350E+04  0.00000000000E+00 0. -1.
         22    1    1    2    0    0  0.14506071460E+04  0.50908089899E+03 -0.11017084150E+04  0.18913449938E+04  0.00000000000E+00 0.  1.
<mgrwt>
<rscale>  0 0.44178172E+04</rscale>
<asrwt>0</asrwt>
<pdfrwt beam="1">  1        1 0.43063650E+00 0.44178172E+04</pdfrwt>
<pdfrwt beam="2">  1       -1 0.26817479E+00 0.44178172E+04</pdfrwt>
<totfact> 0.33519498E-02</totfact>
</mgrwt>
</event>
<event>
 6    1  0.1780144E-005  0.5559980E+04  0.7818608E-02  0.7747489E-01
          2   -1    0    0  501    0  0.00000000000E+00  0.00000000000E+00  0.19297616950E+04  0.19297616950E+04  0.00000000000E+00 0. -1.
         -2   -1    0    0    0  501 -0.00000000000E+00 -0.00000000000E+00 -0.40048185767E+04  0.40048185767E+04  0.00000000000E+00 0.  1.
         23    2    1    2    0    0 -0.25610818514E+04 -0.86050699528E+03 -0.34242254756E+03  0.27249643640E+04  0.92547530852E+02 0.  0.
         13    1    3    3    0    0 -0.21707855392E+04 -0.69725506766E+03 -0.30317400855E+03  0.23000845563E+04  0.00000000000E+00 0. -1.
        -13    1    3    3    0    0 -0.39029631218E+03 -0.16325192762E+03 -0.39248539007E+02  0.42487980770E+03  0.00000000000E+00 0.  1.
         22    1    1    2    0    0  0.25610818514E+04  0.86050699528E+03 -0.17326343341E+04  0.32096159076E+04  0.00000000000E+00 0.  1.
<mgrwt>
<rscale>  0 0.55599804E+04</rscale>
<asrwt>0</asrwt>
<pdfrwt beam="1">  1        2 0.29688641E+00 0.55599804E+04</pdfrwt>
<pdfrwt beam="2">  1       -2 0.61612594E+00 0.55599804E+04</pdfrwt>
<totfact> 0.22825727E-03</totfact>
</mgrwt>
</event>
<event>
 6    1  0.1780144E-005  0.2389650E+04  0.7818608E-02  0.8443388E-01
          1   -1    0    0  501    0  0.00000000000E+00  0.00000000000E+00  0.11857074589E+04  0.11857074589E+04  0.00000000000E+00 0. -1.
         -1   -1    0    0    0  501 -0.00000000000E+00 -0.00000000000E+00 -0.12040131229E+04  0.12040131229E+04  0.00000000000E+00 0.  1.
         23    2    1    2    0    0  0.55774894209E+03 -0.81068628518E+03 -0.68376590228E+03  0.12018091944E+04  0.92268062210E+02 0.  0.
         11    1    3    3    0    0  0.78331198332E+02 -0.79309516567E+02 -0.10496854246E+03  0.15311489463E+03  0.00000000000E+00 0. -1.
        -11    1    3    3    0    0  0.47941774376E+03 -0.73137676861E+03 -0.57879735981E+03  0.10486942998E+04  0.00000000000E+00 0.  1.
         22    1    1    2    0    0 -0.55774894209E+03  0.81068628518E+03  0.66546023832E+03  0.11879113873E+04  0.00000000000E+00 0. -1.
<mgrwt>
<rscale>  0 0.23896505E+04</rscale>
<asrwt>0</asrwt>
<pdfrwt beam="1">  1        1 0.18241653E+00 0.23896505E+04</pdfrwt>
<pdfrwt beam="2">  1       -1 0.18523279E+00 0.23896505E+04</pdfrwt>
<totfact> 0.18748456E+00</totfact>
</mgrwt>
</event>
<event>
 6    1  0.1780144E-005  0.1632805E+04  0.7818608E-02  0.8800644E-01
          2   -1    0    0  501    0  0.00000000000E+00  0.00000000000E+00  0.45096761747E+03  0.45096761747E+03  0.00000000000E+00 0. -1.
         -2   -1    0    0    0  501 -0.00000000000E+00 -0.00000000000E+00 -0.14779616650E+04  0.14779616650E+04  0.00000000000E+00 0.  1.
         23    2    1    2    0    0 -0.69035613653E+03  0.20896924571E+03 -0.96289534848E+03  0.12047964327E+04  0.64087840124E+02 0.  0.
         11    1    3    3    0    0 -0.20962286727E+03  0.74762485786E+02 -0.25234067005E+03  0.33646246377E+03  0.00000000000E+00 0. -1.
        -11    1    3    3    0    0 -0.48073326926E+03  0.13420675992E+03 -0.71055467843E+03  0.86833396894E+03  0.00000000000E+00 0.  1.
         22    1    1    2    0    0  0.69035613653E+03 -0.20896924571E+03 -0.64098699057E+02  0.72413284977E+03  0.00000000000E+00 0. -1.
<mgrwt>
<rscale>  0 0.16328048E+04</rscale>
<asrwt>0</asrwt>
<pdfrwt beam="1">  1        2 0.69379633E-01 0.16328048E+04</pdfrwt>
<pdfrwt beam="2">  1       -2 0.22737872E+00 0.16328048E+04</pdfrwt>
<totfact> 0.58894572E+00</totfact>
</mgrwt>
</event>
<event>
 6    1  0.1780144E-005  0.1148255E+04  0.7818608E-02  0.9159395E-01
          2   -1    0    0  501    0  0.00000000000E+00  0.00000000000E+00  0.21369698651E+04  0.21369698651E+04  0.00000000000E+00 0.  1.
         -2   -1    0    0    0  501 -0.00000000000E+00 -0.00000000000E+00 -0.15424743607E+03  0.15424743607E+03  0.00000000000E+00 0. -1.
         23    2    1    2    0    0 -0.14474220714E+03  0.13112078284E+03  0.20672286590E+04  0.20784162929E+04  0.90757876373E+02 0.  0.
         13    1    3    3    0    0 -0.13738226287E+03  0.10618017292E+03  0.14066150523E+04  0.14172910854E+04  0.00000000000E+00 0.  1.
        -13    1    3    3    0    0 -0.73599442723E+01  0.24940609929E+02  0.66061360666E+03  0.66112520758E+03  0.00000000000E+00 0. -1.
         22    1    1    2    0    0  0.14474220714E+03 -0.13112078284E+03 -0.84506229907E+02  0.21280100826E+03  0.00000000000E+00 0. -1.
<mgrwt>
<rscale>  0 0.11482545E+04</rscale>
<asrwt>0</asrwt>
<pdfrwt beam="1">  1        2 0.32876457E+00 0.11482545E+04</pdfrwt>
<pdfrwt beam="2">  1       -2 0.23730376E-01 0.11482545E+04</pdfrwt>
<totfact> 0.87694241E+01</totfact>
</mgrwt>
</event>
<event>
 6    1  0.1780144E-005  0.2368459E+04  0.7818608E-02  0.8451407E-01
          3   -1    0    0  501    0  0.00000000000E+00  0.00000000000E+00  0.12450926339E+04  0.12450926339E+04  0.00000000000E+00 0. -1.
         -3   -1    0    0    0  501 -0.00000000000E+00 -0.00000000000E+00 -0.11263416774E+04  0.11263416774E+04  0.00000000000E+00 0.  1.
         23    2    1    2    0    0  0.55655926546E+03  0.10223458289E+04 -0.14894941418E+03  0.11770253786E+04  0.90849348275E+02 0.  0.
         11    1    3    3    0    0  0.44261787830E+03  0.76629108538E+03 -0.80943099590E+02  0.88863063142E+03  0.00000000000E+00 0.  1.
        -11    1    3    3    0    0  0.11394138716E+03  0.25605474352E+03 -0.68006314587E+02  0.28839474719E+03  0.00000000000E+00 0. -1.
         22    1    1    2    0    0 -0.55655926546E+03 -0.10223458289E+04  0.26770037069E+03  0.11944089326E+04  0.00000000000E+00 0. -1.
<mgrwt>
<rscale>  0 0.23684592E+04</rscale>
<asrwt>0</asrwt>
<pdfrwt beam="1">  1        3 0.19155271E+00 0.23684592E+04</pdfrwt>
<pdfrwt beam="2">  1       -3 0.17328334E+00 0.23684592E+04</pdfrwt>
<totfact> 0.86046382E-02</totfact>
</mgrwt>
</event>
<event>
 6    1  0.1780144E-005  0.1738121E+04  0.7818608E-02  0.8739916E-01
         -2   -1    0    0    0  501 -0.00000000000E+00  0.00000000000E+00  0.42133794546E+03  0.42133794546E+03  0.00000000000E+00 0.  1.
          2   -1    0    0  501    0  0.00000000000E+00 -0.00000000000E+00 -0.17925418109E+04  0.17925418109E+04  0.00000000000E+00 0. -1.
         23    2    1    2    0    0  0.50456950527E+03  0.58305878902E+03 -0.18366453687E+03  0.79797100436E+03  0.92071301656E+02 0.  0.
         11    1    3    3    0    0  0.35836698996E+03  0.46476574216E+03 -0.11695506393E+03  0.59842508433E+03  0.00000000000E+00 0.  1.
        -11    1    3    3    0    0  0.14620251531E+03  0.11829304686E+03 -0.66709472942E+02  0.19954592002E+03  0.00000000000E+00 0. -1.
         22    1    1    2    0    0 -0.50456950527E+03 -0.58305878902E+03 -0.11875393285E+04  0.14159087520E+04  0.00000000000E+00 0. -1.
<mgrwt>
<rscale>  0 0.17381207E+04</rscale>
<asrwt>0</asrwt>
<pdfrwt beam="1">  1        2 0.27577567E+00 0.17381207E+04</pdfrwt>
<pdfrwt beam="2">  1       -2 0.64821221E-01 0.17381207E+04</pdfrwt>
<totfact> 0.18148418E+01</totfact>
</mgrwt>
</event>
<event>
 6    1  0.1780144E-005  0.3861274E+04  0.7818608E-02  0.8033132E-01
         -2   -1    0    0    0  501 -0.00000000000E+00  0.00000000000E+00  0.19868230053E+04  0.19868230053E+04  0.00000000000E+00 0.  1.
          2   -1    0    0  501    0  0.00000000000E+00 -0.00000000000E+00 -0.18760402365E+04  0.18760402365E+04  0.00000000000E+00 0. -1.
         23    2    1    2    0    0 -0.13745857192E+04  0.49266790746E+03 -0.12064578407E+04  0.18963103212E+04  0.90800585112E+02 0.  0.
         13    1    3    3    0    0 -0.52751443117E+03  0.14950556274E+03 -0.48280942308E+03  0.73056712724E+03  0.00000000000E+00 0. -1.
        -13    1    3    3    0    0 -0.84707128806E+03  0.34316234472E+03 -0.72364841757E+03  0.11657431939E+04  0.00000000000E+00 0.  1.
         22    1    1    2    0    0  0.13745857192E+04 -0.49266790746E+03  0.13172406094E+04  0.19665529206E+04  0.00000000000E+00 0.  1.
<mgrwt>
<rscale>  0 0.38612743E+04</rscale>
<asrwt>0</asrwt>
<pdfrwt beam="1">  1        2 0.28862157E+00 0.38612743E+04</pdfrwt>
<pdfrwt beam="2">  1       -2 0.30566508E+00 0.38612743E+04</pdfrwt>
<totfact> 0.18327037E-01</totfact>
</mgrwt>
</event>
<event>
 6    1  0.1780144E-005  0.2309864E+04  0.7818608E-02  0.8474042E-01
          2   -1    0    0  501    0  0.00000000000E+00  0.00000000000E+00  0.21208946695E+04  0.21208946695E+04  0.00000000000E+00 0. -1.
         -2   -1    0    0    0  501 -0.00000000000E+00 -0.00000000000E+00 -0.62891770647E+03  0.62891770647E+03  0.00000000000E+00 0.  1.
         23    2    1    2    0    0 -0.67776995880E+03 -0.68612110592E+03  0.14996707714E+04  0.17853469884E+04  0.91198451094E+02 0.  0.
         13    1    3    3    0    0 -0.45364139568E+03 -0.51265813515E+03  0.10276115582E+04  0.12347446675E+04  0.00000000000E+00 0. -1.
        -13    1    3    3    0    0 -0.22412856312E+03 -0.17346297077E+03  0.47205921323E+03  0.55060232094E+03  0.00000000000E+00 0.  1.
         22    1    1    2    0    0  0.67776995880E+03  0.68612110592E+03 -0.76938083950E+01  0.96446538752E+03  0.00000000000E+00 0.  1.
<mgrwt>
<rscale>  0 0.23098642E+04</rscale>
<asrwt>0</asrwt>
<pdfrwt beam="1">  1        2 0.32629148E+00 0.23098642E+04</pdfrwt>
<pdfrwt beam="2">  1       -2 0.96756571E-01 0.23098642E+04</pdfrwt>
<totfact> 0.46256334E+00</totfact>
</mgrwt>
</event>
<event>
 6    1  0.1780144E-005  0.1642498E+04  0.7818608E-02  0.8794857E-01
          1   -1    0    0  501    0  0.00000000000E+00  0.00000000000E+00  0.82671501288E+03  0.82671501288E+03  0.00000000000E+00 0. -1.
         -1   -1    0    0    0  501 -0.00000000000E+00 -0.00000000000E+00 -0.81581898064E+03  0.81581898064E+03  0.00000000000E+00 0.  1.
         23    2    1    2    0    0  0.60082524528E+03  0.54832219659E+03  0.99814111709E+02  0.82427081367E+03  0.88381619872E+02 0.  0.
         13    1    3    3    0    0  0.55308166091E+02  0.89427579816E+02  0.18849702843E+02  0.10682507461E+03  0.00000000000E+00 0.  1.
        -13    1    3    3    0    0  0.54551707919E+03  0.45889461677E+03  0.80964408866E+02  0.71744573906E+03  0.00000000000E+00 0. -1.
         22    1    1    2    0    0 -0.60082524528E+03 -0.54832219659E+03 -0.88918079467E+02  0.81826317985E+03  0.00000000000E+00 0.  1.
<mgrwt>
<rscale>  0 0.16424979E+04</rscale>
<asrwt>0</asrwt>
<pdfrwt beam="1">  1        1 0.12718692E+00 0.16424979E+04</pdfrwt>
<pdfrwt beam="2">  1       -1 0.12551061E+00 0.16424979E+04</pdfrwt>
<totfact> 0.11106531E+01</totfact>
</mgrwt>
</event>
<event>
 6    1  0.1780144E-005  0.2526673E+04  0.7818608E-02  0.8393544E-01
         -1   -1    0    0    0  501 -0.00000000000E+00  0.00000000000E+00  0.18605180050E+04  0.18605180050E+04  0.00000000000E+00 0.  1.
          1   -1    0    0  501    0  0.00000000000E+00 -0.00000000000E+00 -0.85783565556E+03  0.85783565556E+03  0.00000000000E+00 0. -1.
         23    2    1    2    0    0 -0.32372750497E+03 -0.11762932640E+04  0.15618564225E+03  0.12334220070E+04  0.92035603312E+02 0.  0.
         11    1    3    3    0    0 -0.10699183633E+03 -0.26266391061E+03  0.56147430691E+02  0.28912301353E+03  0.00000000000E+00 0. -1.
        -11    1    3    3    0    0 -0.21673566864E+03 -0.91362935335E+03  0.10003821156E+03  0.94429899351E+03  0.00000000000E+00 0.  1.
         22    1    1    2    0    0  0.32372750497E+03  0.11762932640E+04  0.84649670716E+03  0.14849316535E+04  0.00000000000E+00 0.  1.
<mgrwt>
<rscale>  0 0.25266727E+04</rscale>
<asrwt>0</asrwt>
<pdfrwt beam="1">  1        1 0.13197472E+00 0.25266727E+04</pdfrwt>
<pdfrwt beam="2">  1       -1 0.28623354E+00 0.25266727E+04</pdfrwt>
<totfact> 0.70909764E-01</totfact>
</mgrwt>
</event>
<event>
 6    1  0.1780144E-005  0.2691468E+04  0.7818608E-02  0.8337779E-01
          2   -1    0    0  501    0  0.00000000000E+00  0.00000000000E+00  0.78050482674E+03  0.78050482674E+03  0.00000000000E+00 0. -1.
         -2   -1    0    0    0  501 -0.00000000000E+00 -0.00000000000E+00 -0.23202931864E+04  0.23202931864E+04  0.00000000000E+00 0.  1.
         23    2    1    2    0    0 -0.60687332474E+03 -0.11108731786E+04 -0.24783765300E+03  0.12920771724E+04  0.75534534404E+02 0.  0.
         13    1    3    3    0    0 -0.38586494351E+03 -0.75524761218E+03 -0.19303317315E+03  0.86980027378E+03  0.00000000000E+00 0.  1.
        -13    1    3    3    0    0 -0.22100838123E+03 -0.35562556644E+03 -0.54804479844E+02  0.42227689860E+03  0.00000000000E+00 0. -1.
         22    1    1    2    0    0  0.60687332474E+03  0.11108731786E+04 -0.12919507066E+04  0.18087208407E+04  0.00000000000E+00 0.  1.
<mgrwt>
<rscale>  0 0.26914680E+04</rscale>
<asrwt>0</asrwt>
<pdfrwt beam="1">  1        2 0.12007767E+00 0.26914680E+04</pdfrwt>
<pdfrwt beam="2">  1       -2 0.35696818E+00 0.26914680E+04</pdfrwt>
<totfact> 0.43927545E-01</totfact>
</mgrwt>
</event>
<event>
 6    1  0.1780144E-005  0.1729620E+04  0.7818608E-02  0.8744649E-01
          2   -1    0    0  501    0  0.00000000000E+00  0.00000000000E+00  0.26383583136E+04  0.26383583136E+04  0.00000000000E+00 0.  1.
         -2   -1    0    0    0  501 -0.00000000000E+00 -0.00000000000E+00 -0.28347028946E+03  0.28347028946E+03  0.00000000000E+00 0. -1.
         23    2    1    2    0    0 -0.62888578076E+02 -0.82759610657E+03  0.78457080460E+03  0.11456623781E+04  0.90114639307E+02 0.  0.
         11    1    3    3    0    0 -0.47644426482E+02 -0.68054002562E+03  0.68910186971E+03  0.96967319478E+03  0.00000000000E+00 0. -1.
        -11    1    3    3    0    0 -0.15244151595E+02 -0.14705608096E+03  0.95468934893E+02  0.17598918329E+03  0.00000000000E+00 0.  1.
         22    1    1    2    0    0  0.62888578076E+02  0.82759610657E+03  0.15703172196E+04  0.17761662250E+04  0.00000000000E+00 0.  1.
<mgrwt>
<rscale>  0 0.17296198E+04</rscale>
<asrwt>0</asrwt>
<pdfrwt beam="1">  1        2 0.40590126E+00 0.17296198E+04</pdfrwt>
<pdfrwt beam="2">  1       -2 0.43610815E-01 0.17296198E+04</pdfrwt>
<totfact> 0.13703641E+01</totfact>
</mgrwt>
</event>
<event>
 6    1  0.1780144E-005  0.1324061E+04  0.7818608E-02  0.9010700E-01
          2   -1    0    0  501    0  0.00000000000E+00  0.00000000000E+00  0.30038958256E+04  0.30038958256E+04  0.00000000000E+00 0. -1.
         -2   -1    0    0    0  501 -0.00000000000E+00 -0.00000000000E+00 -0.14590522092E+03  0.14590522092E+03  0.00000000000E+00 0.  1.
         23    2    1    2    0    0  0.99047662276E+02  0.44648818545E+03  0.25640843135E+04  0.26061623364E+04  0.91605774202E+02 0.  0.
         11    1    3    3    0    0  0.81199036468E+02  0.33319630996E+03  0.21171938227E+04  0.21447896744E+04  0.00000000000E+00 0.  1.
        -11    1    3    3    0    0  0.17848625807E+02  0.11329187549E+03  0.44689049071E+03  0.46137266194E+03  0.00000000000E+00 0. -1.
         22    1    1    2    0    0 -0.99047662276E+02 -0.44648818545E+03  0.29390629122E+03  0.54363871015E+03  0.00000000000E+00 0.  1.
<mgrwt>
<rscale>  0 0.13240605E+04</rscale>
<asrwt>0</asrwt>
<pdfrwt beam="1">  1        2 0.46213777E+00 0.13240605E+04</pdfrwt>
<pdfrwt beam="2">  1       -2 0.22446959E-01 0.13240605E+04</pdfrwt>
<totfact> 0.29834525E+01</totfact>
</mgrwt>
</event>
<event>
 6    1  0.1780144E-005  0.2677422E+04  0.7818608E-02  0.8342368E-01
         -2   -1    0    0    0  501 -0.00000000000E+00  0.00000000000E+00  0.63707189536E+03  0.63707189536E+03  0.00000000000E+00 0.  1.
          2   -1    0    0  501    0  0.00000000000E+00 -0.00000000000E+00 -0.28130999538E+04  0.28130999538E+04  0.00000000000E+00 0. -1.
         23    2    1    2    0    0  0.36641947459E+03  0.12645145458E+04 -0.78798978301E+03  0.15370825878E+04  0.91840708809E+02 0.  0.
         13    1    3    3    0    0  0.26556568641E+02  0.88405856448E+02 -0.84366495278E+02  0.12505419752E+03  0.00000000000E+00 0. -1.
        -13    1    3    3    0    0  0.33986290595E+03  0.11761086893E+04 -0.70362328773E+03  0.14120283903E+04  0.00000000000E+00 0.  1.
         22    1    1    2    0    0 -0.36641947459E+03 -0.12645145458E+04 -0.13880382754E+04  0.19130892613E+04  0.00000000000E+00 0. -1.
<mgrwt>
<rscale>  0 0.26774218E+04</rscale>
<asrwt>0</asrwt>
<pdfrwt beam="1">  1        2 0.43278462E+00 0.26774218E+04</pdfrwt>
<pdfrwt beam="2">  1       -2 0.98011059E-01 0.26774218E+04</pdfrwt>
<totfact> 0.17280137E+00</totfact>
</mgrwt>
</event>
<event>
 6    1  0.1780144E-005  0.2695457E+04  0.7818608E-02  0.8336480E-01
          2   -1    0    0  501    0  0.00000000000E+00  0.00000000000E+00  0.22175143527E+04  0.22175143527E+04  0.00000000000E+00 0. -1.
         -2   -1    0    0    0  501 -0.00000000000E+00 -0.00000000000E+00 -0.81910287710E+03  0.81910287710E+03  0.00000000000E+00 0.  1.
         23    2    1    2    0    0 -0.42270707451E+03  0.12781815515E+04  0.69465789163E+03  0.15175061554E+04  0.88577626646E+02 0.  0.
         13    1    3    3    0    0 -0.41150851289E+03  0.12165507549E+04  0.67997116107E+03  0.14531674973E+04  0.00000000000E+00 0.  1.
        -13    1    3    3    0    0 -0.11198561619E+02  0.61630796569E+02  0.14686730565E+02  0.64338658074E+02  0.00000000000E+00 0. -1.
         22    1    1    2    0    0  0.42270707451E+03 -0.12781815515E+04  0.70375358392E+03  0.15191110744E+04  0.00000000000E+00 0. -1.
<mgrwt>
<rscale>  0 0.26954572E+04</rscale>
<asrwt>0</asrwt>
<pdfrwt beam="1">  1        2 0.34115605E+00 0.26954572E+04</pdfrwt>
<pdfrwt beam="2">  1       -2 0.12601583E+00 0.26954572E+04</pdfrwt>
<totfact> 0.20811680E+00</totfact>
</mgrwt>
</event>
<event>
 6    1  0.1780144E-005  0.2101338E+04  0.7818608E-02  0.8560654E-01
         -2   -1    0    0    0  501 -0.00000000000E+00  0.00000000000E+00  0.54956376546E+03  0.54956376546E+03  0.00000000000E+00 0.  1.
          2   -1    0    0  501    0  0.00000000000E+00 -0.00000000000E+00 -0.20086938704E+04  0.20086938704E+04  0.00000000000E+00 0. -1.
         23    2    1    2    0    0 -0.10437650142E+04 -0.88091718190E+02 -0.67188925054E+03  0.12479318296E+04  0.93236960361E+02 0.  0.
         13    1    3    3    0    0 -0.22382891760E+03 -0.52302980497E+02 -0.17034853404E+03  0.28610069762E+03  0.00000000000E+00 0. -1.
        -13    1    3    3    0    0 -0.81993609658E+03 -0.35788737693E+02 -0.50154071650E+03  0.96183113202E+03  0.00000000000E+00 0.  1.
         22    1    1    2    0    0  0.10437650142E+04  0.88091718190E+02 -0.78724085445E+03  0.13103258063E+04  0.00000000000E+00 0.  1.
<mgrwt>
<rscale>  0 0.21013380E+04</rscale>
<asrwt>0</asrwt>
<pdfrwt beam="1">  1        2 0.30902982E+00 0.21013380E+04</pdfrwt>
<pdfrwt beam="2">  1       -2 0.84548272E-01 0.21013380E+04</pdfrwt>
<totfact> 0.74246052E+00</totfact>
</mgrwt>
</event>
<event>
 6    1  0.1780144E-005  0.2631323E+04  0.7818608E-02  0.8357639E-01
          2   -1    0    0  501    0  0.00000000000E+00  0.00000000000E+00  0.23509970747E+04  0.23509970747E+04  0.00000000000E+00 0. -1.
         -2   -1    0    0    0  501 -0.00000000000E+00 -0.00000000000E+00 -0.73626870703E+03  0.73626870703E+03  0.00000000000E+00 0.  1.
         23    2    1    2    0    0 -0.43278605912E+03  0.39425098274E+03  0.21886521051E+04  0.22674328312E+04  0.91192085073E+02 0.  0.
         11    1    3    3    0    0 -0.84094066527E+02  0.12773710385E+03  0.51908850145E+03  0.54114827179E+03  0.00000000000E+00 0.  1.
        -11    1    3    3    0    0 -0.34869199259E+03  0.26651387889E+03  0.16695636036E+04  0.17262845594E+04  0.00000000000E+00 0. -1.
         22    1    1    2    0    0  0.43278605912E+03 -0.39425098274E+03 -0.57392373745E+03  0.81983295053E+03  0.00000000000E+00 0.  1.
<mgrwt>
<rscale>  0 0.26313233E+04</rscale>
<asrwt>0</asrwt>
<pdfrwt beam="1">  1        2 0.36169185E+00 0.26313233E+04</pdfrwt>
<pdfrwt beam="2">  1       -2 0.11327211E+00 0.26313233E+04</pdfrwt>
<totfact> 0.22886946E+00</totfact>
</mgrwt>
</event>
<event>
 6    1  0.1780144E-005  0.1533751E+04  0.7818608E-02  0.8862314E-01
         -2   -1    0    0    0  501 -0.00000000000E+00  0.00000000000E+00  0.55540707008E+03  0.55540707008E+03  0.00000000000E+00 0.  1.
          2   -1    0    0  501    0  0.00000000000E+00 -0.00000000000E+00 -0.10588598954E+04  0.10588598954E+04  0.00000000000E+00 0. -1.
         23    2    1    2    0    0  0.47334797175E+03 -0.40619384992E+03  0.21219230136E+03  0.66495158406E+03  0.89907120530E+02 0.  0.
         13    1    3    3    0    0  0.13332123822E+03 -0.17020338212E+03  0.78086204303E+02  0.22987213652E+03  0.00000000000E+00 0. -1.
        -13    1    3    3    0    0  0.34002673353E+03 -0.23599046779E+03  0.13410609706E+03  0.43507944754E+03  0.00000000000E+00 0.  1.
         22    1    1    2    0    0 -0.47334797175E+03  0.40619384992E+03 -0.71564512671E+03  0.94931538145E+03  0.00000000000E+00 0. -1.
<mgrwt>
<rscale>  0 0.15337513E+04</rscale>
<asrwt>0</asrwt>
<pdfrwt beam="1">  1        2 0.16290152E+00 0.15337513E+04</pdfrwt>
<pdfrwt beam="2">  1       -2 0.85447242E-01 0.15337513E+04</pdfrwt>
<totfact> 0.26522516E+01</totfact>
</mgrwt>
</event>
<event>
 6    1  0.1780144E-005  0.3414933E+04  0.7818608E-02  0.8134251E-01
         -2   -1    0    0    0  501 -0.00000000000E+00  0.00000000000E+00  0.12167227548E+04  0.12167227548E+04  0.00000000000E+00 0.  1.
          2   -1    0    0  501    0  0.00000000000E+00 -0.00000000000E+00 -0.23961427481E+04  0.23961427481E+04  0.00000000000E+00 0. -1.
         23    2    1    2    0    0  0.12348572534E+04 -0.52019096928E+03 -0.17076809273E+04  0.21725423811E+04  0.91077809084E+02 0.  0.
         13    1    3    3    0    0  0.11147287263E+04 -0.49731951370E+03 -0.15435748800E+04  0.19678847127E+04  0.00000000000E+00 0.  1.
        -13    1    3    3    0    0  0.12012852705E+03 -0.22871455588E+02 -0.16410604725E+03  0.20465766840E+03  0.00000000000E+00 0. -1.
         22    1    1    2    0    0 -0.12348572534E+04  0.52019096928E+03  0.52826093402E+03  0.14403231218E+04  0.00000000000E+00 0.  1.
<mgrwt>
<rscale>  0 0.34149327E+04</rscale>
<asrwt>0</asrwt>
<pdfrwt beam="1">  1        2 0.36863734E+00 0.34149327E+04</pdfrwt>
<pdfrwt beam="2">  1       -2 0.18718812E+00 0.34149327E+04</pdfrwt>
<totfact> 0.53529967E-01</totfact>
</mgrwt>
</event>
<event>
 6    1  0.1780144E-005  0.2059028E+04  0.7818608E-02  0.8579510E-01
         -2   -1    0    0    0  501 -0.00000000000E+00  0.00000000000E+00  0.49175660412E+03  0.49175660412E+03  0.00000000000E+00 0.  1.
          2   -1    0    0  501    0  0.00000000000E+00 -0.00000000000E+00 -0.21553331384E+04  0.21553331384E+04  0.00000000000E+00 0. -1.
         23    2    1    2    0    0 -0.63067759971E+03 -0.52450872323E+03 -0.16289513250E+04  0.18260766241E+04  0.90607849818E+02 0.  0.
         13    1    3    3    0    0 -0.17638591517E+03 -0.11250818038E+03 -0.48217164105E+03  0.52560400794E+03  0.00000000000E+00 0.  1.
        -13    1    3    3    0    0 -0.45429168454E+03 -0.41200054285E+03 -0.11467796839E+04  0.13004726162E+04  0.00000000000E+00 0. -1.
         22    1    1    2    0    0  0.63067759971E+03  0.52450872323E+03 -0.34625209314E+02  0.82101311843E+03  0.00000000000E+00 0.  1.
<mgrwt>
<rscale>  0 0.20590282E+04</rscale>
<asrwt>0</asrwt>
<pdfrwt beam="1">  1        2 0.33158972E+00 0.20590282E+04</pdfrwt>
<pdfrwt beam="2">  1       -2 0.75654861E-01 0.20590282E+04</pdfrwt>
<totfact> 0.79229074E+00</totfact>
</mgrwt>
</event>
<event>
 6    1  0.1780144E-005  0.5844487E+03  0.7818608E-02  0.9938206E-01
         -1   -1    0    0    0  501 -0.00000000000E+00  0.00000000000E+00  0.13610887633E+04  0.13610887633E+04  0.00000000000E+00 0.  1.
          1   -1    0    0  501    0  0.00000000000E+00 -0.00000000000E+00 -0.62740263346E+02  0.62740263346E+02  0.00000000000E+00 0. -1.
         23    2    1    2    0    0 -0.12049149692E+03 -0.31809741489E+02  0.12896983379E+04  0.12989095094E+04  0.91181413977E+02 0.  0.
         13    1    3    3    0    0 -0.50144933603E+02  0.14363460918E+02  0.82548372087E+03  0.82713009665E+03  0.00000000000E+00 0. -1.
        -13    1    3    3    0    0 -0.70346563319E+02 -0.46173202407E+02  0.46421461707E+03  0.47177941275E+03  0.00000000000E+00 0.  1.
         22    1    1    2    0    0  0.12049149692E+03  0.31809741489E+02  0.86501620117E+01  0.12491951724E+03  0.00000000000E+00 0. -1.
<mgrwt>
<rscale>  0 0.58444869E+03</rscale>
<asrwt>0</asrwt>
<pdfrwt beam="1">  1        1 0.96523492E-02 0.58444869E+03</pdfrwt>
<pdfrwt beam="2">  1       -1 0.20939825E+00 0.58444869E+03</pdfrwt>
<totfact> 0.94653538E+01</totfact>
</mgrwt>
</event>
<event>
 6    1  0.1780144E-005  0.1798595E+04  0.7818608E-02  0.8707047E-01
          2   -1    0    0  501    0  0.00000000000E+00  0.00000000000E+00  0.74772270927E+03  0.74772270927E+03  0.00000000000E+00 0. -1.
         -2   -1    0    0    0  501 -0.00000000000E+00 -0.00000000000E+00 -0.10815992587E+04  0.10815992587E+04  0.00000000000E+00 0.  1.
         23    2    1    2    0    0 -0.17732023561E+03  0.18557969521E+03 -0.10415275439E+04  0.10765589114E+04  0.91198551510E+02 0.  0.
         11    1    3    3    0    0 -0.13618991415E+03  0.79558671751E+02 -0.56025432408E+03  0.58203280201E+03  0.00000000000E+00 0. -1.
        -11    1    3    3    0    0 -0.41130321464E+02  0.10602102346E+03 -0.48127321986E+03  0.49452610943E+03  0.00000000000E+00 0.  1.
         22    1    1    2    0    0  0.17732023561E+03 -0.18557969521E+03  0.70765099451E+03  0.75276305652E+03  0.00000000000E+00 0. -1.
<mgrwt>
<rscale>  0 0.17985954E+04</rscale>
<asrwt>0</asrwt>
<pdfrwt beam="1">  1        2 0.11503426E+00 0.17985954E+04</pdfrwt>
<pdfrwt beam="2">  1       -2 0.16639989E+00 0.17985954E+04</pdfrwt>
<totfact> 0.80352788E+00</totfact>
</mgrwt>
</event>
<event>
 6    1  0.1780144E-005  0.4159936E+04  0.7818608E-02  0.7973037E-01
          2   -1    0    0  501    0  0.00000000000E+00  0.00000000000E+00  0.26756735734E+04  0.26756735734E+04  0.00000000000E+00 0.  1.
         -2   -1    0    0    0  501 -0.00000000000E+00 -0.00000000000E+00 -0.16168885806E+04  0.16168885806E+04  0.00000000000E+00 0. -1.
         23    2    1    2    0    0 -0.92531990911E+03  0.18077622464E+04  0.70598448171E+02  0.20340817090E+04  0.91010901698E+02 0.  0.
         13    1    3    3    0    0 -0.37814966025E+03  0.83529631532E+03  0.21031209763E+02  0.91714743183E+03  0.00000000000E+00 0.  1.
        -13    1    3    3    0    0 -0.54717024885E+03  0.97246593110E+03  0.49567238408E+02  0.11169342772E+04  0.00000000000E+00 0. -1.
         22    1    1    2    0    0  0.92531990911E+03 -0.18077622464E+04  0.98818654459E+03  0.22584804451E+04  0.00000000000E+00 0.  1.
<mgrwt>
<rscale>  0 0.41599356E+04</rscale>
<asrwt>0</asrwt>
<pdfrwt beam="1">  1        2 0.41164209E+00 0.41599356E+04</pdfrwt>
<pdfrwt beam="2">  1       -2 0.24875209E+00 0.41599356E+04</pdfrwt>
<totfact> 0.13983802E-01</totfact>
</mgrwt>
</event>
<event>
 6    1  0.1780144E-005  0.9076800E+03  0.7818608E-02  0.9416032E-01
         -1   -1    0    0    0  501 -0.00000000000E+00  0.00000000000E+00  0.11070883400E+03  0.11070883400E+03  0.00000000000E+00 0.  1.
          1   -1    0    0  501    0  0.00000000000E+00 -0.00000000000E+00 -0.18604726162E+04  0.18604726162E+04  0.00000000000E+00 0. -1.
         23    2    1    2    0    0 -0.37845801744E+01 -0.30243351059E+03 -0.16632556070E+03  0.35911539923E+03  0.99092514590E+02 0.  0.
         13    1    3    3    0    0  0.42206807015E+02 -0.21877426279E+03 -0.11646299097E+03  0.25141046296E+03  0.00000000000E+00 0. -1.
        -13    1    3    3    0    0 -0.45991387189E+02 -0.83659247799E+02 -0.49862569736E+02  0.10770493628E+03  0.00000000000E+00 0.  1.
         22    1    1    2    0    0  0.37845801744E+01  0.30243351059E+03 -0.15834382215E+04  0.16120660510E+04  0.00000000000E+00 0. -1.
<mgrwt>
<rscale>  0 0.90768002E+03</rscale>
<asrwt>0</asrwt>
<pdfrwt beam="1">  1        1 0.28622653E+00 0.90768002E+03</pdfrwt>
<pdfrwt beam="2">  1       -1 0.17032130E-01 0.90768002E+03</pdfrwt>
<totfact> 0.10029657E+02</totfact>
</mgrwt>
</event>
<event>
 6    1  0.1780144E-005  0.5772382E+03  0.7818608E-02  0.9953788E-01
          2   -1    0    0  501    0  0.00000000000E+00  0.00000000000E+00  0.69258335061E+03  0.69258335061E+03  0.00000000000E+00 0. -1.
         -2   -1    0    0    0  501 -0.00000000000E+00 -0.00000000000E+00 -0.12027574590E+03  0.12027574590E+03  0.00000000000E+00 0.  1.
         23    2    1    2    0    0 -0.21553796273E+03  0.50347682624E+02  0.53834978284E+03  0.58892911597E+03  0.89585224359E+02 0.  0.
         13    1    3    3    0    0 -0.13175381107E+03  0.74734799833E+02  0.34718647783E+03  0.37879124518E+03  0.00000000000E+00 0. -1.
        -13    1    3    3    0    0 -0.83784151660E+02 -0.24387117209E+02  0.19116330501E+03  0.21013787079E+03  0.00000000000E+00 0.  1.
         22    1    1    2    0    0  0.21553796273E+03 -0.50347682624E+02  0.33957821869E+02  0.22392998055E+03  0.00000000000E+00 0.  1.
<mgrwt>
<rscale>  0 0.57723818E+03</rscale>
<asrwt>0</asrwt>
<pdfrwt beam="1">  1        2 0.10655128E+00 0.57723818E+03</pdfrwt>
<pdfrwt beam="2">  1       -2 0.18503961E-01 0.57723818E+03</pdfrwt>
<totfact> 0.10193354E+03</totfact>
</mgrwt>
</event>
<event>
 6    1  0.1780144E-005  0.2531668E+04  0.7818608E-02  0.8391790E-01
         -1   -1    0    0    0  501 -0.00000000000E+00  0.00000000000E+00  0.82031478100E+03  0.82031478100E+03  0.00000000000E+00 0.  1.
          1   -1    0    0  501    0  0.00000000000E+00 -0.00000000000E+00 -0.19533174611E+04  0.19533174611E+04  0.00000000000E+00 0. -1.
         23    2    1    2    0    0  0.10933400304E+03  0.10067345853E+04 -0.13964192069E+04  0.17272782312E+04  0.89638368905E+02 0.  0.
         13    1    3    3    0    0 -0.95998358717E+01  0.82239262508E+02 -0.14332902196E+03  0.16552541099E+03  0.00000000000E+00 0. -1.
        -13    1    3    3    0    0  0.11893383891E+03  0.92449532280E+03 -0.12530901849E+04  0.15617528202E+04  0.00000000000E+00 0.  1.
         22    1    1    2    0    0 -0.10933400304E+03 -0.10067345853E+04  0.26341652681E+03  0.10463540109E+04  0.00000000000E+00 0.  1.
<mgrwt>
<rscale>  0 0.25316676E+04</rscale>
<asrwt>0</asrwt>
<pdfrwt beam="1">  1        1 0.30051037E+00 0.25316676E+04</pdfrwt>
<pdfrwt beam="2">  1       -1 0.12620228E+00 0.25316676E+04</pdfrwt>
<totfact> 0.15515963E+00</totfact>
</mgrwt>
</event>
<event>
 6    1  0.1780144E-005  0.4216883E+04  0.7818608E-02  0.7962168E-01
          2   -1    0    0  501    0  0.00000000000E+00  0.00000000000E+00  0.40154529342E+04  0.40154529342E+04  0.00000000000E+00 0. -1.
         -2   -1    0    0    0  501 -0.00000000000E+00 -0.00000000000E+00 -0.11071046192E+04  0.11071046192E+04  0.00000000000E+00 0.  1.
         23    2    1    2    0    0 -0.19318460260E+04 -0.18131031546E+03  0.24539383111E+04  0.31297226505E+04  0.91913740784E+02 0.  0.
         13    1    3    3    0    0 -0.27349901195E+03 -0.22993074637E+02  0.40055597435E+03  0.48556717311E+03  0.00000000000E+00 0.  1.
        -13    1    3    3    0    0 -0.16583470140E+04 -0.15831724082E+03  0.20533823368E+04  0.26441554774E+04  0.00000000000E+00 0. -1.
         22    1    1    2    0    0  0.19318460260E+04  0.18131031546E+03  0.45441000387E+03  0.19928349029E+04  0.00000000000E+00 0.  1.
<mgrwt>
<rscale>  0 0.42168834E+04</rscale>
<asrwt>0</asrwt>
<pdfrwt beam="1">  1        2 0.61776198E+00 0.42168834E+04</pdfrwt>
<pdfrwt beam="2">  1       -2 0.17032379E+00 0.42168834E+04</pdfrwt>
<totfact> 0.54406508E-02</totfact>
</mgrwt>
</event>
<event>
 6    1  0.1780144E-005  0.1801866E+04  0.7818608E-02  0.8705308E-01
         -2   -1    0    0    0  501 -0.00000000000E+00  0.00000000000E+00  0.22572676922E+03  0.22572676922E+03  0.00000000000E+00 0.  1.
          2   -1    0    0  501    0  0.00000000000E+00 -0.00000000000E+00 -0.35958540317E+04  0.35958540317E+04  0.00000000000E+00 0. -1.
         23    2    1    2    0    0 -0.76546529633E+03 -0.45074195004E+03 -0.19740758838E+04  0.21668708937E+04  0.96168857804E+02 0.  0.
         11    1    3    3    0    0 -0.13357667438E+03 -0.90249960546E+02 -0.27798981898E+03  0.32135046720E+03  0.00000000000E+00 0. -1.
        -11    1    3    3    0    0 -0.63188862196E+03 -0.36049198949E+03 -0.16960860649E+04  0.18455204265E+04  0.00000000000E+00 0.  1.
         22    1    1    2    0    0  0.76546529633E+03  0.45074195004E+03 -0.13960513787E+04  0.16547099073E+04  0.00000000000E+00 0.  1.
<mgrwt>
<rscale>  0 0.18018663E+04</rscale>
<asrwt>0</asrwt>
<pdfrwt beam="1">  1        2 0.55320828E+00 0.18018663E+04</pdfrwt>
<pdfrwt beam="2">  1       -2 0.34727197E-01 0.18018663E+04</pdfrwt>
<totfact> 0.51502604E+00</totfact>
</mgrwt>
</event>
<event>
 6    1  0.1780144E-005  0.3360093E+04  0.7818608E-02  0.8147771E-01
          2   -1    0    0  501    0  0.00000000000E+00  0.00000000000E+00  0.18716674024E+04  0.18716674024E+04  0.00000000000E+00 0.  1.
         -2   -1    0    0    0  501 -0.00000000000E+00 -0.00000000000E+00 -0.15080440064E+04  0.15080440064E+04  0.00000000000E+00 0. -1.
         23    2    1    2    0    0 -0.16651343615E+04  0.17712598202E+03  0.30032806140E+03  0.17039869820E+04  0.96584859131E+02 0.  0.
         13    1    3    3    0    0 -0.10236946504E+04  0.15606640228E+03  0.18713475533E+03  0.10522960020E+04  0.00000000000E+00 0.  1.
        -13    1    3    3    0    0 -0.64143971105E+03  0.21059579746E+02  0.11319330607E+03  0.65169097995E+03  0.00000000000E+00 0. -1.
         22    1    1    2    0    0  0.16651343615E+04 -0.17712598202E+03  0.63295334627E+02  0.16757244268E+04  0.00000000000E+00 0.  1.
<mgrwt>
<rscale>  0 0.33600933E+04</rscale>
<asrwt>0</asrwt>
<pdfrwt beam="1">  1        2 0.28794883E+00 0.33600933E+04</pdfrwt>
<pdfrwt beam="2">  1       -2 0.23200677E+00 0.33600933E+04</pdfrwt>
<totfact> 0.54359435E-01</totfact>
</mgrwt>
</event>
<event>
 6    1  0.1780144E-005  0.1410720E+04  0.7818608E-02  0.8946095E-01
         -2   -1    0    0    0  501 -0.00000000000E+00  0.00000000000E+00  0.12261355825E+04  0.12261355825E+04  0.00000000000E+00 0. -1.
          2   -1    0    0  501    0  0.00000000000E+00 -0.00000000000E+00 -0.40577307024E+03  0.40577307024E+03  0.00000000000E+00 0.  1.
         23    2    1    2    0    0 -0.44088267812E+02 -0.68910940370E+03  0.26441980192E+03  0.74540549831E+03  0.94318501044E+02 0.  0.
         11    1    3    3    0    0  0.28013505665E+02 -0.27437691327E+03  0.11281404453E+03  0.29798398561E+03  0.00000000000E+00 0. -1.
        -11    1    3    3    0    0 -0.72101773477E+02 -0.41473249043E+03  0.15160575739E+03  0.44742151270E+03  0.00000000000E+00 0.  1.
         22    1    1    2    0    0  0.44088267812E+02  0.68910940370E+03  0.55594271033E+03  0.88650315442E+03  0.00000000000E+00 0.  1.
<mgrwt>
<rscale>  0 0.14107201E+04</rscale>
<asrwt>0</asrwt>
<pdfrwt beam="1">  1        2 0.62426627E-01 0.14107201E+04</pdfrwt>
<pdfrwt beam="2">  1       -2 0.18863624E+00 0.14107201E+04</pdfrwt>
<totfact> 0.12032830E+01</totfact>
</mgrwt>
</event>
<event>
 6    1  0.1780144E-005  0.3635485E+04  0.7818608E-02  0.8082412E-01
         -1   -1    0    0    0  501 -0.00000000000E+00  0.00000000000E+00  0.12248821000E+04  0.12248821000E+04  0.00000000000E+00 0.  1.
          1   -1    0    0  501    0  0.00000000000E+00 -0.00000000000E+00 -0.26975553233E+04  0.26975553233E+04  0.00000000000E+00 0. -1.
         23    2    1    2    0    0  0.51592707108E+03  0.35914961154E+03  0.11021825678E+04  0.12719560460E+04  0.88862726630E+02 0.  0.
         13    1    3    3    0    0  0.44674176361E+03  0.29219513233E+03  0.98448655443E+03  0.11198973054E+04  0.00000000000E+00 0. -1.
        -13    1    3    3    0    0  0.69185307469E+02  0.66954479210E+02  0.11769601336E+03  0.15205874068E+03  0.00000000000E+00 0.  1.
         22    1    1    2    0    0 -0.51592707108E+03 -0.35914961154E+03 -0.25748557911E+04  0.26504813773E+04  0.00000000000E+00 0. -1.
<mgrwt>
<rscale>  0 0.36354847E+04</rscale>
<asrwt>0</asrwt>
<pdfrwt beam="1">  1        1 0.41500851E+00 0.36354847E+04</pdfrwt>
<pdfrwt beam="2">  1       -1 0.18844340E+00 0.36354847E+04</pdfrwt>
<totfact> 0.14398473E-01</totfact>
</mgrwt>
</event>
<event>
 6    1  0.1919423E-005  0.4359428E+04  0.7818608E-02  0.7935720E-01
         -2   -1    0    0    0  501 -0.00000000000E+00  0.00000000000E+00  0.19465501184E+04  0.19465501184E+04  0.00000000000E+00 0. -1.
          2   -1    0    0  501    0  0.00000000000E+00 -0.00000000000E+00 -0.24408071909E+04  0.24408071909E+04  0.00000000000E+00 0.  1.
         23    2    1    2    0    0  0.50682892828E+03  0.15484351855E+04 -0.17030360367E+04  0.23586449910E+04  0.91363915758E+02 0.  0.
         11    1    3    3    0    0  0.27718668401E+03  0.70154696324E+03 -0.77908440235E+03  0.10844229366E+04  0.00000000000E+00 0.  1.
        -11    1    3    3    0    0  0.22964224427E+03  0.84688822227E+03 -0.92395163434E+03  0.12742220544E+04  0.00000000000E+00 0. -1.
         22    1    1    2    0    0 -0.50682892828E+03 -0.15484351855E+04  0.12087789642E+04  0.20287123183E+04  0.00000000000E+00 0. -1.
<mgrwt>
<rscale>  0 0.43594282E+04</rscale>
<asrwt>0</asrwt>
<pdfrwt beam="1">  1        2 0.37550880E+00 0.43594282E+04</pdfrwt>
<pdfrwt beam="2">  1       -2 0.29946925E+00 0.43594282E+04</pdfrwt>
<totfact> 0.92432847E-02</totfact>
</mgrwt>
</event>
<event>
 6    1  0.1780144E-005  0.9461670E+03  0.7818608E-02  0.9369642E-01
          1   -1    0    0  501    0  0.00000000000E+00  0.00000000000E+00  0.19573995308E+03  0.19573995308E+03  0.00000000000E+00 0. -1.
         -1   -1    0    0    0  501 -0.00000000000E+00 -0.00000000000E+00 -0.11433946218E+04  0.11433946218E+04  0.00000000000E+00 0.  1.
         23    2    1    2    0    0  0.34524134869E+03  0.11884543874E+03 -0.89407200631E+03  0.97009944259E+03  0.91718857863E+02 0.  0.
         11    1    3    3    0    0  0.27254319788E+03  0.71665143904E+02 -0.58880935336E+03  0.65277265734E+03  0.00000000000E+00 0. -1.
        -11    1    3    3    0    0  0.72698150808E+02  0.47180294838E+02 -0.30526265295E+03  0.31732678525E+03  0.00000000000E+00 0.  1.
         22    1    1    2    0    0 -0.34524134869E+03 -0.11884543874E+03 -0.53582662406E+02  0.36903513229E+03  0.00000000000E+00 0. -1.
<mgrwt>
<rscale>  0 0.94616702E+03</rscale>
<asrwt>0</asrwt>
<pdfrwt beam="1">  1        1 0.30113839E-01 0.94616702E+03</pdfrwt>
<pdfrwt beam="2">  1       -1 0.17590686E+00 0.94616702E+03</pdfrwt>
<totfact> 0.34329513E+01</totfact>
</mgrwt>
</event>
<event>
 6    1  0.1780144E-005  0.9828637E+03  0.7818608E-02  0.9327542E-01
          1   -1    0    0  501    0  0.00000000000E+00  0.00000000000E+00  0.91229097112E+03  0.91229097112E+03  0.00000000000E+00 0.  1.
         -1   -1    0    0    0  501 -0.00000000000E+00 -0.00000000000E+00 -0.26472392383E+03  0.26472392383E+03  0.00000000000E+00 0. -1.
         23    2    1    2    0    0 -0.25039365935E+03 -0.26771545390E+03  0.71113493571E+03  0.80498072268E+03  0.88952336646E+02 0.  0.
         11    1    3    3    0    0 -0.11125374719E+03 -0.11384019135E+03  0.40517279749E+03  0.43531825284E+03  0.00000000000E+00 0. -1.
        -11    1    3    3    0    0 -0.13913991217E+03 -0.15387526255E+03  0.30596213822E+03  0.36966246984E+03  0.00000000000E+00 0.  1.
         22    1    1    2    0    0  0.25039365935E+03  0.26771545390E+03 -0.63567888421E+02  0.37203417227E+03  0.00000000000E+00 0. -1.
<mgrwt>
<rscale>  0 0.98286366E+03</rscale>
<asrwt>0</asrwt>
<pdfrwt beam="1">  1        1 0.14035246E+00 0.98286366E+03</pdfrwt>
<pdfrwt beam="2">  1       -1 0.40726758E-01 0.98286366E+03</pdfrwt>
<totfact> 0.10505054E+02</totfact>
</mgrwt>
</event>
<event>
 6    1  0.4421410E-005  0.3410588E+04  0.7818608E-02  0.8135312E-01
          1   -1    0    0  501    0  0.00000000000E+00  0.00000000000E+00  0.15482887677E+04  0.15482887677E+04  0.00000000000E+00 0. -1.
         -1   -1    0    0    0  501 -0.00000000000E+00 -0.00000000000E+00 -0.18782207358E+04  0.18782207358E+04  0.00000000000E+00 0.  1.
         23    2    1    2    0    0 -0.42400891993E+03 -0.81805642754E+03  0.12751012792E+04  0.15757983948E+04  0.90870380612E+02 0.  0.
         11    1    3    3    0    0 -0.17496852473E+03 -0.26003878413E+03  0.39203657109E+03  0.50192312855E+03  0.00000000000E+00 0. -1.
        -11    1    3    3    0    0 -0.24904039520E+03 -0.55801764341E+03  0.88306470812E+03  0.10738752663E+04  0.00000000000E+00 0.  1.
         22    1    1    2    0    0  0.42400891993E+03  0.81805642754E+03 -0.16050332473E+04  0.18507111086E+04  0.00000000000E+00 0.  1.
<mgrwt>
<rscale>  0 0.34105883E+04</rscale>
<asrwt>0</asrwt>
<pdfrwt beam="1">  1        1 0.23819827E+00 0.34105883E+04</pdfrwt>
<pdfrwt beam="2">  1       -1 0.28895704E+00 0.34105883E+04</pdfrwt>
<totfact> 0.19386292E-01</totfact>
</mgrwt>
</event>
<event>
 6    1  0.1780144E-005  0.2926099E+04  0.7818608E-02  0.8265154E-01
         -2   -1    0    0    0  501 -0.00000000000E+00  0.00000000000E+00  0.11484447093E+04  0.11484447093E+04  0.00000000000E+00 0.  1.
          2   -1    0    0  501    0  0.00000000000E+00 -0.00000000000E+00 -0.18638367860E+04  0.18638367860E+04  0.00000000000E+00 0. -1.
         23    2    1    2    0    0 -0.11308720970E+04  0.78587870885E+03  0.14599961172E+03  0.13879438808E+04  0.92710758428E+02 0.  0.
         11    1    3    3    0    0 -0.68889198028E+02  0.64164677842E+02 -0.91925159257E+01  0.94590326337E+02  0.00000000000E+00 0. -1.
        -11    1    3    3    0    0 -0.10619828990E+04  0.72171403101E+03  0.15519212764E+03  0.12933535545E+04  0.00000000000E+00 0.  1.
         22    1    1    2    0    0  0.11308720970E+04 -0.78587870885E+03 -0.86139168844E+03  0.16243376145E+04  0.00000000000E+00 0.  1.
<mgrwt>
<rscale>  0 0.29260988E+04</rscale>
<asrwt>0</asrwt>
<pdfrwt beam="1">  1        2 0.28674412E+00 0.29260988E+04</pdfrwt>
<pdfrwt beam="2">  1       -2 0.17668380E+00 0.29260988E+04</pdfrwt>
<totfact> 0.13097824E+00</totfact>
</mgrwt>
</event>
<event>
 6    1  0.1780144E-005  0.9953932E+03  0.7818608E-02  0.9313612E-01
         -2   -1    0    0    0  501 -0.00000000000E+00  0.00000000000E+00  0.24421573672E+03  0.24421573672E+03  0.00000000000E+00 0.  1.
          2   -1    0    0  501    0  0.00000000000E+00 -0.00000000000E+00 -0.10142749815E+04  0.10142749815E+04  0.00000000000E+00 0. -1.
         23    2    1    2    0    0  0.14686145090E+02 -0.43545809272E+02 -0.10094902368E+04  0.10146893230E+04  0.91716758713E+02 0.  0.
         13    1    3    3    0    0  0.45896465177E+02  0.14339229184E+00 -0.34612028661E+03  0.34915005210E+03  0.00000000000E+00 0. -1.
        -13    1    3    3    0    0 -0.31210320086E+02 -0.43689201564E+02 -0.66336995014E+03  0.66553927094E+03  0.00000000000E+00 0.  1.
         22    1    1    2    0    0 -0.14686145090E+02  0.43545809272E+02  0.23943099199E+03  0.24380139517E+03  0.00000000000E+00 0.  1.
<mgrwt>
<rscale>  0 0.99539321E+03</rscale>
<asrwt>0</asrwt>
<pdfrwt beam="1">  1        2 0.15604230E+00 0.99539321E+03</pdfrwt>
<pdfrwt beam="2">  1       -2 0.37571652E-01 0.99539321E+03</pdfrwt>
<totfact> 0.16440083E+02</totfact>
</mgrwt>
</event>
<event>
 6    1  0.1780144E-005  0.1748722E+04  0.7818608E-02  0.8734054E-01
         -2   -1    0    0    0  501 -0.00000000000E+00  0.00000000000E+00  0.51901585928E+03  0.51901585928E+03  0.00000000000E+00 0.  1.
          2   -1    0    0  501    0  0.00000000000E+00 -0.00000000000E+00 -0.14729930520E+04  0.14729930520E+04  0.00000000000E+00 0. -1.
         23    2    1    2    0    0 -0.73691753390E+03  0.38950586122E+02  0.51639345504E+02  0.74468007658E+03  0.85540601585E+02 0.  0.
         13    1    3    3    0    0 -0.43146951474E+03  0.55682180615E+02  0.56736591216E+02  0.43873168130E+03  0.00000000000E+00 0. -1.
        -13    1    3    3    0    0 -0.30544801916E+03 -0.16731594493E+02 -0.50972457128E+01  0.30594839528E+03  0.00000000000E+00 0.  1.
         22    1    1    2    0    0  0.73691753390E+03 -0.38950586122E+02 -0.10056165383E+04  0.12473288347E+04  0.00000000000E+00 0. -1.
<mgrwt>
<rscale>  0 0.17487215E+04</rscale>
<asrwt>0</asrwt>
<pdfrwt beam="1">  1        2 0.22661431E+00 0.17487215E+04</pdfrwt>
<pdfrwt beam="2">  1       -2 0.79848594E-01 0.17487215E+04</pdfrwt>
<totfact> 0.17302364E+01</totfact>
</mgrwt>
</event>
<event>
 6    1  0.1780144E-005  0.3425091E+04  0.7818608E-02  0.8131775E-01
          1   -1    0    0  501    0  0.00000000000E+00  0.00000000000E+00  0.31614964385E+04  0.31614964385E+04  0.00000000000E+00 0. -1.
         -1   -1    0    0    0  501 -0.00000000000E+00 -0.00000000000E+00 -0.92766589783E+03  0.92766589783E+03  0.00000000000E+00 0.  1.
         23    2    1    2    0    0 -0.52827839021E+03  0.66431988968E+03  0.28915801233E+04  0.30153683678E+04  0.10397985641E+03 0.  0.
         13    1    3    3    0    0 -0.93743461522E+02  0.91221138486E+02  0.57612638855E+03  0.59078824317E+03  0.00000000000E+00 0. -1.
        -13    1    3    3    0    0 -0.43453492868E+03  0.57309875119E+03  0.23154537348E+04  0.24245801246E+04  0.00000000000E+00 0.  1.
         22    1    1    2    0    0  0.52827839021E+03 -0.66431988968E+03 -0.65774958266E+03  0.10737939685E+04  0.00000000000E+00 0.  1.
<mgrwt>
<rscale>  0 0.34250912E+04</rscale>
<asrwt>0</asrwt>
<pdfrwt beam="1">  1        1 0.48638406E+00 0.34250912E+04</pdfrwt>
<pdfrwt beam="2">  1       -1 0.14271783E+00 0.34250912E+04</pdfrwt>
<totfact> 0.14845657E-01</totfact>
</mgrwt>
</event>
<event>
 6    1  0.1780144E-005  0.5303765E+04  0.7818608E-02  0.7783284E-01
          2   -1    0    0  501    0  0.00000000000E+00  0.00000000000E+00  0.35859287250E+04  0.35859287250E+04  0.00000000000E+00 0. -1.
         -2   -1    0    0    0  501 -0.00000000000E+00 -0.00000000000E+00 -0.19611324484E+04  0.19611324484E+04  0.00000000000E+00 0.  1.
         23    2    1    2    0    0 -0.15361736939E+04 -0.21429650254E+04  0.52454055010E+03  0.26900187548E+04  0.94495475084E+02 0.  0.
         11    1    3    3    0    0 -0.90735344521E+03 -0.13284418912E+04  0.29121349218E+03  0.16348863664E+04  0.00000000000E+00 0.  1.
        -11    1    3    3    0    0 -0.62882024868E+03 -0.81452313418E+03  0.23332705792E+03  0.10551323885E+04  0.00000000000E+00 0. -1.
         22    1    1    2    0    0  0.15361736939E+04  0.21429650254E+04  0.11002557264E+04  0.28570424186E+04  0.00000000000E+00 0.  1.
<mgrwt>
<rscale>  0 0.53037651E+04</rscale>
<asrwt>0</asrwt>
<pdfrwt beam="1">  1        2 0.55168134E+00 0.53037651E+04</pdfrwt>
<pdfrwt beam="2">  1       -2 0.30171269E+00 0.53037651E+04</pdfrwt>
<totfact> 0.15544091E-02</totfact>
</mgrwt>
</event>
<event>
 6    1  0.1780144E-005  0.2611760E+04  0.7818608E-02  0.8364218E-01
         -2   -1    0    0    0  501 -0.00000000000E+00  0.00000000000E+00  0.72310570941E+03  0.72310570941E+03  0.00000000000E+00 0.  1.
          2   -1    0    0  501    0  0.00000000000E+00 -0.00000000000E+00 -0.23583307819E+04  0.23583307819E+04  0.00000000000E+00 0. -1.
         23    2    1    2    0    0 -0.79801867412E+03 -0.37415813745E+03  0.31560799535E+03  0.94074086263E+03  0.92503231432E+02 0.  0.
         13    1    3    3    0    0 -0.67110850946E+03 -0.29591627670E+03  0.29360247327E+03  0.79003511732E+03  0.00000000000E+00 0. -1.
        -13    1    3    3    0    0 -0.12691016466E+03 -0.78241860751E+02  0.22005522083E+02  0.15070574531E+03  0.00000000000E+00 0.  1.
         22    1    1    2    0    0  0.79801867412E+03  0.37415813745E+03 -0.19508330679E+04  0.21406956287E+04  0.00000000000E+00 0. -1.
<mgrwt>
<rscale>  0 0.26117599E+04</rscale>
<asrwt>0</asrwt>
<pdfrwt beam="1">  1        2 0.36282012E+00 0.26117599E+04</pdfrwt>
<pdfrwt beam="2">  1       -2 0.11124703E+00 0.26117599E+04</pdfrwt>
<totfact> 0.23722580E+00</totfact>
</mgrwt>
</event>
<event>
 6    1  0.1780144E-005  0.1035185E+04  0.7818608E-02  0.9270774E-01
          2   -1    0    0  501    0  0.00000000000E+00  0.00000000000E+00  0.11440877140E+04  0.11440877140E+04  0.00000000000E+00 0. -1.
         -2   -1    0    0    0  501 -0.00000000000E+00 -0.00000000000E+00 -0.23416230513E+03  0.23416230513E+03  0.00000000000E+00 0.  1.
         23    2    1    2    0    0 -0.29584411174E+03 -0.37931015292E+03  0.69736135861E+03  0.85233804356E+03  0.93634104204E+02 0.  0.
         11    1    3    3    0    0 -0.25902215253E+03 -0.27305617415E+03  0.56158842857E+03  0.67604268567E+03  0.00000000000E+00 0.  1.
        -11    1    3    3    0    0 -0.36821959211E+02 -0.10625397877E+03  0.13577293003E+03  0.17629535790E+03  0.00000000000E+00 0. -1.
         22    1    1    2    0    0  0.29584411174E+03  0.37931015292E+03  0.21256405022E+03  0.52591197553E+03  0.00000000000E+00 0. -1.
<mgrwt>
<rscale>  0 0.10351854E+04</rscale>
<asrwt>0</asrwt>
<pdfrwt beam="1">  1        2 0.17601349E+00 0.10351854E+04</pdfrwt>
<pdfrwt beam="2">  1       -2 0.36024971E-01 0.10351854E+04</pdfrwt>
<totfact> 0.14768658E+02</totfact>
</mgrwt>
</event>
<event>
 6    1  0.1780144E-005  0.8255434E+04  0.7818608E-02  0.7460217E-01
          1   -1    0    0  501    0  0.00000000000E+00  0.00000000000E+00  0.41826513621E+04  0.41826513621E+04  0.00000000000E+00 0. -1.
         -1   -1    0    0    0  501 -0.00000000000E+00 -0.00000000000E+00 -0.40735040790E+04  0.40735040790E+04  0.00000000000E+00 0.  1.
         23    2    1    2    0    0  0.37763002657E+04  0.13805587199E+04  0.98593323820E+03  0.41409228005E+04  0.93761473226E+02 0.  0.
         11    1    3    3    0    0  0.27583767498E+04  0.10066033062E+04  0.76270421913E+03  0.30337452490E+04  0.00000000000E+00 0.  1.
        -11    1    3    3    0    0  0.10179235158E+04  0.37395541378E+03  0.22322901907E+03  0.11071775515E+04  0.00000000000E+00 0. -1.
         22    1    1    2    0    0 -0.37763002657E+04 -0.13805587199E+04 -0.87678595507E+03  0.41152326406E+04  0.00000000000E+00 0.  1.
<mgrwt>
<rscale>  0 0.82554339E+04</rscale>
<asrwt>0</asrwt>
<pdfrwt beam="1">  1        1 0.64348482E+00 0.82554339E+04</pdfrwt>
<pdfrwt beam="2">  1       -1 0.62669294E+00 0.82554339E+04</pdfrwt>
<totfact> 0.13471836E-05</totfact>
</mgrwt>
</event>
<event>
 6    1  0.1780144E-005  0.5139849E+04  0.7818608E-02  0.7807289E-01
          1   -1    0    0  501    0  0.00000000000E+00  0.00000000000E+00  0.20083166603E+04  0.20083166603E+04  0.00000000000E+00 0. -1.
         -1   -1    0    0    0  501 -0.00000000000E+00 -0.00000000000E+00 -0.32885803805E+04  0.32885803805E+04  0.00000000000E+00 0.  1.
         23    2    1    2    0    0 -0.24878930098E+04  0.55847084242E+03 -0.96456200107E+03  0.27276230410E+04  0.89701115026E+02 0.  0.
         13    1    3    3    0    0 -0.22709675113E+04  0.53523209684E+03 -0.87858576846E+03  0.24931265085E+04  0.00000000000E+00 0.  1.
        -13    1    3    3    0    0 -0.21692549852E+03  0.23238745587E+02 -0.85976232608E+02  0.23449653255E+03  0.00000000000E+00 0. -1.
         22    1    1    2    0    0  0.24878930098E+04 -0.55847084242E+03 -0.31570171918E+03  0.25692739997E+04  0.00000000000E+00 0.  1.
<mgrwt>
<rscale>  0 0.51398485E+04</rscale>
<asrwt>0</asrwt>
<pdfrwt beam="1">  1        1 0.30897180E+00 0.51398485E+04</pdfrwt>
<pdfrwt beam="2">  1       -1 0.50593544E+00 0.51398485E+04</pdfrwt>
<totfact> 0.28875959E-03</totfact>
</mgrwt>
</event>
<event>
 6    1  0.1780144E-005  0.2445904E+04  0.7818608E-02  0.8422515E-01
          1   -1    0    0  501    0  0.00000000000E+00  0.00000000000E+00  0.87484223146E+03  0.87484223146E+03  0.00000000000E+00 0. -1.
         -1   -1    0    0    0  501 -0.00000000000E+00 -0.00000000000E+00 -0.17095786761E+04  0.17095786761E+04  0.00000000000E+00 0.  1.
         23    2    1    2    0    0 -0.63957340390E+03 -0.46368500420E+03 -0.14024969829E+04  0.16115848726E+04  0.78422525895E+02 0.  0.
         11    1    3    3    0    0 -0.41276478566E+03 -0.25463187145E+03 -0.88244983359E+03  0.10069408459E+04  0.00000000000E+00 0. -1.
        -11    1    3    3    0    0 -0.22680861824E+03 -0.20905313275E+03 -0.52004714926E+03  0.60464402675E+03  0.00000000000E+00 0.  1.
         22    1    1    2    0    0  0.63957340390E+03  0.46368500420E+03  0.56776053823E+03  0.97283603494E+03  0.00000000000E+00 0. -1.
<mgrwt>
<rscale>  0 0.24459040E+04</rscale>
<asrwt>0</asrwt>
<pdfrwt beam="1">  1        1 0.13459111E+00 0.24459040E+04</pdfrwt>
<pdfrwt beam="2">  1       -1 0.26301210E+00 0.24459040E+04</pdfrwt>
<totfact> 0.97727813E-01</totfact>
</mgrwt>
</event>
<event>
 6    1  0.1780144E-005  0.1007114E+04  0.7818608E-02  0.9300776E-01
         -2   -1    0    0    0  501 -0.00000000000E+00  0.00000000000E+00  0.36746566892E+03  0.36746566892E+03  0.00000000000E+00 0.  1.
          2   -1    0    0  501    0  0.00000000000E+00 -0.00000000000E+00 -0.69005053458E+03  0.69005053458E+03  0.00000000000E+00 0. -1.
         23    2    1    2    0    0  0.20312196017E+03 -0.36260625033E+03  0.12757195141E+03  0.44483114293E+03  0.94118645600E+02 0.  0.
         11    1    3    3    0    0  0.67210632175E+02 -0.48102545652E+02  0.13628928719E+02  0.83766769507E+02  0.00000000000E+00 0. -1.
        -11    1    3    3    0    0  0.13591132800E+03 -0.31450370468E+03  0.11394302269E+03  0.36106437342E+03  0.00000000000E+00 0.  1.
         22    1    1    2    0    0 -0.20312196017E+03  0.36260625033E+03 -0.45015681707E+03  0.61268506057E+03  0.00000000000E+00 0. -1.
<mgrwt>
<rscale>  0 0.10071145E+04</rscale>
<asrwt>0</asrwt>
<pdfrwt beam="1">  1        2 0.10616162E+00 0.10071145E+04</pdfrwt>
<pdfrwt beam="2">  1       -2 0.56533181E-01 0.10071145E+04</pdfrwt>
<totfact> 0.12228654E+02</totfact>
</mgrwt>
</event>
<event>
 6    1  0.1780144E-005  0.1117094E+04  0.7818608E-02  0.9188689E-01
          2   -1    0    0  501    0  0.00000000000E+00  0.00000000000E+00  0.39419449633E+03  0.39419449633E+03  0.00000000000E+00 0. -1.
         -2   -1    0    0    0  501 -0.00000000000E+00 -0.00000000000E+00 -0.79142368986E+03  0.79142368986E+03  0.00000000000E+00 0.  1.
         23    2    1    2    0    0 -0.18776458717E+03  0.26435714476E+03 -0.67775431340E+03  0.75685883287E+03  0.91346282776E+02 0.  0.
         13    1    3    3    0    0 -0.54309266426E+02  0.83966536329E+02 -0.31323901106E+03  0.32881385873E+03  0.00000000000E+00 0. -1.
        -13    1    3    3    0    0 -0.13345532074E+03  0.18039060843E+03 -0.36451530234E+03  0.42804497414E+03  0.00000000000E+00 0.  1.
         22    1    1    2    0    0  0.18776458717E+03 -0.26435714476E+03  0.28052511987E+03  0.42875935332E+03  0.00000000000E+00 0. -1.
<mgrwt>
<rscale>  0 0.11170942E+04</rscale>
<asrwt>0</asrwt>
<pdfrwt beam="1">  1        2 0.60645307E-01 0.11170942E+04</pdfrwt>
<pdfrwt beam="2">  1       -2 0.12175749E+00 0.11170942E+04</pdfrwt>
<totfact> 0.41044809E+01</totfact>
</mgrwt>
</event>
<event>
 6    1  0.1780144E-005  0.5366582E+04  0.7818608E-02  0.7774319E-01
         -1   -1    0    0    0  501 -0.00000000000E+00  0.00000000000E+00  0.27532404696E+04  0.27532404696E+04  0.00000000000E+00 0.  1.
          1   -1    0    0  501    0  0.00000000000E+00 -0.00000000000E+00 -0.26151186309E+04  0.26151186309E+04  0.00000000000E+00 0. -1.
         23    2    1    2    0    0 -0.24626969633E+04  0.92443730307E+03 -0.45701775041E+03  0.26713882458E+04  0.89382744356E+02 0.  0.
         13    1    3    3    0    0 -0.92287798008E+03  0.36420709660E+03 -0.13181970498E+03  0.10008631325E+04  0.00000000000E+00 0. -1.
        -13    1    3    3    0    0 -0.15398189833E+04  0.56023020648E+03 -0.32519804543E+03  0.16705251133E+04  0.00000000000E+00 0.  1.
         22    1    1    2    0    0  0.24626969633E+04 -0.92443730307E+03  0.59513958909E+03  0.26969708547E+04  0.00000000000E+00 0.  1.
<mgrwt>
<rscale>  0 0.53665819E+04</rscale>
<asrwt>0</asrwt>
<pdfrwt beam="1">  1        1 0.40232594E+00 0.53665819E+04</pdfrwt>
<pdfrwt beam="2">  1       -1 0.42357546E+00 0.53665819E+04</pdfrwt>
<totfact> 0.38968204E-03</totfact>
</mgrwt>
</event>
<event>
 6    1  0.1780144E-005  0.1632766E+04  0.7818608E-02  0.8800667E-01
         -1   -1    0    0    0  501 -0.00000000000E+00  0.00000000000E+00  0.54805449412E+03  0.54805449412E+03  0.00000000000E+00 0.  1.
          1   -1    0    0  501    0  0.00000000000E+00 -0.00000000000E+00 -0.12160863794E+04  0.12160863794E+04  0.00000000000E+00 0. -1.
         23    2    1    2    0    0 -0.69378784249E+02  0.81069550167E+03 -0.31848204339E+03  0.87857568444E+03  0.91781311840E+02 0.  0.
         11    1    3    3    0    0 -0.80718219232E+02  0.42246471934E+03 -0.15516695533E+03  0.45724025854E+03  0.00000000000E+00 0.  1.
        -11    1    3    3    0    0  0.11339434983E+02  0.38823078233E+03 -0.16331508806E+03  0.42133542590E+03  0.00000000000E+00 0. -1.
         22    1    1    2    0    0  0.69378784249E+02 -0.81069550167E+03 -0.34954984188E+03  0.88556518907E+03  0.00000000000E+00 0.  1.
<mgrwt>
<rscale>  0 0.16327665E+04</rscale>
<asrwt>0</asrwt>
<pdfrwt beam="1">  1        1 0.18709021E+00 0.16327665E+04</pdfrwt>
<pdfrwt beam="2">  1       -1 0.84316076E-01 0.16327665E+04</pdfrwt>
<totfact> 0.13868075E+01</totfact>
</mgrwt>
</event>
<event>
 6    1  0.1780144E-005  0.2094849E+04  0.7818608E-02  0.8563516E-01
         -1   -1    0    0    0  501 -0.00000000000E+00  0.00000000000E+00  0.93148838315E+03  0.93148838315E+03  0.00000000000E+00 0.  1.
          1   -1    0    0  501    0  0.00000000000E+00 -0.00000000000E+00 -0.11777905993E+04  0.11777905993E+04  0.00000000000E+00 0. -1.
         23    2    1    2    0    0 -0.22353460592E+03  0.93903167741E+02  0.90100160103E+03  0.93663599590E+03  0.81838736543E+02 0.  0.
         11    1    3    3    0    0 -0.12213325327E+03  0.36399022102E+02  0.32782135078E+03  0.35172184805E+03  0.00000000000E+00 0. -1.
        -11    1    3    3    0    0 -0.10140135265E+03  0.57504145639E+02  0.57318025025E+03  0.58491414786E+03  0.00000000000E+00 0.  1.
         22    1    1    2    0    0  0.22353460592E+03 -0.93903167741E+02 -0.11473038172E+04  0.11726429865E+04  0.00000000000E+00 0. -1.
<mgrwt>
<rscale>  0 0.20948492E+04</rscale>
<asrwt>0</asrwt>
<pdfrwt beam="1">  1        1 0.18119855E+00 0.20948492E+04</pdfrwt>
<pdfrwt beam="2">  1       -1 0.14330591E+00 0.20948492E+04</pdfrwt>
<totfact> 0.40241736E+00</totfact>
</mgrwt>
</event>
<event>
 6    1  0.1780144E-005  0.2954023E+04  0.7818608E-02  0.8256983E-01
         -1   -1    0    0    0  501 -0.00000000000E+00  0.00000000000E+00  0.12772070483E+04  0.12772070483E+04  0.00000000000E+00 0.  1.
          1   -1    0    0  501    0  0.00000000000E+00 -0.00000000000E+00 -0.17080730272E+04  0.17080730272E+04  0.00000000000E+00 0. -1.
         23    2    1    2    0    0  0.17985538565E+03 -0.99096095344E+03  0.87425804371E+03  0.13367351761E+04  0.90455696456E+02 0.  0.
         13    1    3    3    0    0  0.16581233398E+03 -0.80795725062E+03  0.75243144921E+03  0.11164415501E+04  0.00000000000E+00 0.  1.
        -13    1    3    3    0    0  0.14043051675E+02 -0.18300370281E+03  0.12182659451E+03  0.22029362604E+03  0.00000000000E+00 0. -1.
         22    1    1    2    0    0 -0.17985538565E+03  0.99096095344E+03 -0.13051240226E+04  0.16485448994E+04  0.00000000000E+00 0. -1.
<mgrwt>
<rscale>  0 0.29540230E+04</rscale>
<asrwt>0</asrwt>
<pdfrwt beam="1">  1        1 0.26278047E+00 0.29540230E+04</pdfrwt>
<pdfrwt beam="2">  1       -1 0.19649339E+00 0.29540230E+04</pdfrwt>
<totfact> 0.63998692E-01</totfact>
</mgrwt>
</event>
<event>
 6    1  0.1780144E-005  0.3251905E+04  0.7818608E-02  0.8175242E-01
         -2   -1    0    0    0  501 -0.00000000000E+00  0.00000000000E+00  0.20339949555E+04  0.20339949555E+04  0.00000000000E+00 0. -1.
          2   -1    0    0  501    0  0.00000000000E+00 -0.00000000000E+00 -0.12997682132E+04  0.12997682132E+04  0.00000000000E+00 0.  1.
         23    2    1    2    0    0  0.13187930425E+04  0.58633283707E+03 -0.39762884484E+03  0.14996153135E+04  0.87955133270E+02 0.  0.
         11    1    3    3    0    0  0.59647981165E+02  0.16551433599E+02 -0.15655593578E+01  0.61921584180E+02  0.00000000000E+00 0. -1.
        -11    1    3    3    0    0  0.12591450613E+04  0.56978140347E+03 -0.39606328548E+03  0.14376937293E+04  0.00000000000E+00 0.  1.
         22    1    1    2    0    0 -0.13187930425E+04 -0.58633283707E+03  0.11318555870E+04  0.18341478552E+04  0.00000000000E+00 0. -1.
<mgrwt>
<rscale>  0 0.32519053E+04</rscale>
<asrwt>0</asrwt>
<pdfrwt beam="1">  1        2 0.19996434E+00 0.32519053E+04</pdfrwt>
<pdfrwt beam="2">  1       -2 0.31292230E+00 0.32519053E+04</pdfrwt>
<totfact> 0.36704112E-01</totfact>
</mgrwt>
</event>
<event>
 6    1  0.1780144E-005  0.2571161E+04  0.7818608E-02  0.8378064E-01
          1   -1    0    0  501    0  0.00000000000E+00  0.00000000000E+00  0.36862101601E+04  0.36862101601E+04  0.00000000000E+00 0. -1.
         -1   -1    0    0    0  501 -0.00000000000E+00 -0.00000000000E+00 -0.44835126541E+03  0.44835126541E+03  0.00000000000E+00 0.  1.
         23    2    1    2    0    0 -0.58152980824E+03  0.10067153728E+04  0.24972108687E+04  0.27560795584E+04  0.90882615452E+02 0.  0.
         13    1    3    3    0    0 -0.35754435781E+03  0.68118529108E+03  0.17188834520E+04  0.18831918889E+04  0.00000000000E+00 0. -1.
        -13    1    3    3    0    0 -0.22398545043E+03  0.32553008169E+03  0.77832741663E+03  0.87288766950E+03  0.00000000000E+00 0.  1.
         22    1    1    2    0    0  0.58152980824E+03 -0.10067153728E+04  0.74064802606E+03  0.13784818672E+04  0.00000000000E+00 0.  1.
<mgrwt>
<rscale>  0 0.25711608E+04</rscale>
<asrwt>0</asrwt>
<pdfrwt beam="1">  1        1 0.56710924E+00 0.25711608E+04</pdfrwt>
<pdfrwt beam="2">  1       -1 0.68977120E-01 0.25711608E+04</pdfrwt>
<totfact> 0.33282785E-01</totfact>
</mgrwt>
</event>
<event>
 6    1  0.1780144E-005  0.2467092E+04  0.7818608E-02  0.8414804E-01
          1   -1    0    0  501    0  0.00000000000E+00  0.00000000000E+00  0.27704946050E+04  0.27704946050E+04  0.00000000000E+00 0. -1.
         -1   -1    0    0    0  501 -0.00000000000E+00 -0.00000000000E+00 -0.54922912628E+03  0.54922912628E+03  0.00000000000E+00 0.  1.
         23    2    1    2    0    0 -0.97223255051E+03 -0.75347284737E+03  0.10272052553E+04  0.16054491672E+04  0.96741552028E+02 0.  0.
         11    1    3    3    0    0 -0.47285062916E+03 -0.31294589266E+03  0.44234965891E+03  0.71916345150E+03  0.00000000000E+00 0. -1.
        -11    1    3    3    0    0 -0.49938192135E+03 -0.44052695471E+03  0.58485559640E+03  0.88628571569E+03  0.00000000000E+00 0.  1.
         22    1    1    2    0    0  0.97223255051E+03  0.75347284737E+03  0.11940602234E+04  0.17142745641E+04  0.00000000000E+00 0.  1.
<mgrwt>
<rscale>  0 0.24670925E+04</rscale>
<asrwt>0</asrwt>
<pdfrwt beam="1">  1        1 0.42622993E+00 0.24670925E+04</pdfrwt>
<pdfrwt beam="2">  1       -1 0.84496791E-01 0.24670925E+04</pdfrwt>
<totfact> 0.10806185E+00</totfact>
</mgrwt>
</event>
<event>
 6    1  0.1780144E-005  0.2962203E+04  0.7818608E-02  0.8254607E-01
         -1   -1    0    0    0  501 -0.00000000000E+00  0.00000000000E+00  0.20585031403E+04  0.20585031403E+04  0.00000000000E+00 0.  1.
          1   -1    0    0  501    0  0.00000000000E+00 -0.00000000000E+00 -0.10656585709E+04  0.10656585709E+04  0.00000000000E+00 0. -1.
         23    2    1    2    0    0 -0.72689440158E+03  0.89605576460E+02 -0.85914880777E+03  0.11326085235E+04  0.90888740352E+02 0.  0.
         13    1    3    3    0    0 -0.51833495200E+03  0.97547087603E+02 -0.65096002240E+03  0.83781591506E+03  0.00000000000E+00 0.  1.
        -13    1    3    3    0    0 -0.20855944959E+03 -0.79415111424E+01 -0.20818878536E+03  0.29479260839E+03  0.00000000000E+00 0. -1.
         22    1    1    2    0    0  0.72689440158E+03 -0.89605576460E+02  0.18519933772E+04  0.19915531877E+04  0.00000000000E+00 0.  1.
<mgrwt>
<rscale>  0 0.29622029E+04</rscale>
<asrwt>0</asrwt>
<pdfrwt beam="1">  1        1 0.16394747E+00 0.29622029E+04</pdfrwt>
<pdfrwt beam="2">  1       -1 0.31669279E+00 0.29622029E+04</pdfrwt>
<totfact> 0.29561272E-01</totfact>
</mgrwt>
</event>
<event>
 6    1  0.1780144E-005  0.2994745E+04  0.7818608E-02  0.8245233E-01
         -2   -1    0    0    0  501 -0.00000000000E+00  0.00000000000E+00  0.75157687411E+03  0.75157687411E+03  0.00000000000E+00 0. -1.
          2   -1    0    0  501    0  0.00000000000E+00 -0.00000000000E+00 -0.29832271164E+04  0.29832271164E+04  0.00000000000E+00 0.  1.
         23    2    1    2    0    0  0.68859237287E+03  0.24498047705E+03 -0.27445790662E+04  0.28419037338E+04  0.97609892524E+02 0.  0.
         11    1    3    3    0    0  0.42181409678E+03  0.14348750517E+03 -0.14856561128E+04  0.15510286528E+04  0.00000000000E+00 0.  1.
        -11    1    3    3    0    0  0.26677827609E+03  0.10149297187E+03 -0.12589229534E+04  0.12908750809E+04  0.00000000000E+00 0. -1.
         22    1    1    2    0    0 -0.68859237287E+03 -0.24498047705E+03  0.51292882392E+03  0.89290025675E+03  0.00000000000E+00 0. -1.
<mgrwt>
<rscale>  0 0.29947451E+04</rscale>
<asrwt>0</asrwt>
<pdfrwt beam="1">  1        2 0.45895802E+00 0.29947451E+04</pdfrwt>
<pdfrwt beam="2">  1       -2 0.11562721E+00 0.29947451E+04</pdfrwt>
<totfact> 0.88833329E-01</totfact>
</mgrwt>
</event>
<event>
 6    1  0.1780144E-005  0.1667923E+04  0.7818608E-02  0.8779874E-01
          3   -1    0    0  501    0  0.00000000000E+00  0.00000000000E+00  0.92948330743E+03  0.92948330743E+03  0.00000000000E+00 0. -1.
         -3   -1    0    0    0  501 -0.00000000000E+00 -0.00000000000E+00 -0.74825607162E+03  0.74825607162E+03  0.00000000000E+00 0.  1.
         23    2    1    2    0    0 -0.42051159245E+03  0.71169934805E+03  0.18039141483E+03  0.85109153382E+03  0.92031380516E+02 0.  0.
         11    1    3    3    0    0 -0.11794149498E+03  0.28026595282E+03  0.83182433038E+02  0.31524358474E+03  0.00000000000E+00 0. -1.
        -11    1    3    3    0    0 -0.30257009747E+03  0.43143339523E+03  0.97208981788E+02  0.53584794909E+03  0.00000000000E+00 0.  1.
         22    1    1    2    0    0  0.42051159245E+03 -0.71169934805E+03  0.83582098260E+00  0.82664784522E+03  0.00000000000E+00 0.  1.
<mgrwt>
<rscale>  0 0.16679227E+04</rscale>
<asrwt>0</asrwt>
<pdfrwt beam="1">  1        3 0.14299743E+00 0.16679227E+04</pdfrwt>
<pdfrwt beam="2">  1       -3 0.11511632E+00 0.16679227E+04</pdfrwt>
<totfact> 0.57125549E-01</totfact>
</mgrwt>
</event>
<event>
 6    1  0.1780144E-005  0.2167079E+04  0.7818608E-02  0.8532257E-01
          2   -1    0    0  501    0  0.00000000000E+00  0.00000000000E+00  0.15645006867E+04  0.15645006867E+04  0.00000000000E+00 0. -1.
         -2   -1    0    0    0  501 -0.00000000000E+00 -0.00000000000E+00 -0.75043596961E+03  0.75043596961E+03  0.00000000000E+00 0.  1.
         23    2    1    2    0    0  0.10646487357E+03  0.10665928841E+04  0.25288097113E+03  0.11050265991E+04  0.90442520366E+02 0.  0.
         11    1    3    3    0    0  0.50842477736E+02  0.17147503562E+03  0.43173214045E+02  0.18399068399E+03  0.00000000000E+00 0. -1.
        -11    1    3    3    0    0  0.55622395832E+02  0.89511784849E+03  0.20970775709E+03  0.92103591514E+03  0.00000000000E+00 0.  1.
         22    1    1    2    0    0 -0.10646487357E+03 -0.10665928841E+04  0.56118374598E+03  0.12099100572E+04  0.00000000000E+00 0. -1.
<mgrwt>
<rscale>  0 0.21670788E+04</rscale>
<asrwt>0</asrwt>
<pdfrwt beam="1">  1        2 0.24069241E+00 0.21670788E+04</pdfrwt>
<pdfrwt beam="2">  1       -2 0.11545169E+00 0.21670788E+04</pdfrwt>
<totfact> 0.62501004E+00</totfact>
</mgrwt>
</event>
<event>
 6    1  0.1780144E-005  0.3922623E+04  0.7818608E-02  0.8020340E-01
          1   -1    0    0  501    0  0.00000000000E+00  0.00000000000E+00  0.11889245266E+04  0.11889245266E+04  0.00000000000E+00 0. -1.
         -1   -1    0    0    0  501 -0.00000000000E+00 -0.00000000000E+00 -0.32354814303E+04  0.32354814303E+04  0.00000000000E+00 0.  1.
         23    2    1    2    0    0  0.10912001603E+04 -0.11930378473E+04  0.22625534523E+03  0.16351887525E+04  0.92702104352E+02 0.  0.
         13    1    3    3    0    0  0.40319704574E+03 -0.50166217524E+03  0.70480301453E+02  0.64745676972E+03  0.00000000000E+00 0. -1.
        -13    1    3    3    0    0  0.68800311453E+03 -0.69137567201E+03  0.15577504378E+03  0.98773198273E+03  0.00000000000E+00 0.  1.
         22    1    1    2    0    0 -0.10912001603E+04  0.11930378473E+04 -0.22728122489E+04  0.27892172044E+04  0.00000000000E+00 0.  1.
<mgrwt>
<rscale>  0 0.39226232E+04</rscale>
<asrwt>0</asrwt>
<pdfrwt beam="1">  1        1 0.18291147E+00 0.39226232E+04</pdfrwt>
<pdfrwt beam="2">  1       -1 0.49776638E+00 0.39226232E+04</pdfrwt>
<totfact> 0.13220145E-02</totfact>
</mgrwt>
</event>
<event>
 6    1  0.1780144E-005  0.3706787E+04  0.7818608E-02  0.8066459E-01
         -2   -1    0    0    0  501 -0.00000000000E+00  0.00000000000E+00  0.11038934931E+04  0.11038934931E+04  0.00000000000E+00 0.  1.
          2   -1    0    0  501    0  0.00000000000E+00 -0.00000000000E+00 -0.31117749285E+04  0.31117749285E+04  0.00000000000E+00 0. -1.
         23    2    1    2    0    0 -0.16193020847E+04 -0.38690797391E+03 -0.81137322519E+02  0.16692631321E+04  0.89549523713E+02 0.  0.
         11    1    3    3    0    0 -0.88031008065E+03 -0.16603592834E+03 -0.31880949329E+02  0.89639843961E+03  0.00000000000E+00 0.  1.
        -11    1    3    3    0    0 -0.73899200408E+03 -0.22087204556E+03 -0.49256373190E+02  0.77286469249E+03  0.00000000000E+00 0. -1.
         22    1    1    2    0    0  0.16193020847E+04  0.38690797391E+03 -0.19267441129E+04  0.25464052895E+04  0.00000000000E+00 0.  1.
<mgrwt>
<rscale>  0 0.37067873E+04</rscale>
<asrwt>0</asrwt>
<pdfrwt beam="1">  1        2 0.47873460E+00 0.37067873E+04</pdfrwt>
<pdfrwt beam="2">  1       -2 0.16982977E+00 0.37067873E+04</pdfrwt>
<totfact> 0.25516597E-01</totfact>
</mgrwt>
</event>
<event>
 6    1  0.1780144E-005  0.4307287E+03  0.7818608E-02  0.1033630E+00
          1   -1    0    0  501    0  0.00000000000E+00  0.00000000000E+00  0.52841964029E+03  0.52841964029E+03  0.00000000000E+00 0. -1.
         -1   -1    0    0    0  501 -0.00000000000E+00 -0.00000000000E+00 -0.87774548285E+02  0.87774548285E+02  0.00000000000E+00 0.  1.
         23    2    1    2    0    0 -0.20246516076E+03  0.32420114572E+02  0.21331361744E+03  0.31005238405E+03  0.92663781057E+02 0.  0.
         13    1    3    3    0    0 -0.15230136262E+03  0.64567995123E+02  0.15576458142E+03  0.22721649561E+03  0.00000000000E+00 0.  1.
        -13    1    3    3    0    0 -0.50163798139E+02 -0.32147880551E+02  0.57549036012E+02  0.82835888440E+02  0.00000000000E+00 0. -1.
         22    1    1    2    0    0  0.20246516076E+03 -0.32420114572E+02  0.22733147457E+03  0.30614180453E+03  0.00000000000E+00 0. -1.
<mgrwt>
<rscale>  0 0.43072866E+03</rscale>
<asrwt>0</asrwt>
<pdfrwt beam="1">  1        1 0.81295328E-01 0.43072866E+03</pdfrwt>
<pdfrwt beam="2">  1       -1 0.13503777E-01 0.43072866E+03</pdfrwt>
<totfact> 0.15984681E+03</totfact>
</mgrwt>
</event>
<event>
 6    1  0.1780144E-005  0.1047345E+04  0.7818608E-02  0.9258090E-01
         -1   -1    0    0    0  501 -0.00000000000E+00  0.00000000000E+00  0.29580291995E+04  0.29580291995E+04  0.00000000000E+00 0.  1.
          1   -1    0    0  501    0  0.00000000000E+00 -0.00000000000E+00 -0.92707931562E+02  0.92707931562E+02  0.00000000000E+00 0. -1.
         23    2    1    2    0    0  0.24629746786E+03  0.34006214397E+03  0.55110135013E+03  0.69873404169E+03  0.90619305163E+02 0.  0.
         11    1    3    3    0    0  0.99138202371E+02  0.21174349870E+03  0.28340522245E+03  0.36739925493E+03  0.00000000000E+00 0. -1.
        -11    1    3    3    0    0  0.14715926549E+03  0.12831864527E+03  0.26769612768E+03  0.33133478676E+03  0.00000000000E+00 0.  1.
         22    1    1    2    0    0 -0.24629746786E+03 -0.34006214397E+03  0.23142199178E+04  0.23520030894E+04  0.00000000000E+00 0.  1.
<mgrwt>
<rscale>  0 0.10473448E+04</rscale>
<asrwt>0</asrwt>
<pdfrwt beam="1">  1        1 0.14262761E-01 0.10473448E+04</pdfrwt>
<pdfrwt beam="2">  1       -1 0.45508134E+00 0.10473448E+04</pdfrwt>
<totfact> 0.12627629E+00</totfact>
</mgrwt>
</event>
<event>
 6    1  0.1780144E-005  0.1359645E+04  0.7818608E-02  0.8983559E-01
         -2   -1    0    0    0  501 -0.00000000000E+00  0.00000000000E+00  0.36132397097E+03  0.36132397097E+03  0.00000000000E+00 0.  1.
          2   -1    0    0  501    0  0.00000000000E+00 -0.00000000000E+00 -0.12790698118E+04  0.12790698118E+04  0.00000000000E+00 0. -1.
         23    2    1    2    0    0 -0.61551496241E+03  0.19483306816E+03 -0.70695044392E+03  0.96123747328E+03  0.85906673135E+02 0.  0.
         11    1    3    3    0    0 -0.55290539415E+03  0.15543546432E+03 -0.65324635299E+03  0.86982489971E+03  0.00000000000E+00 0. -1.
        -11    1    3    3    0    0 -0.62609568257E+02  0.39397603840E+02 -0.53704090921E+02  0.91412573574E+02  0.00000000000E+00 0.  1.
         22    1    1    2    0    0  0.61551496241E+03 -0.19483306816E+03 -0.21079539696E+03  0.67915630953E+03  0.00000000000E+00 0.  1.
<mgrwt>
<rscale>  0 0.13596449E+04</rscale>
<asrwt>0</asrwt>
<pdfrwt beam="1">  1        2 0.19677997E+00 0.13596449E+04</pdfrwt>
<pdfrwt beam="2">  1       -2 0.55588303E-01 0.13596449E+04</pdfrwt>
<totfact> 0.50465288E+01</totfact>
</mgrwt>
</event>
<event>
 6    1  0.1780144E-005  0.9608297E+03  0.7818608E-02  0.9352581E-01
          1   -1    0    0  501    0  0.00000000000E+00  0.00000000000E+00  0.76047022665E+03  0.76047022665E+03  0.00000000000E+00 0. -1.
         -1   -1    0    0    0  501 -0.00000000000E+00 -0.00000000000E+00 -0.30349437777E+03  0.30349437777E+03  0.00000000000E+00 0.  1.
         23    2    1    2    0    0 -0.21634692623E+03 -0.40203255528E+02 -0.23712768260E+03  0.33581488997E+03  0.90109978518E+02 0.  0.
         13    1    3    3    0    0 -0.19677495078E+03 -0.25394236260E+02 -0.16001990567E+03  0.25489530930E+03  0.00000000000E+00 0. -1.
        -13    1    3    3    0    0 -0.19571975454E+02 -0.14809019268E+02 -0.77107776924E+02  0.80919580677E+02  0.00000000000E+00 0.  1.
         22    1    1    2    0    0  0.21634692623E+03  0.40203255528E+02  0.69410353147E+03  0.72814971445E+03  0.00000000000E+00 0. -1.
<mgrwt>
<rscale>  0 0.96082972E+03</rscale>
<asrwt>0</asrwt>
<pdfrwt beam="1">  1        1 0.11699542E+00 0.96082972E+03</pdfrwt>
<pdfrwt beam="2">  1       -1 0.46691443E-01 0.96082972E+03</pdfrwt>
<totfact> 0.10998291E+02</totfact>
</mgrwt>
</event>
<event>
 6    1  0.1780144E-005  0.2177853E+04  0.7818608E-02  0.8527703E-01
         -2   -1    0    0    0  501 -0.00000000000E+00  0.00000000000E+00  0.74999294697E+03  0.74999294697E+03  0.00000000000E+00 0.  1.
          2   -1    0    0  501    0  0.00000000000E+00 -0.00000000000E+00 -0.15810299472E+04  0.15810299472E+04  0.00000000000E+00 0. -1.
         23    2    1    2    0    0 -0.65102799652E+03 -0.53753001638E+03  0.31786951621E+03  0.90527321268E+03  0.75515491741E+02 0.  0.
         11    1    3    3    0    0 -0.14253157286E+03 -0.15998681204E+03  0.76938371099E+02  0.22766322109E+03  0.00000000000E+00 0. -1.
        -11    1    3    3    0    0 -0.50849642366E+03 -0.37754320435E+03  0.24093114511E+03  0.67760999159E+03  0.00000000000E+00 0.  1.
         22    1    1    2    0    0  0.65102799652E+03  0.53753001638E+03 -0.11489065164E+04  0.14257496815E+04  0.00000000000E+00 0. -1.
<mgrwt>
<rscale>  0 0.21778534E+04</rscale>
<asrwt>0</asrwt>
<pdfrwt beam="1">  1        2 0.24323538E+00 0.21778534E+04</pdfrwt>
<pdfrwt beam="2">  1       -2 0.11538353E+00 0.21778534E+04</pdfrwt>
<totfact> 0.61214244E+00</totfact>
</mgrwt>
</event>
<event>
 6    1  0.1780144E-005  0.9557100E+03  0.7818608E-02  0.9358501E-01
          1   -1    0    0  501    0  0.00000000000E+00  0.00000000000E+00  0.35258711418E+04  0.35258711418E+04  0.00000000000E+00 0. -1.
         -1   -1    0    0    0  501 -0.00000000000E+00 -0.00000000000E+00 -0.64762825705E+02  0.64762825705E+02  0.00000000000E+00 0.  1.
         23    2    1    2    0    0  0.27499845030E+03 -0.22958251545E+03  0.29097286850E+04  0.29330993474E+04  0.90655845050E+02 0.  0.
         13    1    3    3    0    0  0.37469898867E+02 -0.15335058214E+02  0.16972684546E+03  0.17448885179E+03  0.00000000000E+00 0.  1.
        -13    1    3    3    0    0  0.23752855143E+03 -0.21424745724E+03  0.27400018396E+04  0.27586104956E+04  0.00000000000E+00 0. -1.
         22    1    1    2    0    0 -0.27499845030E+03  0.22958251545E+03  0.55137963109E+03  0.65753462011E+03  0.00000000000E+00 0.  1.
<mgrwt>
<rscale>  0 0.95570995E+03</rscale>
<asrwt>0</asrwt>
<pdfrwt beam="1">  1        1 0.54244157E+00 0.95570995E+03</pdfrwt>
<pdfrwt beam="2">  1       -1 0.99635144E-02 0.95570995E+03</pdfrwt>
<totfact> 0.15822550E+01</totfact>
</mgrwt>
</event>
<event>
 6    1  0.1780144E-005  0.6860001E+03  0.7818608E-02  0.9741478E-01
         -1   -1    0    0    0  501 -0.00000000000E+00  0.00000000000E+00  0.20551044758E+03  0.20551044758E+03  0.00000000000E+00 0.  1.
          1   -1    0    0  501    0  0.00000000000E+00 -0.00000000000E+00 -0.57247234956E+03  0.57247234956E+03  0.00000000000E+00 0. -1.
         23    2    1    2    0    0 -0.25795325599E+03 -0.92914040897E+02 -0.40867463199E+03  0.50065113088E+03  0.91998362730E+02 0.  0.
         13    1    3    3    0    0 -0.12632752613E+03 -0.77002561342E+02 -0.27561459636E+03  0.31281215456E+03  0.00000000000E+00 0. -1.
        -13    1    3    3    0    0 -0.13162572987E+03 -0.15911479556E+02 -0.13306003562E+03  0.18783897632E+03  0.00000000000E+00 0.  1.
         22    1    1    2    0    0  0.25795325599E+03  0.92914040897E+02  0.41712730005E+02  0.27733166627E+03  0.00000000000E+00 0.  1.
<mgrwt>
<rscale>  0 0.68600014E+03</rscale>
<asrwt>0</asrwt>
<pdfrwt beam="1">  1        1 0.88072669E-01 0.68600014E+03</pdfrwt>
<pdfrwt beam="2">  1       -1 0.31616992E-01 0.68600014E+03</pdfrwt>
<totfact> 0.34479399E+02</totfact>
</mgrwt>
</event>
<event>
 6    1  0.1780144E-005  0.2266689E+04  0.7818608E-02  0.8491172E-01
         -2   -1    0    0    0  501 -0.00000000000E+00  0.00000000000E+00  0.51744054999E+03  0.51744054999E+03  0.00000000000E+00 0. -1.
          2   -1    0    0  501    0  0.00000000000E+00 -0.00000000000E+00 -0.24823529986E+04  0.24823529986E+04  0.00000000000E+00 0.  1.
         23    2    1    2    0    0 -0.10737867172E+04 -0.29212585846E+03 -0.71326775105E+03  0.13249891182E+04  0.92140367407E+02 0.  0.
         13    1    3    3    0    0 -0.71812768672E+03 -0.18154921573E+03 -0.52301151789E+03  0.90675715603E+03  0.00000000000E+00 0.  1.
        -13    1    3    3    0    0 -0.35565903051E+03 -0.11057664273E+03 -0.19025623316E+03  0.41823196214E+03  0.00000000000E+00 0. -1.
         22    1    1    2    0    0  0.10737867172E+04  0.29212585846E+03 -0.12516446976E+04  0.16748044305E+04  0.00000000000E+00 0.  1.
<mgrwt>
<rscale>  0 0.22666893E+04</rscale>
<asrwt>0</asrwt>
<pdfrwt beam="1">  1        2 0.38190046E+00 0.22666893E+04</pdfrwt>
<pdfrwt beam="2">  1       -2 0.79606239E-01 0.22666893E+04</pdfrwt>
<totfact> 0.45286259E+00</totfact>
</mgrwt>
</event>
<event>
 6    1  0.1780144E-005  0.1392891E+04  0.7818608E-02  0.8958981E-01
          1   -1    0    0  501    0  0.00000000000E+00  0.00000000000E+00  0.71897978809E+03  0.71897978809E+03  0.00000000000E+00 0. -1.
         -1   -1    0    0    0  501 -0.00000000000E+00 -0.00000000000E+00 -0.67461727368E+03  0.67461727368E+03  0.00000000000E+00 0.  1.
         23    2    1    2    0    0 -0.60804913668E+03 -0.10978911933E+02  0.35577393112E+03  0.71035379647E+03  0.90460692961E+02 0.  0.
         13    1    3    3    0    0 -0.25722117273E+03 -0.28847888651E+01  0.20268317890E+03  0.32749278574E+03  0.00000000000E+00 0.  1.
        -13    1    3    3    0    0 -0.35082796395E+03 -0.80941230676E+01  0.15309075223E+03  0.38286101073E+03  0.00000000000E+00 0. -1.
         22    1    1    2    0    0  0.60804913668E+03  0.10978911933E+02 -0.31141141672E+03  0.68324326530E+03  0.00000000000E+00 0.  1.
<mgrwt>
<rscale>  0 0.13928908E+04</rscale>
<asrwt>0</asrwt>
<pdfrwt beam="1">  1        1 0.11061227E+00 0.13928908E+04</pdfrwt>
<pdfrwt beam="2">  1       -1 0.10378727E+00 0.13928908E+04</pdfrwt>
<totfact> 0.22325923E+01</totfact>
</mgrwt>
</event>
<event>
 6    1  0.1780144E-005  0.3717321E+04  0.7818608E-02  0.8064134E-01
          1   -1    0    0  501    0  0.00000000000E+00  0.00000000000E+00  0.25868050403E+04  0.25868050403E+04  0.00000000000E+00 0. -1.
         -1   -1    0    0    0  501 -0.00000000000E+00 -0.00000000000E+00 -0.13354770154E+04  0.13354770154E+04  0.00000000000E+00 0.  1.
         23    2    1    2    0    0  0.11416294864E+04  0.59536335023E+03 -0.78687723098E+03  0.15114614344E+04  0.86974065581E+02 0.  0.
         11    1    3    3    0    0  0.35509399931E+03  0.21213366763E+03 -0.21455240831E+03  0.46596692716E+03  0.00000000000E+00 0. -1.
        -11    1    3    3    0    0  0.78653548706E+03  0.38322968260E+03 -0.57232482267E+03  0.10454945072E+04  0.00000000000E+00 0.  1.
         22    1    1    2    0    0 -0.11416294864E+04 -0.59536335023E+03  0.20382052559E+04  0.24108206213E+04  0.00000000000E+00 0. -1.
<mgrwt>
<rscale>  0 0.37173209E+04</rscale>
<asrwt>0</asrwt>
<pdfrwt beam="1">  1        1 0.39797001E+00 0.37173209E+04</pdfrwt>
<pdfrwt beam="2">  1       -1 0.20545800E+00 0.37173209E+04</pdfrwt>
<totfact> 0.13034370E-01</totfact>
</mgrwt>
</event>
<event>
 6    1  0.1780144E-005  0.2158981E+04  0.7818608E-02  0.8535698E-01
          2   -1    0    0  501    0  0.00000000000E+00  0.00000000000E+00  0.23295049642E+04  0.23295049642E+04  0.00000000000E+00 0. -1.
         -2   -1    0    0    0  501 -0.00000000000E+00 -0.00000000000E+00 -0.50023508268E+03  0.50023508268E+03  0.00000000000E+00 0.  1.
         23    2    1    2    0    0  0.12633474651E+03 -0.90555102577E+03  0.16639363036E+04  0.19005908014E+04  0.87053107330E+02 0.  0.
         11    1    3    3    0    0  0.88337019065E+02 -0.36221423239E+03  0.63377172644E+03  0.73530210140E+03  0.00000000000E+00 0. -1.
        -11    1    3    3    0    0  0.37997727447E+02 -0.54333679338E+03  0.10301645771E+04  0.11652887000E+04  0.00000000000E+00 0.  1.
         22    1    1    2    0    0 -0.12633474651E+03  0.90555102577E+03  0.16533357796E+03  0.92914924552E+03  0.00000000000E+00 0.  1.
<mgrwt>
<rscale>  0 0.21589813E+04</rscale>
<asrwt>0</asrwt>
<pdfrwt beam="1">  1        2 0.35838537E+00 0.21589813E+04</pdfrwt>
<pdfrwt beam="2">  1       -2 0.76959245E-01 0.21589813E+04</pdfrwt>
<totfact> 0.60313102E+00</totfact>
</mgrwt>
</event>
<event>
 6    1  0.1780144E-005  0.2539057E+04  0.7818608E-02  0.8389202E-01
          1   -1    0    0  501    0  0.00000000000E+00  0.00000000000E+00  0.10031801625E+04  0.10031801625E+04  0.00000000000E+00 0. -1.
         -1   -1    0    0    0  501 -0.00000000000E+00 -0.00000000000E+00 -0.16065931173E+04  0.16065931173E+04  0.00000000000E+00 0.  1.
         23    2    1    2    0    0 -0.35427644326E+03 -0.48936589546E+03 -0.14479179818E+04  0.15714190442E+04  0.88885052559E+02 0.  0.
         11    1    3    3    0    0 -0.23666059936E+02 -0.71286256829E+02 -0.23063906513E+03  0.24256172651E+03  0.00000000000E+00 0.  1.
        -11    1    3    3    0    0 -0.33061038332E+03 -0.41807963863E+03 -0.12172789167E+04  0.13288573177E+04  0.00000000000E+00 0. -1.
         22    1    1    2    0    0  0.35427644326E+03  0.48936589546E+03  0.84450502698E+03  0.10383542356E+04  0.00000000000E+00 0. -1.
<mgrwt>
<rscale>  0 0.25390568E+04</rscale>
<asrwt>0</asrwt>
<pdfrwt beam="1">  1        1 0.15433541E+00 0.25390568E+04</pdfrwt>
<pdfrwt beam="2">  1       -1 0.24716817E+00 0.25390568E+04</pdfrwt>
<totfact> 0.96912677E-01</totfact>
</mgrwt>
</event>
<event>
 6    1  0.1780144E-005  0.8052380E+03  0.7818608E-02  0.9552466E-01
         -2   -1    0    0    0  501 -0.00000000000E+00  0.00000000000E+00  0.65268976956E+02  0.65268976956E+02  0.00000000000E+00 0.  1.
          2   -1    0    0  501    0  0.00000000000E+00 -0.00000000000E+00 -0.24836002816E+04  0.24836002816E+04  0.00000000000E+00 0. -1.
         23    2    1    2    0    0  0.35121323082E+03 -0.14231000330E+03 -0.16070408265E+04  0.16534391326E+04  0.87623493608E+02 0.  0.
         11    1    3    3    0    0  0.24146689782E+03 -0.79994531019E+02 -0.12236746120E+04  0.12498339665E+04  0.00000000000E+00 0. -1.
        -11    1    3    3    0    0  0.10974633300E+03 -0.62315472278E+02 -0.38336621455E+03  0.40360516615E+03  0.00000000000E+00 0.  1.
         22    1    1    2    0    0 -0.35121323082E+03  0.14231000330E+03 -0.81129047810E+03  0.89543012591E+03  0.00000000000E+00 0.  1.
<mgrwt>
<rscale>  0 0.80523798E+03</rscale>
<asrwt>0</asrwt>
<pdfrwt beam="1">  1        2 0.38209238E+00 0.80523798E+03</pdfrwt>
<pdfrwt beam="2">  1       -2 0.10041380E-01 0.80523798E+03</pdfrwt>
<totfact> 0.25037516E+02</totfact>
</mgrwt>
</event>
<event>
 6    1  0.1780144E-005  0.2596723E+04  0.7818608E-02  0.8369315E-01
         -1   -1    0    0    0  501 -0.00000000000E+00  0.00000000000E+00  0.35819641500E+04  0.35819641500E+04  0.00000000000E+00 0.  1.
          1   -1    0    0  501    0  0.00000000000E+00 -0.00000000000E+00 -0.47061979444E+03  0.47061979444E+03  0.00000000000E+00 0. -1.
         23    2    1    2    0    0 -0.81461692833E+03 -0.99749616383E+03  0.17938321169E+04  0.22101839238E+04  0.92086790396E+02 0.  0.
         13    1    3    3    0    0 -0.43780160540E+03 -0.48656834773E+03  0.96832881206E+03  0.11687941183E+04  0.00000000000E+00 0. -1.
        -13    1    3    3    0    0 -0.37681532294E+03 -0.51092781610E+03  0.82550330481E+03  0.10413898056E+04  0.00000000000E+00 0.  1.
         22    1    1    2    0    0  0.81461692833E+03  0.99749616383E+03  0.13175122387E+04  0.18424000206E+04  0.00000000000E+00 0.  1.
<mgrwt>
<rscale>  0 0.25967235E+04</rscale>
<asrwt>0</asrwt>
<pdfrwt beam="1">  1        1 0.72403048E-01 0.25967235E+04</pdfrwt>
<pdfrwt beam="2">  1       -1 0.55107139E+00 0.25967235E+04</pdfrwt>
<totfact> 0.31137086E-02</totfact>
</mgrwt>
</event>
<event>
 6    1  0.1780144E-005  0.6507206E+04  0.7818608E-02  0.7630509E-01
         -1   -1    0    0    0  501 -0.00000000000E+00  0.00000000000E+00  0.36798742529E+04  0.36798742529E+04  0.00000000000E+00 0.  1.
          1   -1    0    0  501    0  0.00000000000E+00 -0.00000000000E+00 -0.28767105911E+04  0.28767105911E+04  0.00000000000E+00 0. -1.
         23    2    1    2    0    0  0.84747625384E+03  0.25740757969E+04  0.22146665635E+04  0.35010288143E+04  0.91501707199E+02 0.  0.
         13    1    3    3    0    0  0.38571375143E+03  0.11874993744E+04  0.10789854674E+04  0.16501937769E+04  0.00000000000E+00 0.  1.
        -13    1    3    3    0    0  0.46176250241E+03  0.13865764224E+04  0.11356810961E+04  0.18508350375E+04  0.00000000000E+00 0. -1.
         22    1    1    2    0    0 -0.84747625384E+03 -0.25740757969E+04 -0.14115029018E+04  0.30555560297E+04  0.00000000000E+00 0. -1.
<mgrwt>
<rscale>  0 0.65072062E+04</rscale>
<asrwt>0</asrwt>
<pdfrwt beam="1">  1        1 0.44257086E+00 0.65072062E+04</pdfrwt>
<pdfrwt beam="2">  1       -1 0.56613450E+00 0.65072062E+04</pdfrwt>
<totfact> 0.30003635E-04</totfact>
</mgrwt>
</event>
<event>
 6    1  0.1780144E-005  0.1778761E+04  0.7818608E-02  0.8717676E-01
          2   -1    0    0  501    0  0.00000000000E+00  0.00000000000E+00  0.14106084196E+04  0.14106084196E+04  0.00000000000E+00 0.  1.
         -2   -1    0    0    0  501 -0.00000000000E+00 -0.00000000000E+00 -0.56074912804E+03  0.56074912804E+03  0.00000000000E+00 0. -1.
         23    2    1    2    0    0  0.17543360591E+03  0.57484022085E+03  0.11490689151E+04  0.12999823706E+04  0.91523562427E+02 0.  0.
         11    1    3    3    0    0  0.67803921108E+02  0.33698480007E+03  0.71752709342E+03  0.79561376118E+03  0.00000000000E+00 0.  1.
        -11    1    3    3    0    0  0.10762968481E+03  0.23785542078E+03  0.43154182171E+03  0.50436860938E+03  0.00000000000E+00 0. -1.
         22    1    1    2    0    0 -0.17543360591E+03 -0.57484022085E+03 -0.29920962355E+03  0.67137517709E+03  0.00000000000E+00 0. -1.
<mgrwt>
<rscale>  0 0.17787607E+04</rscale>
<asrwt>0</asrwt>
<pdfrwt beam="1">  1        2 0.21701668E+00 0.17787607E+04</pdfrwt>
<pdfrwt beam="2">  1       -2 0.86269098E-01 0.17787607E+04</pdfrwt>
<totfact> 0.15719351E+01</totfact>
</mgrwt>
</event>
<event>
 6    1  0.1780144E-005  0.1492111E+04  0.7818608E-02  0.8889716E-01
          2   -1    0    0  501    0  0.00000000000E+00  0.00000000000E+00  0.12545932064E+04  0.12545932064E+04  0.00000000000E+00 0. -1.
         -2   -1    0    0    0  501 -0.00000000000E+00 -0.00000000000E+00 -0.44364880766E+03  0.44364880766E+03  0.00000000000E+00 0.  1.
         23    2    1    2    0    0  0.19401378742E+03 -0.68821710828E+03  0.17666944226E+03  0.74242359078E+03  0.93255340233E+02 0.  0.
         13    1    3    3    0    0  0.13417276887E+03 -0.37096827469E+03  0.59359454863E+02  0.39892773482E+03  0.00000000000E+00 0. -1.
        -13    1    3    3    0    0  0.59841018556E+02 -0.31724883359E+03  0.11730998740E+03  0.34349585596E+03  0.00000000000E+00 0.  1.
         22    1    1    2    0    0 -0.19401378742E+03  0.68821710828E+03  0.63427495644E+03  0.95581842324E+03  0.00000000000E+00 0. -1.
<mgrwt>
<rscale>  0 0.14921110E+04</rscale>
<asrwt>0</asrwt>
<pdfrwt beam="1">  1        2 0.19301434E+00 0.14921110E+04</pdfrwt>
<pdfrwt beam="2">  1       -2 0.68253663E-01 0.14921110E+04</pdfrwt>
<totfact> 0.33379794E+01</totfact>
</mgrwt>
</event>
<event>
 6    1  0.1780144E-005  0.3830040E+04  0.7818608E-02  0.8039739E-01
          2   -1    0    0  501    0  0.00000000000E+00  0.00000000000E+00  0.18990672422E+04  0.18990672422E+04  0.00000000000E+00 0. -1.
         -2   -1    0    0    0  501 -0.00000000000E+00 -0.00000000000E+00 -0.19311070733E+04  0.19311070733E+04  0.00000000000E+00 0.  1.
         23    2    1    2    0    0 -0.91378505531E+02 -0.17518769012E+04 -0.78137432804E+03  0.19225776871E+04  0.91303966107E+02 0.  0.
         13    1    3    3    0    0 -0.56336833508E+02 -0.61716291304E+03 -0.23632855781E+03  0.66326094961E+03  0.00000000000E+00 0. -1.
        -13    1    3    3    0    0 -0.35041672022E+02 -0.11347139882E+04 -0.54504577023E+03  0.12593167375E+04  0.00000000000E+00 0.  1.
         22    1    1    2    0    0  0.91378505531E+02  0.17518769012E+04  0.74933449697E+03  0.19075966284E+04  0.00000000000E+00 0.  1.
<mgrwt>
<rscale>  0 0.38300403E+04</rscale>
<asrwt>0</asrwt>
<pdfrwt beam="1">  1        2 0.29216419E+00 0.38300403E+04</pdfrwt>
<pdfrwt beam="2">  1       -2 0.29709339E+00 0.38300403E+04</pdfrwt>
<totfact> 0.20135200E-01</totfact>
</mgrwt>
</event>
<event>
 6    1  0.1780144E-005  0.4405941E+04  0.7818608E-02  0.7927314E-01
          2   -1    0    0  501    0  0.00000000000E+00  0.00000000000E+00  0.29210424010E+04  0.29210424010E+04  0.00000000000E+00 0. -1.
         -2   -1    0    0    0  501 -0.00000000000E+00 -0.00000000000E+00 -0.16614204286E+04  0.16614204286E+04  0.00000000000E+00 0.  1.
         23    2    1    2    0    0  0.18385862970E+04 -0.88720715437E+03 -0.22836141456E+03  0.20562738687E+04  0.92613071936E+02 0.  0.
         11    1    3    3    0    0  0.22580330577E+03 -0.11353523868E+03  0.20064740740E+01  0.25274771860E+03  0.00000000000E+00 0. -1.
        -11    1    3    3    0    0  0.16127829913E+04 -0.77367191568E+03 -0.23036788863E+03  0.18035261501E+04  0.00000000000E+00 0.  1.
         22    1    1    2    0    0 -0.18385862970E+04  0.88720715437E+03  0.14879833869E+04  0.25261889609E+04  0.00000000000E+00 0. -1.
<mgrwt>
<rscale>  0 0.44059412E+04</rscale>
<asrwt>0</asrwt>
<pdfrwt beam="1">  1        2 0.44939114E+00 0.44059412E+04</pdfrwt>
<pdfrwt beam="2">  1       -2 0.25560314E+00 0.44059412E+04</pdfrwt>
<totfact> 0.88338608E-02</totfact>
</mgrwt>
</event>
<event>
 6    1  0.1780144E-005  0.4872538E+04  0.7818608E-02  0.7848476E-01
          2   -1    0    0  501    0  0.00000000000E+00  0.00000000000E+00  0.25712467020E+04  0.25712467020E+04  0.00000000000E+00 0. -1.
         -2   -1    0    0    0  501 -0.00000000000E+00 -0.00000000000E+00 -0.23083771563E+04  0.23083771563E+04  0.00000000000E+00 0.  1.
         23    2    1    2    0    0  0.61480251150E+03 -0.17834984272E+04 -0.14110533684E+04  0.23575479890E+04  0.90067442512E+02 0.  0.
         13    1    3    3    0    0  0.28215241904E+03 -0.70374677890E+03 -0.59603692801E+03  0.96443223501E+03  0.00000000000E+00 0. -1.
        -13    1    3    3    0    0  0.33265009246E+03 -0.10797516483E+04 -0.81501644038E+03  0.13931157540E+04  0.00000000000E+00 0.  1.
         22    1    1    2    0    0 -0.61480251150E+03  0.17834984272E+04  0.16739229141E+04  0.25220758693E+04  0.00000000000E+00 0. -1.
<mgrwt>
<rscale>  0 0.48725382E+04</rscale>
<asrwt>0</asrwt>
<pdfrwt beam="1">  1        2 0.39557641E+00 0.48725382E+04</pdfrwt>
<pdfrwt beam="2">  1       -2 0.35513495E+00 0.48725382E+04</pdfrwt>
<totfact> 0.33595210E-02</totfact>
</mgrwt>
</event>
<event>
 6    1  0.1780144E-005  0.2198634E+04  0.7818608E-02  0.8518997E-01
          2   -1    0    0  501    0  0.00000000000E+00  0.00000000000E+00  0.21049718152E+04  0.21049718152E+04  0.00000000000E+00 0. -1.
         -2   -1    0    0    0  501 -0.00000000000E+00 -0.00000000000E+00 -0.57411575677E+03  0.57411575677E+03  0.00000000000E+00 0.  1.
         23    2    1    2    0    0  0.37290259429E+03 -0.99298576751E+03  0.42267094557E+03  0.11450890962E+04  0.86609645575E+02 0.  0.
         11    1    3    3    0    0  0.34029473818E+03 -0.81625183723E+03  0.35877034085E+03  0.95434989814E+03  0.00000000000E+00 0. -1.
        -11    1    3    3    0    0  0.32607856113E+02 -0.17673393028E+03  0.63900604722E+02  0.19073919806E+03  0.00000000000E+00 0.  1.
         22    1    1    2    0    0 -0.37290259429E+03  0.99298576751E+03  0.11081851129E+04  0.15339984758E+04  0.00000000000E+00 0. -1.
<mgrwt>
<rscale>  0 0.21986337E+04</rscale>
<asrwt>0</asrwt>
<pdfrwt beam="1">  1        2 0.32384181E+00 0.21986337E+04</pdfrwt>
<pdfrwt beam="2">  1       -2 0.88325502E-01 0.21986337E+04</pdfrwt>
<totfact> 0.58891085E+00</totfact>
</mgrwt>
</event>
<event>
 6    1  0.1780144E-005  0.3382135E+04  0.7818608E-02  0.8142305E-01
         -2   -1    0    0    0  501 -0.00000000000E+00  0.00000000000E+00  0.28181094293E+04  0.28181094293E+04  0.00000000000E+00 0.  1.
          2   -1    0    0  501    0  0.00000000000E+00 -0.00000000000E+00 -0.10147614084E+04  0.10147614084E+04  0.00000000000E+00 0. -1.
         23    2    1    2    0    0  0.86372707289E+03  0.13667677458E+04  0.34542123883E+03  0.16558019299E+04  0.91025664242E+02 0.  0.
         13    1    3    3    0    0  0.60636756721E+03  0.91617388820E+03  0.27090489128E+03  0.11315677974E+04  0.00000000000E+00 0. -1.
        -13    1    3    3    0    0  0.25735950568E+03  0.45059385761E+03  0.74516347552E+02  0.52423413255E+03  0.00000000000E+00 0.  1.
         22    1    1    2    0    0 -0.86372707289E+03 -0.13667677458E+04  0.14579267821E+04  0.21770689078E+04  0.00000000000E+00 0.  1.
<mgrwt>
<rscale>  0 0.33821346E+04</rscale>
<asrwt>0</asrwt>
<pdfrwt beam="1">  1        2 0.15611714E+00 0.33821346E+04</pdfrwt>
<pdfrwt beam="2">  1       -2 0.43355529E+00 0.33821346E+04</pdfrwt>
<totfact> 0.91085310E-02</totfact>
</mgrwt>
</event>
<event>
 6    1  0.1780144E-005  0.2066976E+04  0.7818608E-02  0.8575932E-01
         -2   -1    0    0    0  501 -0.00000000000E+00  0.00000000000E+00  0.12907368497E+04  0.12907368497E+04  0.00000000000E+00 0. -1.
          2   -1    0    0  501    0  0.00000000000E+00 -0.00000000000E+00 -0.82750970536E+03  0.82750970536E+03  0.00000000000E+00 0.  1.
         23    2    1    2    0    0  0.12120402441E+02 -0.30921339212E+03  0.12404499376E+04  0.12816850830E+04  0.90778732488E+02 0.  0.
         13    1    3    3    0    0 -0.18689644616E+02 -0.21501145083E+02  0.18946075833E+03  0.19159066000E+03  0.00000000000E+00 0. -1.
        -13    1    3    3    0    0  0.30810047058E+02 -0.28771224703E+03  0.10509891793E+04  0.10900944230E+04  0.00000000000E+00 0.  1.
         22    1    1    2    0    0 -0.12120402441E+02  0.30921339212E+03 -0.77722279331E+03  0.83656147202E+03  0.00000000000E+00 0.  1.
<mgrwt>
<rscale>  0 0.20669758E+04</rscale>
<asrwt>0</asrwt>
<pdfrwt beam="1">  1        2 0.12730919E+00 0.20669758E+04</pdfrwt>
<pdfrwt beam="2">  1       -2 0.19857490E+00 0.20669758E+04</pdfrwt>
<totfact> 0.41318459E+00</totfact>
</mgrwt>
</event>
<event>
 6    1  0.1780144E-005  0.2249259E+04  0.7818608E-02  0.8498201E-01
          2   -1    0    0  501    0  0.00000000000E+00  0.00000000000E+00  0.81271683894E+03  0.81271683894E+03  0.00000000000E+00 0. -1.
         -2   -1    0    0    0  501 -0.00000000000E+00 -0.00000000000E+00 -0.15562516370E+04  0.15562516370E+04  0.00000000000E+00 0.  1.
         23    2    1    2    0    0  0.15455172374E+02 -0.30404752763E+03  0.76579487944E+03  0.82924128037E+03  0.92279695903E+02 0.  0.
         11    1    3    3    0    0 -0.36793688040E+02 -0.17547347716E+03  0.43848843098E+03  0.47372652530E+03  0.00000000000E+00 0.  1.
        -11    1    3    3    0    0  0.52248860414E+02 -0.12857405047E+03  0.32730644846E+03  0.35551475507E+03  0.00000000000E+00 0. -1.
         22    1    1    2    0    0 -0.15455172374E+02  0.30404752763E+03 -0.15093296775E+04  0.15397271956E+04  0.00000000000E+00 0.  1.
<mgrwt>
<rscale>  0 0.22492594E+04</rscale>
<asrwt>0</asrwt>
<pdfrwt beam="1">  1        2 0.12503336E+00 0.22492594E+04</pdfrwt>
<pdfrwt beam="2">  1       -2 0.23942333E+00 0.22492594E+04</pdfrwt>
<totfact> 0.22926120E+00</totfact>
</mgrwt>
</event>
<event>
 6    1  0.1780144E-005  0.2069375E+04  0.7818608E-02  0.8574855E-01
         -1   -1    0    0    0  501 -0.00000000000E+00  0.00000000000E+00  0.49892674494E+03  0.49892674494E+03  0.00000000000E+00 0.  1.
          1   -1    0    0  501    0  0.00000000000E+00 -0.00000000000E+00 -0.21457616487E+04  0.21457616487E+04  0.00000000000E+00 0. -1.
         23    2    1    2    0    0  0.24290192363E+03  0.28767945178E+03 -0.20539516395E+04  0.20901571971E+04  0.90988788843E+02 0.  0.
         13    1    3    3    0    0  0.11417361338E+03  0.19879111955E+03 -0.11240160899E+04  0.11471554792E+04  0.00000000000E+00 0. -1.
        -13    1    3    3    0    0  0.12872831026E+03  0.88888332235E+02 -0.92993554958E+03  0.94300171784E+03  0.00000000000E+00 0.  1.
         22    1    1    2    0    0 -0.24290192363E+03 -0.28767945178E+03  0.40711673571E+03  0.55453119658E+03  0.00000000000E+00 0.  1.
<mgrwt>
<rscale>  0 0.20693747E+04</rscale>
<asrwt>0</asrwt>
<pdfrwt beam="1">  1        1 0.33011718E+00 0.20693747E+04</pdfrwt>
<pdfrwt beam="2">  1       -1 0.76757961E-01 0.20693747E+04</pdfrwt>
<totfact> 0.37247331E+00</totfact>
</mgrwt>
</event>
<event>
 6    1  0.1780144E-005  0.4854811E+04  0.7818608E-02  0.7851303E-01
         -2   -1    0    0    0  501 -0.00000000000E+00  0.00000000000E+00  0.23116567135E+04  0.23116567135E+04  0.00000000000E+00 0.  1.
          2   -1    0    0  501    0  0.00000000000E+00 -0.00000000000E+00 -0.25489500252E+04  0.25489500252E+04  0.00000000000E+00 0. -1.
         23    2    1    2    0    0 -0.23845996364E+04  0.25188612458E+03 -0.49076287206E+03  0.24493811450E+04  0.94115625901E+02 0.  0.
         11    1    3    3    0    0 -0.60110127617E+03  0.99642553280E+02 -0.10463267017E+03  0.61822275783E+03  0.00000000000E+00 0. -1.
        -11    1    3    3    0    0 -0.17834983603E+04  0.15224357130E+03 -0.38613020188E+03  0.18311583871E+04  0.00000000000E+00 0.  1.
         22    1    1    2    0    0  0.23845996364E+04 -0.25188612458E+03  0.25346956040E+03  0.24112255937E+04  0.00000000000E+00 0.  1.
<mgrwt>
<rscale>  0 0.48548110E+04</rscale>
<asrwt>0</asrwt>
<pdfrwt beam="1">  1        2 0.39214615E+00 0.48548110E+04</pdfrwt>
<pdfrwt beam="2">  1       -2 0.35563950E+00 0.48548110E+04</pdfrwt>
<totfact> 0.34413589E-02</totfact>
</mgrwt>
</event>
<event>
 6    1  0.1780144E-005  0.2941288E+04  0.7818608E-02  0.8260698E-01
          2   -1    0    0  501    0  0.00000000000E+00  0.00000000000E+00  0.14361189630E+04  0.14361189630E+04  0.00000000000E+00 0. -1.
         -2   -1    0    0    0  501 -0.00000000000E+00 -0.00000000000E+00 -0.15059987247E+04  0.15059987247E+04  0.00000000000E+00 0.  1.
         23    2    1    2    0    0 -0.12359178810E+03  0.43890540938E+03  0.13621901117E+04  0.14392081725E+04  0.88574120845E+02 0.  0.
         13    1    3    3    0    0 -0.73060432390E+02  0.35961536852E+03  0.10068038743E+04  0.10715946442E+04  0.00000000000E+00 0. -1.
        -13    1    3    3    0    0 -0.50531355709E+02  0.79290040856E+02  0.35538623736E+03  0.36761352831E+03  0.00000000000E+00 0.  1.
         22    1    1    2    0    0  0.12359178810E+03 -0.43890540938E+03 -0.14320698734E+04  0.15029095152E+04  0.00000000000E+00 0.  1.
<mgrwt>
<rscale>  0 0.29412877E+04</rscale>
<asrwt>0</asrwt>
<pdfrwt beam="1">  1        2 0.22094138E+00 0.29412877E+04</pdfrwt>
<pdfrwt beam="2">  1       -2 0.23169211E+00 0.29412877E+04</pdfrwt>
<totfact> 0.99040158E-01</totfact>
</mgrwt>
</event>
<event>
 6    1  0.1780144E-005  0.9482040E+03  0.7818608E-02  0.9367252E-01
         -2   -1    0    0    0  501 -0.00000000000E+00  0.00000000000E+00  0.14780466654E+03  0.14780466654E+03  0.00000000000E+00 0.  1.
          2   -1    0    0  501    0  0.00000000000E+00 -0.00000000000E+00 -0.15207415124E+04  0.15207415124E+04  0.00000000000E+00 0. -1.
         23    2    1    2    0    0 -0.41203189802E+03  0.21686828298E+03 -0.80047711537E+03  0.93063542541E+03  0.92285132319E+02 0.  0.
         13    1    3    3    0    0 -0.99994883997E+02  0.77905627208E+02 -0.15395592746E+03  0.19942590398E+03  0.00000000000E+00 0. -1.
        -13    1    3    3    0    0 -0.31203701402E+03  0.13896265577E+03 -0.64652118791E+03  0.73120952144E+03  0.00000000000E+00 0.  1.
         22    1    1    2    0    0  0.41203189802E+03 -0.21686828298E+03 -0.57245973054E+03  0.73791075357E+03  0.00000000000E+00 0.  1.
<mgrwt>
<rscale>  0 0.94820397E+03</rscale>
<asrwt>0</asrwt>
<pdfrwt beam="1">  1        2 0.23396020E+00 0.94820397E+03</pdfrwt>
<pdfrwt beam="2">  1       -2 0.22739182E-01 0.94820397E+03</pdfrwt>
<totfact> 0.21037734E+02</totfact>
</mgrwt>
</event>
<event>
 6    1  0.1780144E-005  0.4413231E+04  0.7818608E-02  0.7926006E-01
          2   -1    0    0  501    0  0.00000000000E+00  0.00000000000E+00  0.11507098348E+04  0.11507098348E+04  0.00000000000E+00 0. -1.
         -2   -1    0    0    0  501 -0.00000000000E+00 -0.00000000000E+00 -0.42314332604E+04  0.42314332604E+04  0.00000000000E+00 0.  1.
         23    2    1    2    0    0 -0.20805938064E+04 -0.35552641813E+03 -0.76077072568E+03  0.22456721243E+04  0.94876613155E+02 0.  0.
         11    1    3    3    0    0 -0.94669709440E+03 -0.20231072377E+03 -0.37552647945E+03  0.10383569494E+04  0.00000000000E+00 0. -1.
        -11    1    3    3    0    0 -0.11338967120E+04 -0.15321569436E+03 -0.38524424623E+03  0.12073151750E+04  0.00000000000E+00 0.  1.
         22    1    1    2    0    0  0.20805938064E+04  0.35552641813E+03 -0.23199526999E+04  0.31364709709E+04  0.00000000000E+00 0. -1.
<mgrwt>
<rscale>  0 0.44132310E+04</rscale>
<asrwt>0</asrwt>
<pdfrwt beam="1">  1        2 0.17703228E+00 0.44132310E+04</pdfrwt>
<pdfrwt beam="2">  1       -2 0.65098973E+00 0.44132310E+04</pdfrwt>
<totfact> 0.51781983E-03</totfact>
</mgrwt>
</event>
<event>
 6    1  0.1780144E-005  0.1289457E+04  0.7818608E-02  0.9037968E-01
          2   -1    0    0  501    0  0.00000000000E+00  0.00000000000E+00  0.11491506803E+04  0.11491506803E+04  0.00000000000E+00 0. -1.
         -2   -1    0    0    0  501 -0.00000000000E+00 -0.00000000000E+00 -0.36172372395E+03  0.36172372395E+03  0.00000000000E+00 0.  1.
         23    2    1    2    0    0  0.37017755647E+03  0.29791598874E+03 -0.10930524027E+03  0.49602762167E+03  0.91161429609E+02 0.  0.
         11    1    3    3    0    0  0.22062795691E+03  0.14790137579E+03 -0.10058957271E+03  0.28402424979E+03  0.00000000000E+00 0. -1.
        -11    1    3    3    0    0  0.14954959956E+03  0.15001461295E+03 -0.87156675578E+01  0.21200337188E+03  0.00000000000E+00 0.  1.
         22    1    1    2    0    0 -0.37017755647E+03 -0.29791598874E+03  0.89673219661E+03  0.10148467826E+04  0.00000000000E+00 0. -1.
<mgrwt>
<rscale>  0 0.12894573E+04</rscale>
<asrwt>0</asrwt>
<pdfrwt beam="1">  1        2 0.17679241E+00 0.12894573E+04</pdfrwt>
<pdfrwt beam="2">  1       -2 0.55649804E-01 0.12894573E+04</pdfrwt>
<totfact> 0.60483147E+01</totfact>
</mgrwt>
</event>
<event>
 6    1  0.1780144E-005  0.1884200E+04  0.7818608E-02  0.8662761E-01
         -2   -1    0    0    0  501 -0.00000000000E+00  0.00000000000E+00  0.12166717067E+04  0.12166717067E+04  0.00000000000E+00 0.  1.
          2   -1    0    0  501    0  0.00000000000E+00 -0.00000000000E+00 -0.72949229834E+03  0.72949229834E+03  0.00000000000E+00 0. -1.
         23    2    1    2    0    0 -0.43645898035E+03 -0.28364534330E+03 -0.56463573426E+03  0.77259414492E+03  0.84481229006E+02 0.  0.
         13    1    3    3    0    0 -0.29570472938E+03 -0.21719699309E+03 -0.44198180266E+03  0.57442469887E+03  0.00000000000E+00 0. -1.
        -13    1    3    3    0    0 -0.14075425097E+03 -0.66448350215E+02 -0.12265393160E+03  0.19816944606E+03  0.00000000000E+00 0.  1.
         22    1    1    2    0    0  0.43645898035E+03  0.28364534330E+03  0.10518151426E+04  0.11735698601E+04  0.00000000000E+00 0.  1.
<mgrwt>
<rscale>  0 0.18842002E+04</rscale>
<asrwt>0</asrwt>
<pdfrwt beam="1">  1        2 0.11222958E+00 0.18842002E+04</pdfrwt>
<pdfrwt beam="2">  1       -2 0.18718026E+00 0.18842002E+04</pdfrwt>
<totfact> 0.58985619E+00</totfact>
</mgrwt>
</event>
<event>
 6    1  0.1780144E-005  0.1613805E+04  0.7818608E-02  0.8812112E-01
          1   -1    0    0  501    0  0.00000000000E+00  0.00000000000E+00  0.13676829897E+04  0.13676829897E+04  0.00000000000E+00 0. -1.
         -1   -1    0    0    0  501 -0.00000000000E+00 -0.00000000000E+00 -0.47605454233E+03  0.47605454233E+03  0.00000000000E+00 0.  1.
         23    2    1    2    0    0 -0.79594965134E+03  0.98816236340E+02  0.37968855520E+03  0.89222140014E+03  0.92709934134E+02 0.  0.
         11    1    3    3    0    0 -0.20279487732E+03  0.41946197061E+02  0.57992258217E+02  0.21505429018E+03  0.00000000000E+00 0. -1.
        -11    1    3    3    0    0 -0.59315477402E+03  0.56870039279E+02  0.32169629698E+03  0.67716710996E+03  0.00000000000E+00 0.  1.
         22    1    1    2    0    0  0.79594965134E+03 -0.98816236340E+02  0.51193989215E+03  0.95151613187E+03  0.00000000000E+00 0. -1.
<mgrwt>
<rscale>  0 0.16138051E+04</rscale>
<asrwt>0</asrwt>
<pdfrwt beam="1">  1        1 0.21041277E+00 0.16138051E+04</pdfrwt>
<pdfrwt beam="2">  1       -1 0.73239161E-01 0.16138051E+04</pdfrwt>
<totfact> 0.14580167E+01</totfact>
</mgrwt>
</event>
<event>
 6    1  0.1780144E-005  0.1613572E+04  0.7818608E-02  0.8812254E-01
         -1   -1    0    0    0  501 -0.00000000000E+00  0.00000000000E+00  0.68523054151E+03  0.68523054151E+03  0.00000000000E+00 0.  1.
          1   -1    0    0  501    0  0.00000000000E+00 -0.00000000000E+00 -0.94990407324E+03  0.94990407324E+03  0.00000000000E+00 0. -1.
         23    2    1    2    0    0  0.47704143249E+03  0.19293344503E+03 -0.75902102665E+03  0.92157222207E+03  0.91600213335E+02 0.  0.
         11    1    3    3    0    0  0.18217184033E+03  0.46535616704E+02 -0.21424348743E+03  0.28504809232E+03  0.00000000000E+00 0. -1.
        -11    1    3    3    0    0  0.29486959216E+03  0.14639782832E+03 -0.54477753922E+03  0.63652412975E+03  0.00000000000E+00 0.  1.
         22    1    1    2    0    0 -0.47704143249E+03 -0.19293344503E+03  0.49434749491E+03  0.71356239268E+03  0.00000000000E+00 0.  1.
<mgrwt>
<rscale>  0 0.16135715E+04</rscale>
<asrwt>0</asrwt>
<pdfrwt beam="1">  1        1 0.14613909E+00 0.16135715E+04</pdfrwt>
<pdfrwt beam="2">  1       -1 0.10542008E+00 0.16135715E+04</pdfrwt>
<totfact> 0.13405288E+01</totfact>
</mgrwt>
</event>
<event>
 6    1  0.1780144E-005  0.2998582E+04  0.7818608E-02  0.8244136E-01
         -2   -1    0    0    0  501 -0.00000000000E+00  0.00000000000E+00  0.74418242193E+03  0.74418242193E+03  0.00000000000E+00 0.  1.
          2   -1    0    0  501    0  0.00000000000E+00 -0.00000000000E+00 -0.30205954847E+04  0.30205954847E+04  0.00000000000E+00 0. -1.
         23    2    1    2    0    0 -0.49534600412E+03  0.59967270576E+03 -0.27464423518E+04  0.28559860986E+04  0.93466495949E+02 0.  0.
         13    1    3    3    0    0 -0.57000093967E+02  0.10412227658E+03 -0.51669910041E+03  0.53015886257E+03  0.00000000000E+00 0.  1.
        -13    1    3    3    0    0 -0.43834591015E+03  0.49555042918E+03 -0.22297432514E+04  0.23258272360E+04  0.00000000000E+00 0. -1.
         22    1    1    2    0    0  0.49534600412E+03 -0.59967270576E+03  0.47002928901E+03  0.90879180803E+03  0.00000000000E+00 0.  1.
<mgrwt>
<rscale>  0 0.29985824E+04</rscale>
<asrwt>0</asrwt>
<pdfrwt beam="1">  1        2 0.46470699E+00 0.29985824E+04</pdfrwt>
<pdfrwt beam="2">  1       -2 0.11448960E+00 0.29985824E+04</pdfrwt>
<totfact> 0.86192558E-01</totfact>
</mgrwt>
</event>
<event>
 6    1  0.1780144E-005  0.2144859E+04  0.7818608E-02  0.8541736E-01
         -1   -1    0    0    0  501 -0.00000000000E+00  0.00000000000E+00  0.67291913817E+03  0.67291913817E+03  0.00000000000E+00 0.  1.
          1   -1    0    0  501    0  0.00000000000E+00 -0.00000000000E+00 -0.17091282489E+04  0.17091282489E+04  0.00000000000E+00 0. -1.
         23    2    1    2    0    0  0.34151811385E+03 -0.87648708683E+03 -0.10866959489E+04  0.14400212960E+04  0.88820111061E+02 0.  0.
         13    1    3    3    0    0  0.32434951327E+03 -0.80865546084E+03 -0.10356929538E+04  0.13534349470E+04  0.00000000000E+00 0. -1.
        -13    1    3    3    0    0  0.17168600580E+02 -0.67831625996E+02 -0.51002995057E+02  0.86586349016E+02  0.00000000000E+00 0.  1.
         22    1    1    2    0    0 -0.34151811385E+03  0.87648708683E+03  0.50486838132E+02  0.94202609109E+03  0.00000000000E+00 0.  1.
<mgrwt>
<rscale>  0 0.21448591E+04</rscale>
<asrwt>0</asrwt>
<pdfrwt beam="1">  1        1 0.26294280E+00 0.21448591E+04</pdfrwt>
<pdfrwt beam="2">  1       -1 0.10352602E+00 0.21448591E+04</pdfrwt>
<totfact> 0.37864066E+00</totfact>
</mgrwt>
</event>
<event>
 6    1  0.1780144E-005  0.2903120E+04  0.7818608E-02  0.8271950E-01
         -2   -1    0    0    0  501 -0.00000000000E+00  0.00000000000E+00  0.22533593843E+04  0.22533593843E+04  0.00000000000E+00 0. -1.
          2   -1    0    0  501    0  0.00000000000E+00 -0.00000000000E+00 -0.93505999629E+03  0.93505999629E+03  0.00000000000E+00 0.  1.
         23    2    1    2    0    0 -0.24262819875E+02 -0.12462306121E+04  0.14737091197E+04  0.19323017080E+04  0.91059859999E+02 0.  0.
         13    1    3    3    0    0  0.25175562190E+02 -0.76058935137E+03  0.86767695895E+03  0.11541201304E+04  0.00000000000E+00 0. -1.
        -13    1    3    3    0    0 -0.49438382064E+02 -0.48564126071E+03  0.60603216077E+03  0.77818157753E+03  0.00000000000E+00 0.  1.
         22    1    1    2    0    0  0.24262819875E+02  0.12462306121E+04 -0.15540973167E+03  0.12561176727E+04  0.00000000000E+00 0.  1.
<mgrwt>
<rscale>  0 0.29031199E+04</rscale>
<asrwt>0</asrwt>
<pdfrwt beam="1">  1        2 0.14385538E+00 0.29031199E+04</pdfrwt>
<pdfrwt beam="2">  1       -2 0.34667067E+00 0.29031199E+04</pdfrwt>
<totfact> 0.39125399E-01</totfact>
</mgrwt>
</event>
<event>
 6    1  0.1780144E-005  0.1260609E+04  0.7818608E-02  0.9061399E-01
         -1   -1    0    0    0  501 -0.00000000000E+00  0.00000000000E+00  0.29751255226E+03  0.29751255226E+03  0.00000000000E+00 0.  1.
          1   -1    0    0  501    0  0.00000000000E+00 -0.00000000000E+00 -0.13353515293E+04  0.13353515293E+04  0.00000000000E+00 0. -1.
         23    2    1    2    0    0 -0.56026261480E+03 -0.78088905420E+02 -0.87148411164E+03  0.10432319794E+04  0.94108082717E+02 0.  0.
         11    1    3    3    0    0 -0.83174631783E+02 -0.43304920522E+02 -0.11789415145E+03  0.15063985681E+03  0.00000000000E+00 0.  1.
        -11    1    3    3    0    0 -0.47708798302E+03 -0.34783984899E+02 -0.75358996019E+03  0.89259212255E+03  0.00000000000E+00 0. -1.
         22    1    1    2    0    0  0.56026261480E+03  0.78088905420E+02 -0.16635486540E+03  0.58963210219E+03  0.00000000000E+00 0.  1.
<mgrwt>
<rscale>  0 0.12606091E+04</rscale>
<asrwt>0</asrwt>
<pdfrwt beam="1">  1        1 0.20543870E+00 0.12606091E+04</pdfrwt>
<pdfrwt beam="2">  1       -1 0.45771162E-01 0.12606091E+04</pdfrwt>
<totfact> 0.39888837E+01</totfact>
</mgrwt>
</event>
<event>
 6    1  0.3372232E-005  0.2855580E+04  0.7818608E-02  0.8286218E-01
          2   -1    0    0  501    0  0.00000000000E+00  0.00000000000E+00  0.12286188225E+04  0.12286188225E+04  0.00000000000E+00 0. -1.
         -2   -1    0    0    0  501 -0.00000000000E+00 -0.00000000000E+00 -0.16592482460E+04  0.16592482460E+04  0.00000000000E+00 0.  1.
         23    2    1    2    0    0 -0.22309587156E+03 -0.29051862499E+03  0.11784473410E+04  0.12376243974E+04  0.93825232765E+02 0.  0.
         13    1    3    3    0    0 -0.14972808878E+03 -0.14419421730E+03  0.54287524515E+03  0.58131231251E+03  0.00000000000E+00 0.  1.
        -13    1    3    3    0    0 -0.73367782785E+02 -0.14632440769E+03  0.63557209583E+03  0.65631208493E+03  0.00000000000E+00 0. -1.
         22    1    1    2    0    0  0.22309587156E+03  0.29051862499E+03 -0.16090767645E+04  0.16502426711E+04  0.00000000000E+00 0.  1.
<mgrwt>
<rscale>  0 0.28555795E+04</rscale>
<asrwt>0</asrwt>
<pdfrwt beam="1">  1        2 0.18901828E+00 0.28555795E+04</pdfrwt>
<pdfrwt beam="2">  1       -2 0.25526896E+00 0.28555795E+04</pdfrwt>
<totfact> 0.94085751E-01</totfact>
</mgrwt>
</event>
<event>
 6    1  0.1780144E-005  0.2082594E+04  0.7818608E-02  0.8568950E-01
          2   -1    0    0  501    0  0.00000000000E+00  0.00000000000E+00  0.26708298949E+04  0.26708298949E+04  0.00000000000E+00 0. -1.
         -2   -1    0    0    0  501 -0.00000000000E+00 -0.00000000000E+00 -0.40597838056E+03  0.40597838056E+03  0.00000000000E+00 0.  1.
         23    2    1    2    0    0  0.20554702543E+03  0.45414622734E+03 -0.21282044491E+03  0.54948623165E+03  0.90245229938E+02 0.  0.
         11    1    3    3    0    0  0.32103997812E+02  0.16749975798E+03 -0.88370963920E+02  0.19208399950E+03  0.00000000000E+00 0. -1.
        -11    1    3    3    0    0  0.17344302762E+03  0.28664646936E+03 -0.12444948099E+03  0.35740223215E+03  0.00000000000E+00 0.  1.
         22    1    1    2    0    0 -0.20554702543E+03 -0.45414622734E+03  0.24776719593E+04  0.25273220438E+04  0.00000000000E+00 0. -1.
<mgrwt>
<rscale>  0 0.20825938E+04</rscale>
<asrwt>0</asrwt>
<pdfrwt beam="1">  1        2 0.41089690E+00 0.20825938E+04</pdfrwt>
<pdfrwt beam="2">  1       -2 0.62458214E-01 0.20825938E+04</pdfrwt>
<totfact> 0.60698219E+00</totfact>
</mgrwt>
</event>
<event>
 6    1  0.1780144E-005  0.3742192E+04  0.7818608E-02  0.8058675E-01
         -1   -1    0    0    0  501 -0.00000000000E+00  0.00000000000E+00  0.91868048569E+03  0.91868048569E+03  0.00000000000E+00 0.  1.
          1   -1    0    0  501    0  0.00000000000E+00 -0.00000000000E+00 -0.38109011638E+04  0.38109011638E+04  0.00000000000E+00 0. -1.
         23    2    1    2    0    0 -0.14459551020E+04 -0.91238875897E+03 -0.24040290372E+04  0.29515010880E+04  0.93614403775E+02 0.  0.
         11    1    3    3    0    0 -0.99968337004E+03 -0.64677739233E+03 -0.17431123804E+04  0.21109544302E+04  0.00000000000E+00 0. -1.
        -11    1    3    3    0    0 -0.44627173199E+03 -0.26561136665E+03 -0.66091665674E+03  0.84054665785E+03  0.00000000000E+00 0.  1.
         22    1    1    2    0    0  0.14459551020E+04  0.91238875897E+03 -0.48819164092E+03  0.17780805614E+04  0.00000000000E+00 0. -1.
<mgrwt>
<rscale>  0 0.37421922E+04</rscale>
<asrwt>0</asrwt>
<pdfrwt beam="1">  1        1 0.58629248E+00 0.37421922E+04</pdfrwt>
<pdfrwt beam="2">  1       -1 0.14133546E+00 0.37421922E+04</pdfrwt>
<totfact> 0.45506774E-02</totfact>
</mgrwt>
</event>
<event>
 6    1  0.1780144E-005  0.2155477E+04  0.7818608E-02  0.8537191E-01
          2   -1    0    0  501    0  0.00000000000E+00  0.00000000000E+00  0.11164695490E+04  0.11164695490E+04  0.00000000000E+00 0. -1.
         -2   -1    0    0    0  501 -0.00000000000E+00 -0.00000000000E+00 -0.10403515227E+04  0.10403515227E+04  0.00000000000E+00 0.  1.
         23    2    1    2    0    0  0.20973438699E+03 -0.88884499338E+03 -0.53103537672E+03  0.10601583205E+04  0.88899706220E+02 0.  0.
         11    1    3    3    0    0  0.19754987200E+03 -0.68088144694E+03 -0.39916959897E+03  0.81361038922E+03  0.00000000000E+00 0.  1.
        -11    1    3    3    0    0  0.12184514991E+02 -0.20796354644E+03 -0.13186577775E+03  0.24654793123E+03  0.00000000000E+00 0. -1.
         22    1    1    2    0    0 -0.20973438699E+03  0.88884499338E+03  0.60715340297E+03  0.10966627513E+04  0.00000000000E+00 0. -1.
<mgrwt>
<rscale>  0 0.21554775E+04</rscale>
<asrwt>0</asrwt>
<pdfrwt beam="1">  1        2 0.17176455E+00 0.21554775E+04</pdfrwt>
<pdfrwt beam="2">  1       -2 0.16005408E+00 0.21554775E+04</pdfrwt>
<totfact> 0.49134824E+00</totfact>
</mgrwt>
</event>
<event>
 6    1  0.1780144E-005  0.4292755E+04  0.7818608E-02  0.7947959E-01
         -2   -1    0    0    0  501 -0.00000000000E+00  0.00000000000E+00  0.18329796911E+04  0.18329796911E+04  0.00000000000E+00 0.  1.
          2   -1    0    0  501    0  0.00000000000E+00 -0.00000000000E+00 -0.25133587174E+04  0.25133587174E+04  0.00000000000E+00 0. -1.
         23    2    1    2    0    0  0.12194320758E+04  0.15354104272E+04  0.54139301003E+03  0.20360945520E+04  0.89860259409E+02 0.  0.
         11    1    3    3    0    0  0.38336519101E+03  0.53759865331E+03  0.20844344184E+03  0.69240873056E+03  0.00000000000E+00 0. -1.
        -11    1    3    3    0    0  0.83606688477E+03  0.99781177387E+03  0.33294956819E+03  0.13436858215E+04  0.00000000000E+00 0.  1.
         22    1    1    2    0    0 -0.12194320758E+04 -0.15354104272E+04 -0.12217720364E+04  0.23102438564E+04  0.00000000000E+00 0. -1.
<mgrwt>
<rscale>  0 0.42927546E+04</rscale>
<asrwt>0</asrwt>
<pdfrwt beam="1">  1        2 0.38667057E+00 0.42927546E+04</pdfrwt>
<pdfrwt beam="2">  1       -2 0.28199688E+00 0.42927546E+04</pdfrwt>
<totfact> 0.10788416E-01</totfact>
</mgrwt>
</event>
<event>
 6    1  0.1780144E-005  0.3271638E+04  0.7818608E-02  0.8170150E-01
         -2   -1    0    0    0  501 -0.00000000000E+00  0.00000000000E+00  0.11930154578E+04  0.11930154578E+04  0.00000000000E+00 0. -1.
          2   -1    0    0  501    0  0.00000000000E+00 -0.00000000000E+00 -0.22429752708E+04  0.22429752708E+04  0.00000000000E+00 0.  1.
         23    2    1    2    0    0  0.80003136053E+03 -0.11479666715E+04  0.36161748596E+03  0.14484223330E+04  0.96345170335E+02 0.  0.
         13    1    3    3    0    0  0.73374401952E+03 -0.99988432553E+03  0.32506483405E+03  0.12821139173E+04  0.00000000000E+00 0. -1.
        -13    1    3    3    0    0  0.66287341017E+02 -0.14808234594E+03  0.36552651908E+02  0.16630841566E+03  0.00000000000E+00 0.  1.
         22    1    1    2    0    0 -0.80003136053E+03  0.11479666715E+04 -0.14115772989E+04  0.19875683957E+04  0.00000000000E+00 0.  1.
<mgrwt>
<rscale>  0 0.32716382E+04</rscale>
<asrwt>0</asrwt>
<pdfrwt beam="1">  1        2 0.34507312E+00 0.32716382E+04</pdfrwt>
<pdfrwt beam="2">  1       -2 0.18354084E+00 0.32716382E+04</pdfrwt>
<totfact> 0.70087205E-01</totfact>
</mgrwt>
</event>
<event>
 6    1  0.1780144E-005  0.5263525E+04  0.7818608E-02  0.7789094E-01
          2   -1    0    0  501    0  0.00000000000E+00  0.00000000000E+00  0.39931448399E+04  0.39931448399E+04  0.00000000000E+00 0. -1.
         -2   -1    0    0    0  501 -0.00000000000E+00 -0.00000000000E+00 -0.17345158811E+04  0.17345158811E+04  0.00000000000E+00 0.  1.
         23    2    1    2    0    0 -0.12664447643E+04  0.18548634834E+04  0.26204617946E+04  0.34527269013E+04  0.10050947664E+03 0.  0.
         11    1    3    3    0    0 -0.68260100239E+03  0.10875614471E+04  0.15039690880E+04  0.19775381279E+04  0.00000000000E+00 0.  1.
        -11    1    3    3    0    0 -0.58384376187E+03  0.76730203631E+03  0.11164927066E+04  0.14751887734E+04  0.00000000000E+00 0. -1.
         22    1    1    2    0    0  0.12664447643E+04 -0.18548634834E+04 -0.36183283577E+03  0.22749338197E+04  0.00000000000E+00 0.  1.
<mgrwt>
<rscale>  0 0.52635247E+04</rscale>
<asrwt>0</asrwt>
<pdfrwt beam="1">  1        2 0.61432997E+00 0.52635247E+04</pdfrwt>
<pdfrwt beam="2">  1       -2 0.26684860E+00 0.52635247E+04</pdfrwt>
<totfact> 0.12457275E-02</totfact>
</mgrwt>
</event>
<event>
 6    1  0.1780144E-005  0.4251038E+04  0.7818608E-02  0.7955734E-01
         -2   -1    0    0    0  501 -0.00000000000E+00  0.00000000000E+00  0.24437395834E+04  0.24437395834E+04  0.00000000000E+00 0.  1.
          2   -1    0    0  501    0  0.00000000000E+00 -0.00000000000E+00 -0.18487365766E+04  0.18487365766E+04  0.00000000000E+00 0. -1.
         23    2    1    2    0    0 -0.39588123286E+02  0.18321942431E+04  0.13829575195E+04  0.22976390042E+04  0.89836122454E+02 0.  0.
         13    1    3    3    0    0 -0.42158857002E+02  0.11393504662E+04  0.90980889148E+03  0.14586463153E+04  0.00000000000E+00 0.  1.
        -13    1    3    3    0    0  0.25707337163E+01  0.69284377691E+03  0.47314862804E+03  0.83899268893E+03  0.00000000000E+00 0. -1.
         22    1    1    2    0    0  0.39588123286E+02 -0.18321942431E+04 -0.78795451265E+03  0.19948371558E+04  0.00000000000E+00 0. -1.
<mgrwt>
<rscale>  0 0.42510379E+04</rscale>
<asrwt>0</asrwt>
<pdfrwt beam="1">  1        2 0.28442101E+00 0.42510379E+04</pdfrwt>
<pdfrwt beam="2">  1       -2 0.37595994E+00 0.42510379E+04</pdfrwt>
<totfact> 0.66618993E-02</totfact>
</mgrwt>
</event>
<event>
 6    1  0.1780144E-005  0.1528789E+04  0.7818608E-02  0.8865531E-01
          3   -1    0    0  501    0  0.00000000000E+00  0.00000000000E+00  0.97221234298E+03  0.97221234298E+03  0.00000000000E+00 0. -1.
         -3   -1    0    0    0  501 -0.00000000000E+00 -0.00000000000E+00 -0.60099940976E+03  0.60099940976E+03  0.00000000000E+00 0.  1.
         23    2    1    2    0    0 -0.15519110491E+03  0.67299748280E+03  0.51725023359E+03  0.86728202252E+03  0.87294968518E+02 0.  0.
         11    1    3    3    0    0 -0.10591804172E+03  0.41963638068E+03  0.27158373864E+03  0.51095112355E+03  0.00000000000E+00 0. -1.
        -11    1    3    3    0    0 -0.49273063186E+02  0.25336110212E+03  0.24566649494E+03  0.35633089897E+03  0.00000000000E+00 0.  1.
         22    1    1    2    0    0  0.15519110491E+03 -0.67299748280E+03 -0.14603730037E+03  0.70592973022E+03  0.00000000000E+00 0.  1.
<mgrwt>
<rscale>  0 0.15287891E+04</rscale>
<asrwt>0</asrwt>
<pdfrwt beam="1">  1        3 0.14957113E+00 0.15287891E+04</pdfrwt>
<pdfrwt beam="2">  1       -3 0.92461448E-01 0.15287891E+04</pdfrwt>
<totfact> 0.86248600E-01</totfact>
</mgrwt>
</event>
<event>
 6    1  0.1780144E-005  0.2477673E+04  0.7818608E-02  0.8410983E-01
          3   -1    0    0  501    0  0.00000000000E+00  0.00000000000E+00  0.11486299471E+04  0.11486299471E+04  0.00000000000E+00 0. -1.
         -3   -1    0    0    0  501 -0.00000000000E+00 -0.00000000000E+00 -0.13361272381E+04  0.13361272381E+04  0.00000000000E+00 0.  1.
         23    2    1    2    0    0  0.62895148540E+03 -0.86280364863E+02 -0.11587858140E+04  0.13244013486E+04  0.90719883438E+02 0.  0.
         11    1    3    3    0    0  0.60805420034E+03 -0.71740113643E+02 -0.10785123413E+04  0.12401876571E+04  0.00000000000E+00 0.  1.
        -11    1    3    3    0    0  0.20897285059E+02 -0.14540251220E+02 -0.80273472705E+02  0.84213691574E+02  0.00000000000E+00 0. -1.
         22    1    1    2    0    0 -0.62895148540E+03  0.86280364863E+02  0.97128852304E+03  0.11603558365E+04  0.00000000000E+00 0. -1.
<mgrwt>
<rscale>  0 0.24776729E+04</rscale>
<asrwt>0</asrwt>
<pdfrwt beam="1">  1        3 0.17671230E+00 0.24776729E+04</pdfrwt>
<pdfrwt beam="2">  1       -3 0.20555804E+00 0.24776729E+04</pdfrwt>
<totfact> 0.65693806E-02</totfact>
</mgrwt>
</event>
<event>
 6    1  0.1780144E-005  0.1383714E+04  0.7818608E-02  0.8965692E-01
         -1   -1    0    0    0  501 -0.00000000000E+00  0.00000000000E+00  0.16961704078E+03  0.16961704078E+03  0.00000000000E+00 0.  1.
          1   -1    0    0  501    0  0.00000000000E+00 -0.00000000000E+00 -0.28220414059E+04  0.28220414059E+04  0.00000000000E+00 0. -1.
         23    2    1    2    0    0  0.56238267842E+03 -0.16422558828E+03 -0.21152429936E+04  0.21967948441E+04  0.91707928160E+02 0.  0.
         11    1    3    3    0    0  0.12101834447E+03 -0.62191215367E+02 -0.38931719270E+03  0.41240885478E+03  0.00000000000E+00 0. -1.
        -11    1    3    3    0    0  0.44136433395E+03 -0.10203437291E+03 -0.17259258009E+04  0.17843859893E+04  0.00000000000E+00 0.  1.
         22    1    1    2    0    0 -0.56238267842E+03  0.16422558828E+03 -0.53718137148E+03  0.79486360258E+03  0.00000000000E+00 0.  1.
<mgrwt>
<rscale>  0 0.13837143E+04</rscale>
<asrwt>0</asrwt>
<pdfrwt beam="1">  1        1 0.43416022E+00 0.13837143E+04</pdfrwt>
<pdfrwt beam="2">  1       -1 0.26094929E-01 0.13837143E+04</pdfrwt>
<totfact> 0.10274190E+01</totfact>
</mgrwt>
</event>
<event>
 6    1  0.1780144E-005  0.9665528E+03  0.7818608E-02  0.9346009E-01
         -2   -1    0    0    0  501 -0.00000000000E+00  0.00000000000E+00  0.19703458854E+03  0.19703458854E+03  0.00000000000E+00 0.  1.
          2   -1    0    0  501    0  0.00000000000E+00 -0.00000000000E+00 -0.11853557468E+04  0.11853557468E+04  0.00000000000E+00 0. -1.
         23    2    1    2    0    0 -0.21038887886E+03  0.33156056851E+03 -0.89095777650E+03  0.97782202340E+03  0.90190127044E+02 0.  0.
         13    1    3    3    0    0 -0.14797857318E+03  0.18692681282E+03 -0.44467580585E+03  0.50455511471E+03  0.00000000000E+00 0. -1.
        -13    1    3    3    0    0 -0.62410305676E+02  0.14463375568E+03 -0.44628197065E+03  0.47326690870E+03  0.00000000000E+00 0.  1.
         22    1    1    2    0    0  0.21038887886E+03 -0.33156056851E+03 -0.97363381793E+02  0.40456831197E+03  0.00000000000E+00 0.  1.
<mgrwt>
<rscale>  0 0.96655281E+03</rscale>
<asrwt>0</asrwt>
<pdfrwt beam="1">  1        2 0.18236243E+00 0.96655281E+03</pdfrwt>
<pdfrwt beam="2">  1       -2 0.30313013E-01 0.96655281E+03</pdfrwt>
<totfact> 0.19408562E+02</totfact>
</mgrwt>
</event>
<event>
 6    1  0.1780144E-005  0.4966381E+04  0.7818608E-02  0.7833714E-01
         -2   -1    0    0    0  501 -0.00000000000E+00  0.00000000000E+00  0.19894828523E+04  0.19894828523E+04  0.00000000000E+00 0.  1.
          2   -1    0    0  501    0  0.00000000000E+00 -0.00000000000E+00 -0.30994158474E+04  0.30994158474E+04  0.00000000000E+00 0. -1.
         23    2    1    2    0    0 -0.18718292464E+04  0.11544594625E+04 -0.17349402508E+04  0.28026013769E+04  0.89640535757E+02 0.  0.
         11    1    3    3    0    0 -0.66470293486E+03  0.40644870749E+03 -0.56059440301E+03  0.95984198080E+03  0.00000000000E+00 0.  1.
        -11    1    3    3    0    0 -0.12071263116E+04  0.74801075499E+03 -0.11743458478E+04  0.18427593961E+04  0.00000000000E+00 0. -1.
         22    1    1    2    0    0  0.18718292464E+04 -0.11544594625E+04  0.62500725576E+03  0.22862973228E+04  0.00000000000E+00 0.  1.
<mgrwt>
<rscale>  0 0.49663808E+04</rscale>
<asrwt>0</asrwt>
<pdfrwt beam="1">  1        2 0.47683320E+00 0.49663808E+04</pdfrwt>
<pdfrwt beam="2">  1       -2 0.30607429E+00 0.49663808E+04</pdfrwt>
<totfact> 0.32049454E-02</totfact>
</mgrwt>
</event>
<event>
 6    1  0.1780144E-005  0.2030867E+04  0.7818608E-02  0.8592324E-01
          1   -1    0    0  501    0  0.00000000000E+00  0.00000000000E+00  0.20075680796E+04  0.20075680796E+04  0.00000000000E+00 0. -1.
         -1   -1    0    0    0  501 -0.00000000000E+00 -0.00000000000E+00 -0.51360922343E+03  0.51360922343E+03  0.00000000000E+00 0.  1.
         23    2    1    2    0    0 -0.69483994664E+03 -0.27325771421E+03 -0.10264178208E+03  0.75862065774E+03  0.86588897091E+02 0.  0.
         13    1    3    3    0    0 -0.26091734332E+03 -0.14060343204E+03 -0.64081292469E+02  0.30323851535E+03  0.00000000000E+00 0.  1.
        -13    1    3    3    0    0 -0.43392260332E+03 -0.13265428217E+03 -0.38560489612E+02  0.45538214239E+03  0.00000000000E+00 0. -1.
         22    1    1    2    0    0  0.69483994664E+03  0.27325771421E+03  0.15966006383E+04  0.17625566453E+04  0.00000000000E+00 0. -1.
<mgrwt>
<rscale>  0 0.20308673E+04</rscale>
<asrwt>0</asrwt>
<pdfrwt beam="1">  1        1 0.30885662E+00 0.20308673E+04</pdfrwt>
<pdfrwt beam="2">  1       -1 0.79016805E-01 0.20308673E+04</pdfrwt>
<totfact> 0.43631691E+00</totfact>
</mgrwt>
</event>
<event>
 6    1  0.1780144E-005  0.3779053E+04  0.7818608E-02  0.8050665E-01
         -2   -1    0    0    0  501 -0.00000000000E+00  0.00000000000E+00  0.16309266543E+04  0.16309266543E+04  0.00000000000E+00 0.  1.
          2   -1    0    0  501    0  0.00000000000E+00 -0.00000000000E+00 -0.21891300066E+04  0.21891300066E+04  0.00000000000E+00 0. -1.
         23    2    1    2    0    0  0.16705483618E+04 -0.70835509895E+03  0.24942207128E+03  0.18339152762E+04  0.92385579262E+02 0.  0.
         11    1    3    3    0    0  0.99471502935E+03 -0.46946290236E+03  0.16168273788E+03  0.11117529915E+04  0.00000000000E+00 0. -1.
        -11    1    3    3    0    0  0.67583333242E+03 -0.23889219659E+03  0.87739333401E+02  0.72216228469E+03  0.00000000000E+00 0.  1.
         22    1    1    2    0    0 -0.16705483618E+04  0.70835509895E+03 -0.80762542366E+03  0.19861413847E+04  0.00000000000E+00 0. -1.
<mgrwt>
<rscale>  0 0.37790530E+04</rscale>
<asrwt>0</asrwt>
<pdfrwt beam="1">  1        2 0.33678923E+00 0.37790530E+04</pdfrwt>
<pdfrwt beam="2">  1       -2 0.25091179E+00 0.37790530E+04</pdfrwt>
<totfact> 0.26685552E-01</totfact>
</mgrwt>
</event>
<event>
 6    1  0.1780144E-005  0.1125042E+04  0.7818608E-02  0.9181122E-01
         -2   -1    0    0    0  501 -0.00000000000E+00  0.00000000000E+00  0.62961519878E+03  0.62961519878E+03  0.00000000000E+00 0.  1.
          2   -1    0    0  501    0  0.00000000000E+00 -0.00000000000E+00 -0.50257699568E+03  0.50257699568E+03  0.00000000000E+00 0. -1.
         23    2    1    2    0    0  0.11660337344E+03 -0.42000574963E+03  0.41581761893E+03  0.60932057787E+03  0.91466376247E+02 0.  0.
         13    1    3    3    0    0  0.22473680809E+02 -0.19062505287E+03  0.13475676716E+03  0.23452582674E+03  0.00000000000E+00 0. -1.
        -13    1    3    3    0    0  0.94129692634E+02 -0.22938069676E+03  0.28106085177E+03  0.37479475114E+03  0.00000000000E+00 0.  1.
         22    1    1    2    0    0 -0.11660337344E+03  0.42000574963E+03 -0.28877941583E+03  0.52287161659E+03  0.00000000000E+00 0. -1.
<mgrwt>
<rscale>  0 0.11250424E+04</rscale>
<asrwt>0</asrwt>
<pdfrwt beam="1">  1        2 0.77319538E-01 0.11250424E+04</pdfrwt>
<pdfrwt beam="2">  1       -2 0.96863877E-01 0.11250424E+04</pdfrwt>
<totfact> 0.54057067E+01</totfact>
</mgrwt>
</event>
<event>
 6    1  0.1780144E-005  0.3929478E+04  0.7818608E-02  0.8018926E-01
         -2   -1    0    0    0  501 -0.00000000000E+00  0.00000000000E+00  0.27977466391E+04  0.27977466391E+04  0.00000000000E+00 0.  1.
          2   -1    0    0  501    0  0.00000000000E+00 -0.00000000000E+00 -0.13797531743E+04  0.13797531743E+04  0.00000000000E+00 0. -1.
         23    2    1    2    0    0  0.13072491639E+04  0.13005982498E+03 -0.84247536871E+03  0.15630141505E+04  0.86212257371E+02 0.  0.
         13    1    3    3    0    0  0.68314650832E+03  0.38071257789E+02 -0.40131459918E+03  0.79321622526E+03  0.00000000000E+00 0.  1.
        -13    1    3    3    0    0  0.62410265554E+03  0.91988567196E+02 -0.44116076953E+03  0.76979792525E+03  0.00000000000E+00 0. -1.
         22    1    1    2    0    0 -0.13072491639E+04 -0.13005982498E+03  0.22604688334E+04  0.26144856629E+04  0.00000000000E+00 0.  1.
<mgrwt>
<rscale>  0 0.39294782E+04</rscale>
<asrwt>0</asrwt>
<pdfrwt beam="1">  1        2 0.21226972E+00 0.39294782E+04</pdfrwt>
<pdfrwt beam="2">  1       -2 0.43042256E+00 0.39294782E+04</pdfrwt>
<totfact> 0.55142240E-02</totfact>
</mgrwt>
</event>
<event>
 6    1  0.1780144E-005  0.2484913E+04  0.7818608E-02  0.8408380E-01
         -3   -1    0    0    0  501 -0.00000000000E+00  0.00000000000E+00  0.61450624171E+03  0.61450624171E+03  0.00000000000E+00 0.  1.
          3   -1    0    0  501    0  0.00000000000E+00 -0.00000000000E+00 -0.25120952471E+04  0.25120952471E+04  0.00000000000E+00 0. -1.
         23    2    1    2    0    0  0.74948894564E+03 -0.55887457146E+03  0.76267849048E+02  0.94252608991E+03  0.92000973323E+02 0.  0.
         11    1    3    3    0    0  0.62091405896E+03 -0.49216391339E+03  0.40621469955E+02  0.79335344587E+03  0.00000000000E+00 0. -1.
        -11    1    3    3    0    0  0.12857488668E+03 -0.66710658068E+02  0.35646379093E+02  0.14917264403E+03  0.00000000000E+00 0.  1.
         22    1    1    2    0    0 -0.74948894564E+03  0.55887457146E+03 -0.19738568545E+04  0.21840753989E+04  0.00000000000E+00 0. -1.
<mgrwt>
<rscale>  0 0.24849130E+04</rscale>
<asrwt>0</asrwt>
<pdfrwt beam="1">  1        3 0.38647619E+00 0.24849130E+04</pdfrwt>
<pdfrwt beam="2">  1       -3 0.94539421E-01 0.24849130E+04</pdfrwt>
<totfact> 0.30435996E-02</totfact>
</mgrwt>
</event>
<event>
 6    1  0.1780144E-005  0.4807989E+03  0.7818608E-02  0.1018916E+00
         -2   -1    0    0    0  501 -0.00000000000E+00  0.00000000000E+00  0.54564723148E+03  0.54564723148E+03  0.00000000000E+00 0. -1.
          2   -1    0    0  501    0  0.00000000000E+00 -0.00000000000E+00 -0.10591439316E+03  0.10591439316E+03  0.00000000000E+00 0.  1.
         23    2    1    2    0    0 -0.56262591426E+02 -0.22052326557E+03  0.28668235504E+03  0.37729817413E+03  0.91493987016E+02 0.  0.
         13    1    3    3    0    0 -0.50388465207E+02 -0.14226150724E+03  0.11912295658E+03  0.19226963528E+03  0.00000000000E+00 0.  1.
        -13    1    3    3    0    0 -0.58741262192E+01 -0.78261758338E+02  0.16755939846E+03  0.18502853886E+03  0.00000000000E+00 0. -1.
         22    1    1    2    0    0  0.56262591426E+02  0.22052326557E+03  0.15305048327E+03  0.27426345051E+03  0.00000000000E+00 0. -1.
<mgrwt>
<rscale>  0 0.48079890E+03</rscale>
<asrwt>0</asrwt>
<pdfrwt beam="1">  1        2 0.16294522E-01 0.48079890E+03</pdfrwt>
<pdfrwt beam="2">  1       -2 0.83945726E-01 0.48079890E+03</pdfrwt>
<totfact> 0.45384215E+02</totfact>
</mgrwt>
</event>
<event>
 6    1  0.1780144E-005  0.6194960E+03  0.7818608E-02  0.9865764E-01
          1   -1    0    0  501    0  0.00000000000E+00  0.00000000000E+00  0.40941254508E+03  0.40941254508E+03  0.00000000000E+00 0. -1.
         -1   -1    0    0    0  501 -0.00000000000E+00 -0.00000000000E+00 -0.23434507616E+03  0.23434507616E+03  0.00000000000E+00 0.  1.
         23    2    1    2    0    0 -0.15346057504E+03 -0.18224501996E+03  0.28407722417E+03  0.38175280806E+03  0.90950215894E+02 0.  0.
         11    1    3    3    0    0 -0.55341243211E+02 -0.54175712680E+02  0.16158581305E+03  0.17918603747E+03  0.00000000000E+00 0. -1.
        -11    1    3    3    0    0 -0.98119331834E+02 -0.12806930728E+03  0.12249141112E+03  0.20256677058E+03  0.00000000000E+00 0.  1.
         22    1    1    2    0    0  0.15346057504E+03  0.18224501996E+03 -0.10900975525E+03  0.26200481319E+03  0.00000000000E+00 0.  1.
<mgrwt>
<rscale>  0 0.61949597E+03</rscale>
<asrwt>0</asrwt>
<pdfrwt beam="1">  1        1 0.62986546E-01 0.61949597E+03</pdfrwt>
<pdfrwt beam="2">  1       -1 0.36053089E-01 0.61949597E+03</pdfrwt>
<totfact> 0.43291136E+02</totfact>
</mgrwt>
</event>
<event>
 6    1  0.1780144E-005  0.9849628E+03  0.7818608E-02  0.9325193E-01
         -2   -1    0    0    0  501 -0.00000000000E+00  0.00000000000E+00  0.12575040506E+03  0.12575040506E+03  0.00000000000E+00 0. -1.
          2   -1    0    0  501    0  0.00000000000E+00 -0.00000000000E+00 -0.19287250286E+04  0.19287250286E+04  0.00000000000E+00 0.  1.
         23    2    1    2    0    0  0.32157968907E+03 -0.36314070626E+03 -0.10248526333E+04  0.11375465920E+04  0.91676932881E+02 0.  0.
         13    1    3    3    0    0  0.35774935495E+02 -0.38429871672E+02 -0.57412017510E+02  0.77800005147E+02  0.00000000000E+00 0.  1.
        -13    1    3    3    0    0  0.28580475358E+03 -0.32471083459E+03 -0.96744061576E+03  0.10597465868E+04  0.00000000000E+00 0. -1.
         22    1    1    2    0    0 -0.32157968907E+03  0.36314070626E+03 -0.77812199029E+03  0.91692884170E+03  0.00000000000E+00 0. -1.
<mgrwt>
<rscale>  0 0.98496285E+03</rscale>
<asrwt>0</asrwt>
<pdfrwt beam="1">  1        2 0.29672691E+00 0.98496285E+03</pdfrwt>
<pdfrwt beam="2">  1       -2 0.19346217E-01 0.98496285E+03</pdfrwt>
<totfact> 0.16622062E+02</totfact>
</mgrwt>
</event>
<event>
 6    1  0.1780144E-005  0.2057660E+04  0.7818608E-02  0.8580127E-01
         -2   -1    0    0    0  501 -0.00000000000E+00  0.00000000000E+00  0.50395595542E+03  0.50395595542E+03  0.00000000000E+00 0.  1.
          2   -1    0    0  501    0  0.00000000000E+00 -0.00000000000E+00 -0.21003649375E+04  0.21003649375E+04  0.00000000000E+00 0. -1.
         23    2    1    2    0    0 -0.56222830890E+03  0.45939656233E+03  0.11933635181E+03  0.74127824082E+03  0.90035507681E+02 0.  0.
         11    1    3    3    0    0 -0.42686214034E+03  0.31693707898E+03  0.11876077788E+03  0.54476097625E+03  0.00000000000E+00 0.  1.
        -11    1    3    3    0    0 -0.13536616857E+03  0.14245948335E+03  0.57557392239E+00  0.19651726457E+03  0.00000000000E+00 0. -1.
         22    1    1    2    0    0  0.56222830890E+03 -0.45939656233E+03 -0.17157453339E+04  0.18630426521E+04  0.00000000000E+00 0. -1.
<mgrwt>
<rscale>  0 0.20576602E+04</rscale>
<asrwt>0</asrwt>
<pdfrwt beam="1">  1        2 0.32313307E+00 0.20576602E+04</pdfrwt>
<pdfrwt beam="2">  1       -2 0.77531686E-01 0.20576602E+04</pdfrwt>
<totfact> 0.80535178E+00</totfact>
</mgrwt>
</event>
<event>
 6    1  0.1780144E-005  0.3058219E+04  0.7818608E-02  0.8227299E-01
          2   -1    0    0  501    0  0.00000000000E+00  0.00000000000E+00  0.23165237127E+04  0.23165237127E+04  0.00000000000E+00 0. -1.
         -2   -1    0    0    0  501 -0.00000000000E+00 -0.00000000000E+00 -0.10093470294E+04  0.10093470294E+04  0.00000000000E+00 0.  1.
         23    2    1    2    0    0 -0.37144977869E+03  0.13098113884E+04  0.14079155624E+04  0.19606860905E+04  0.92102678445E+02 0.  0.
         13    1    3    3    0    0 -0.29003553732E+03  0.93884552413E+03  0.10638649121E+04  0.14482265300E+04  0.00000000000E+00 0.  1.
        -13    1    3    3    0    0 -0.81414241369E+02  0.37096586424E+03  0.34405065032E+03  0.51245956047E+03  0.00000000000E+00 0. -1.
         22    1    1    2    0    0  0.37144977869E+03 -0.13098113884E+04 -0.10073887912E+03  0.13651846516E+04  0.00000000000E+00 0.  1.
<mgrwt>
<rscale>  0 0.30582193E+04</rscale>
<asrwt>0</asrwt>
<pdfrwt beam="1">  1        2 0.35638826E+00 0.30582193E+04</pdfrwt>
<pdfrwt beam="2">  1       -2 0.15528416E+00 0.30582193E+04</pdfrwt>
<totfact> 0.10324471E+00</totfact>
</mgrwt>
</event>
<event>
 6    1  0.1780144E-005  0.3599983E+04  0.7818608E-02  0.8090496E-01
         -2   -1    0    0    0  501 -0.00000000000E+00  0.00000000000E+00  0.10208381779E+04  0.10208381779E+04  0.00000000000E+00 0.  1.
          2   -1    0    0  501    0  0.00000000000E+00 -0.00000000000E+00 -0.31738318083E+04  0.31738318083E+04  0.00000000000E+00 0. -1.
         23    2    1    2    0    0 -0.26613831392E+03 -0.17550624626E+04 -0.73787288418E+03  0.19245068696E+04  0.90534237898E+02 0.  0.
         11    1    3    3    0    0 -0.19470863739E+03 -0.11744074715E+04 -0.45195293292E+03  0.12733443432E+04  0.00000000000E+00 0.  1.
        -11    1    3    3    0    0 -0.71429676537E+02 -0.58065499103E+03 -0.28591995127E+03  0.65116252643E+03  0.00000000000E+00 0. -1.
         22    1    1    2    0    0  0.26613831392E+03  0.17550624626E+04 -0.14151207463E+04  0.22701631166E+04  0.00000000000E+00 0.  1.
<mgrwt>
<rscale>  0 0.35999826E+04</rscale>
<asrwt>0</asrwt>
<pdfrwt beam="1">  1        2 0.48828182E+00 0.35999826E+04</pdfrwt>
<pdfrwt beam="2">  1       -2 0.15705203E+00 0.35999826E+04</pdfrwt>
<totfact> 0.29093934E-01</totfact>
</mgrwt>
</event>
<event>
 6    1  0.1780144E-005  0.4361062E+04  0.7818608E-02  0.7935423E-01
          1   -1    0    0  501    0  0.00000000000E+00  0.00000000000E+00  0.19510554907E+04  0.19510554907E+04  0.00000000000E+00 0. -1.
         -1   -1    0    0    0  501 -0.00000000000E+00 -0.00000000000E+00 -0.24369966572E+04  0.24369966572E+04  0.00000000000E+00 0.  1.
         23    2    1    2    0    0 -0.19219664672E+04 -0.10263449497E+04 -0.18510080872E+03  0.21885422076E+04  0.90086782449E+02 0.  0.
         13    1    3    3    0    0 -0.56204251435E+03 -0.33398356630E+03 -0.84154289974E+02  0.65918036608E+03  0.00000000000E+00 0.  1.
        -13    1    3    3    0    0 -0.13599239529E+04 -0.69236138335E+03 -0.10094651874E+03  0.15293618416E+04  0.00000000000E+00 0. -1.
         22    1    1    2    0    0  0.19219664672E+04  0.10263449497E+04 -0.30084035778E+03  0.21995099403E+04  0.00000000000E+00 0.  1.
<mgrwt>
<rscale>  0 0.43610621E+04</rscale>
<asrwt>0</asrwt>
<pdfrwt beam="1">  1        1 0.30016238E+00 0.43610621E+04</pdfrwt>
<pdfrwt beam="2">  1       -1 0.37492256E+00 0.43610621E+04</pdfrwt>
<totfact> 0.25875882E-02</totfact>
</mgrwt>
</event>
<event>
 6    1  0.1780144E-005  0.1438484E+04  0.7818608E-02  0.8926424E-01
         -2   -1    0    0    0  501 -0.00000000000E+00  0.00000000000E+00  0.28593403839E+03  0.28593403839E+03  0.00000000000E+00 0.  1.
          2   -1    0    0  501    0  0.00000000000E+00 -0.00000000000E+00 -0.18091891379E+04  0.18091891379E+04  0.00000000000E+00 0. -1.
         23    2    1    2    0    0 -0.90128740739E+02 -0.70842419392E+03 -0.84698674934E+03  0.11115953882E+04  0.90938029204E+02 0.  0.
         13    1    3    3    0    0 -0.95717995884E+02 -0.58432774141E+03 -0.73935193281E+03  0.94722865490E+03  0.00000000000E+00 0. -1.
        -13    1    3    3    0    0  0.55892551447E+01 -0.12409645250E+03 -0.10763481654E+03  0.16436673334E+03  0.00000000000E+00 0.  1.
         22    1    1    2    0    0  0.90128740739E+02  0.70842419392E+03 -0.67626835017E+03  0.98352778806E+03  0.00000000000E+00 0.  1.
<mgrwt>
<rscale>  0 0.14384836E+04</rscale>
<asrwt>0</asrwt>
<pdfrwt beam="1">  1        2 0.27833679E+00 0.14384836E+04</pdfrwt>
<pdfrwt beam="2">  1       -2 0.43989851E-01 0.14384836E+04</pdfrwt>
<totfact> 0.40564647E+01</totfact>
</mgrwt>
</event>
<event>
 6    1  0.1780144E-005  0.1913251E+04  0.7818608E-02  0.8648289E-01
         -1   -1    0    0    0  501 -0.00000000000E+00  0.00000000000E+00  0.54964514540E+03  0.54964514540E+03  0.00000000000E+00 0.  1.
          1   -1    0    0  501    0  0.00000000000E+00 -0.00000000000E+00 -0.16649510500E+04  0.16649510500E+04  0.00000000000E+00 0. -1.
         23    2    1    2    0    0  0.37305317948E+03 -0.41797198577E+03 -0.14533985921E+04  0.15602446684E+04  0.90148223318E+02 0.  0.
         13    1    3    3    0    0  0.13410810404E+03 -0.11285369325E+03 -0.54927221566E+03  0.57655954293E+03  0.00000000000E+00 0. -1.
        -13    1    3    3    0    0  0.23894507545E+03 -0.30511829252E+03 -0.90412637640E+03  0.98368512544E+03  0.00000000000E+00 0.  1.
         22    1    1    2    0    0 -0.37305317948E+03  0.41797198577E+03  0.33809268746E+03  0.65435152703E+03  0.00000000000E+00 0.  1.
<mgrwt>
<rscale>  0 0.19132509E+04</rscale>
<asrwt>0</asrwt>
<pdfrwt beam="1">  1        1 0.25614631E+00 0.19132509E+04</pdfrwt>
<pdfrwt beam="2">  1       -1 0.84560792E-01 0.19132509E+04</pdfrwt>
<totfact> 0.65161691E+00</totfact>
</mgrwt>
</event>
<event>
 6    1  0.1780144E-005  0.2805083E+04  0.7818608E-02  0.8301692E-01
          2   -1    0    0  501    0  0.00000000000E+00  0.00000000000E+00  0.17647483544E+04  0.17647483544E+04  0.00000000000E+00 0. -1.
         -2   -1    0    0    0  501 -0.00000000000E+00 -0.00000000000E+00 -0.11146764075E+04  0.11146764075E+04  0.00000000000E+00 0.  1.
         23    2    1    2    0    0  0.89569766430E+03 -0.66648365957E+03 -0.54349276646E+03  0.12450834576E+04  0.91507676500E+02 0.  0.
         11    1    3    3    0    0  0.18860994038E+03 -0.17549202126E+03 -0.15481687965E+03  0.30056517656E+03  0.00000000000E+00 0. -1.
        -11    1    3    3    0    0  0.70708772392E+03 -0.49099163831E+03 -0.38867588682E+03  0.94451828103E+03  0.00000000000E+00 0.  1.
         22    1    1    2    0    0 -0.89569766430E+03  0.66648365957E+03  0.11935647133E+04  0.16343413044E+04  0.00000000000E+00 0. -1.
<mgrwt>
<rscale>  0 0.28050835E+04</rscale>
<asrwt>0</asrwt>
<pdfrwt beam="1">  1        2 0.27149975E+00 0.28050835E+04</pdfrwt>
<pdfrwt beam="2">  1       -2 0.17148868E+00 0.28050835E+04</pdfrwt>
<totfact> 0.16333814E+00</totfact>
</mgrwt>
</event>
<event>
 6    1  0.1780144E-005  0.3441556E+04  0.7818608E-02  0.8127782E-01
         -1   -1    0    0    0  501 -0.00000000000E+00  0.00000000000E+00  0.18145902800E+04  0.18145902800E+04  0.00000000000E+00 0.  1.
          1   -1    0    0  501    0  0.00000000000E+00 -0.00000000000E+00 -0.16318160175E+04  0.16318160175E+04  0.00000000000E+00 0. -1.
         23    2    1    2    0    0 -0.12288855833E+04  0.83945072538E+03 -0.77117443020E+03  0.16786802425E+04  0.91760871764E+02 0.  0.
         13    1    3    3    0    0 -0.50947623994E+03  0.32576930843E+03 -0.35981630067E+03  0.70367567217E+03  0.00000000000E+00 0.  1.
        -13    1    3    3    0    0 -0.71940934336E+03  0.51368141695E+03 -0.41135812953E+03  0.97500457033E+03  0.00000000000E+00 0. -1.
         22    1    1    2    0    0  0.12288855833E+04 -0.83945072538E+03  0.95394869276E+03  0.17677260550E+04  0.00000000000E+00 0.  1.
<mgrwt>
<rscale>  0 0.34415563E+04</rscale>
<asrwt>0</asrwt>
<pdfrwt beam="1">  1        1 0.25104862E+00 0.34415563E+04</pdfrwt>
<pdfrwt beam="2">  1       -1 0.27916774E+00 0.34415563E+04</pdfrwt>
<totfact> 0.19603250E-01</totfact>
</mgrwt>
</event>
<event>
 6    1  0.1780144E-005  0.1399120E+04  0.7818608E-02  0.8954456E-01
         -1   -1    0    0    0  501 -0.00000000000E+00  0.00000000000E+00  0.45630369829E+03  0.45630369829E+03  0.00000000000E+00 0.  1.
          1   -1    0    0  501    0  0.00000000000E+00 -0.00000000000E+00 -0.10724959078E+04  0.10724959078E+04  0.00000000000E+00 0. -1.
         23    2    1    2    0    0  0.59210006140E+03 -0.27991850718E+02  0.90372967644E+02  0.60651961826E+03  0.91283884855E+02 0.  0.
         13    1    3    3    0    0  0.29064143047E+03 -0.32236433255E+02  0.86710898637E+02  0.30500886656E+03  0.00000000000E+00 0.  1.
        -13    1    3    3    0    0  0.30145863093E+03  0.42445825368E+01  0.36620690071E+01  0.30151075170E+03  0.00000000000E+00 0. -1.
         22    1    1    2    0    0 -0.59210006140E+03  0.27991850718E+02 -0.70656517719E+03  0.92227998788E+03  0.00000000000E+00 0. -1.
<mgrwt>
<rscale>  0 0.13991195E+04</rscale>
<asrwt>0</asrwt>
<pdfrwt beam="1">  1        1 0.16499937E+00 0.13991195E+04</pdfrwt>
<pdfrwt beam="2">  1       -1 0.70200569E-01 0.13991195E+04</pdfrwt>
<totfact> 0.26608537E+01</totfact>
</mgrwt>
</event>
<event>
 6    1  0.1780144E-005  0.2061548E+04  0.7818608E-02  0.8578374E-01
         -2   -1    0    0    0  501 -0.00000000000E+00  0.00000000000E+00  0.13000490561E+04  0.13000490561E+04  0.00000000000E+00 0.  1.
          2   -1    0    0  501    0  0.00000000000E+00 -0.00000000000E+00 -0.81727301539E+03  0.81727301539E+03  0.00000000000E+00 0. -1.
         23    2    1    2    0    0  0.66117720413E+03 -0.52089255712E+03 -0.36551899087E+03  0.92229537222E+03  0.92413579127E+02 0.  0.
         11    1    3    3    0    0  0.35727145169E+03 -0.23260002116E+03 -0.15634722102E+03  0.45408161552E+03  0.00000000000E+00 0. -1.
        -11    1    3    3    0    0  0.30390575244E+03 -0.28829253597E+03 -0.20917176985E+03  0.46821375670E+03  0.00000000000E+00 0.  1.
         22    1    1    2    0    0 -0.66117720413E+03  0.52089255712E+03  0.84829503156E+03  0.11950266992E+04  0.00000000000E+00 0.  1.
<mgrwt>
<rscale>  0 0.20615480E+04</rscale>
<asrwt>0</asrwt>
<pdfrwt beam="1">  1        2 0.12573431E+00 0.20615480E+04</pdfrwt>
<pdfrwt beam="2">  1       -2 0.20000755E+00 0.20615480E+04</pdfrwt>
<totfact> 0.41132887E+00</totfact>
</mgrwt>
</event>
<event>
 6    1  0.1780144E-005  0.3840105E+04  0.7818608E-02  0.8037603E-01
          2   -1    0    0  501    0  0.00000000000E+00  0.00000000000E+00  0.32556476840E+04  0.32556476840E+04  0.00000000000E+00 0.  1.
         -2   -1    0    0    0  501 -0.00000000000E+00 -0.00000000000E+00 -0.11323713800E+04  0.11323713800E+04  0.00000000000E+00 0. -1.
         23    2    1    2    0    0  0.54870872366E+02 -0.11194228968E+04  0.28421769032E+04  0.30565024453E+04  0.90106684025E+02 0.  0.
         11    1    3    3    0    0 -0.13013566621E+02 -0.32821399790E+03  0.91209201518E+03  0.96943572530E+03  0.00000000000E+00 0. -1.
        -11    1    3    3    0    0  0.67884438987E+02 -0.79120889886E+03  0.19300848880E+04  0.20870667200E+04  0.00000000000E+00 0.  1.
         22    1    1    2    0    0 -0.54870872366E+02  0.11194228968E+04 -0.71890059919E+03  0.13315166187E+04  0.00000000000E+00 0. -1.
<mgrwt>
<rscale>  0 0.38401053E+04</rscale>
<asrwt>0</asrwt>
<pdfrwt beam="1">  1        2 0.50086887E+00 0.38401053E+04</pdfrwt>
<pdfrwt beam="2">  1       -2 0.17421098E+00 0.38401053E+04</pdfrwt>
<totfact> 0.18936750E-01</totfact>
</mgrwt>
</event>
<event>
 6    1  0.1780144E-005  0.1515646E+04  0.7818608E-02  0.8874114E-01
         -1   -1    0    0    0  501 -0.00000000000E+00  0.00000000000E+00  0.29864224880E+03  0.29864224880E+03  0.00000000000E+00 0.  1.
          1   -1    0    0  501    0  0.00000000000E+00 -0.00000000000E+00 -0.19230234125E+04  0.19230234125E+04  0.00000000000E+00 0. -1.
         23    2    1    2    0    0 -0.24717236906E+03  0.44722922345E+03 -0.97072938266E+00  0.51973452385E+03  0.94946693648E+02 0.  0.
         11    1    3    3    0    0 -0.18247524352E+03  0.39030990210E+03 -0.20618261008E+02  0.43135153514E+03  0.00000000000E+00 0. -1.
        -11    1    3    3    0    0 -0.64697125537E+02  0.56919321350E+02  0.19647531626E+02  0.88382988718E+02  0.00000000000E+00 0.  1.
         22    1    1    2    0    0  0.24717236906E+03 -0.44722922345E+03 -0.16234104343E+04  0.17019311375E+04  0.00000000000E+00 0. -1.
<mgrwt>
<rscale>  0 0.15156464E+04</rscale>
<asrwt>0</asrwt>
<pdfrwt beam="1">  1        1 0.29584976E+00 0.15156464E+04</pdfrwt>
<pdfrwt beam="2">  1       -1 0.45944961E-01 0.15156464E+04</pdfrwt>
<totfact> 0.15301386E+01</totfact>
</mgrwt>
</event>
<event>
 6    1  0.1780144E-005  0.2920601E+04  0.7818608E-02  0.8266774E-01
          2   -1    0    0  501    0  0.00000000000E+00  0.00000000000E+00  0.33862251415E+04  0.33862251415E+04  0.00000000000E+00 0. -1.
         -2   -1    0    0    0  501 -0.00000000000E+00 -0.00000000000E+00 -0.62975046629E+03  0.62975046629E+03  0.00000000000E+00 0.  1.
         23    2    1    2    0    0 -0.14315472017E+04  0.29256951362E+02  0.99576053228E+03  0.17465488843E+04  0.93330636912E+02 0.  0.
         11    1    3    3    0    0 -0.40103404455E+03  0.21275930228E+02  0.23155748362E+03  0.46357290507E+03  0.00000000000E+00 0.  1.
        -11    1    3    3    0    0 -0.10305131572E+04  0.79810211343E+01  0.76420304866E+03  0.12829759793E+04  0.00000000000E+00 0. -1.
         22    1    1    2    0    0  0.14315472017E+04 -0.29256951362E+02  0.17607141429E+04  0.22694267234E+04  0.00000000000E+00 0. -1.
<mgrwt>
<rscale>  0 0.29206005E+04</rscale>
<asrwt>0</asrwt>
<pdfrwt beam="1">  1        2 0.52095770E+00 0.29206005E+04</pdfrwt>
<pdfrwt beam="2">  1       -2 0.96884689E-01 0.29206005E+04</pdfrwt>
<totfact> 0.74669566E-01</totfact>
</mgrwt>
</event>
<event>
 6    1  0.1780144E-005  0.2990793E+04  0.7818608E-02  0.8246365E-01
         -2   -1    0    0    0  501 -0.00000000000E+00  0.00000000000E+00  0.12670995151E+04  0.12670995151E+04  0.00000000000E+00 0.  1.
          2   -1    0    0  501    0  0.00000000000E+00 -0.00000000000E+00 -0.17648261337E+04  0.17648261337E+04  0.00000000000E+00 0. -1.
         23    2    1    2    0    0  0.16974333757E+03  0.12559995411E+04 -0.10507590185E+04  0.16491051676E+04  0.95423743167E+02 0.  0.
         11    1    3    3    0    0  0.17303313235E+03  0.10145356733E+04 -0.86570616640E+03  0.13448681213E+04  0.00000000000E+00 0. -1.
        -11    1    3    3    0    0 -0.32897947846E+01  0.24146386783E+03 -0.18505285214E+03  0.30423704623E+03  0.00000000000E+00 0.  1.
         22    1    1    2    0    0 -0.16974333757E+03 -0.12559995411E+04  0.55303239999E+03  0.13828204812E+04  0.00000000000E+00 0.  1.
<mgrwt>
<rscale>  0 0.29907928E+04</rscale>
<asrwt>0</asrwt>
<pdfrwt beam="1">  1        2 0.27151171E+00 0.29907928E+04</pdfrwt>
<pdfrwt beam="2">  1       -2 0.19493839E+00 0.29907928E+04</pdfrwt>
<totfact> 0.11108711E+00</totfact>
</mgrwt>
</event>
<event>
 6    1  0.1780144E-005  0.2761317E+04  0.7818608E-02  0.8315380E-01
          1   -1    0    0  501    0  0.00000000000E+00  0.00000000000E+00  0.19110926862E+04  0.19110926862E+04  0.00000000000E+00 0. -1.
         -1   -1    0    0    0  501 -0.00000000000E+00 -0.00000000000E+00 -0.99744891459E+03  0.99744891459E+03  0.00000000000E+00 0.  1.
         23    2    1    2    0    0 -0.12127545253E+04 -0.55890662394E+03  0.82045224195E+03  0.15699472581E+04  0.91882311047E+02 0.  0.
         13    1    3    3    0    0 -0.34878175861E+03 -0.20327175440E+03  0.22784894861E+03  0.46355502873E+03  0.00000000000E+00 0.  1.
        -13    1    3    3    0    0 -0.86397276670E+03 -0.35563486954E+03  0.59260329334E+03  0.11063922294E+04  0.00000000000E+00 0. -1.
         22    1    1    2    0    0  0.12127545253E+04  0.55890662394E+03  0.93191529644E+02  0.13385943426E+04  0.00000000000E+00 0.  1.
<mgrwt>
<rscale>  0 0.27613166E+04</rscale>
<asrwt>0</asrwt>
<pdfrwt beam="1">  1        1 0.29401426E+00 0.27613166E+04</pdfrwt>
<pdfrwt beam="2">  1       -1 0.15345368E+00 0.27613166E+04</pdfrwt>
<totfact> 0.97549172E-01</totfact>
</mgrwt>
</event>
<event>
 6    1  0.1780144E-005  0.1491578E+04  0.7818608E-02  0.8890073E-01
          1   -1    0    0  501    0  0.00000000000E+00  0.00000000000E+00  0.20981098936E+04  0.20981098936E+04  0.00000000000E+00 0. -1.
         -1   -1    0    0    0  501 -0.00000000000E+00 -0.00000000000E+00 -0.26509636394E+03  0.26509636394E+03  0.00000000000E+00 0.  1.
         23    2    1    2    0    0  0.31209741998E+03 -0.50645116889E+03  0.16252761186E+04  0.17330853025E+04  0.90358276704E+02 0.  0.
         11    1    3    3    0    0  0.11165179577E+03 -0.22760446426E+03  0.80004076684E+03  0.83924677196E+03  0.00000000000E+00 0. -1.
        -11    1    3    3    0    0  0.20044562421E+03 -0.27884670463E+03  0.82523535173E+03  0.89383853055E+03  0.00000000000E+00 0.  1.
         22    1    1    2    0    0 -0.31209741998E+03  0.50645116889E+03  0.20773741114E+03  0.63012095507E+03  0.00000000000E+00 0. -1.
<mgrwt>
<rscale>  0 0.14915781E+04</rscale>
<asrwt>0</asrwt>
<pdfrwt beam="1">  1        1 0.32278613E+00 0.14915781E+04</pdfrwt>
<pdfrwt beam="2">  1       -1 0.40784057E-01 0.14915781E+04</pdfrwt>
<totfact> 0.14556338E+01</totfact>
</mgrwt>
</event>
<event>
 6    1  0.1780144E-005  0.1437637E+04  0.7818608E-02  0.8927017E-01
         -1   -1    0    0    0  501 -0.00000000000E+00  0.00000000000E+00  0.91283530186E+03  0.91283530186E+03  0.00000000000E+00 0.  1.
          1   -1    0    0  501    0  0.00000000000E+00 -0.00000000000E+00 -0.56603849699E+03  0.56603849699E+03  0.00000000000E+00 0. -1.
         23    2    1    2    0    0 -0.37933609703E+03  0.32315938663E+03  0.70292353992E+03  0.86637554163E+03  0.90427940916E+02 0.  0.
         13    1    3    3    0    0 -0.57098355819E+02  0.85007569792E+02  0.18615022921E+03  0.21245803584E+03  0.00000000000E+00 0.  1.
        -13    1    3    3    0    0 -0.32223774121E+03  0.23815181684E+03  0.51677331071E+03  0.65391750579E+03  0.00000000000E+00 0. -1.
         22    1    1    2    0    0  0.37933609703E+03 -0.32315938663E+03 -0.35612673505E+03  0.61249825721E+03  0.00000000000E+00 0. -1.
<mgrwt>
<rscale>  0 0.14376368E+04</rscale>
<asrwt>0</asrwt>
<pdfrwt beam="1">  1        1 0.87082846E-01 0.14376368E+04</pdfrwt>
<pdfrwt beam="2">  1       -1 0.14043620E+00 0.14376368E+04</pdfrwt>
<totfact> 0.15054187E+01</totfact>
</mgrwt>
</event>
<event>
 6    1  0.1780144E-005  0.1826207E+04  0.7818608E-02  0.8692486E-01
         -1   -1    0    0    0  501 -0.00000000000E+00  0.00000000000E+00  0.70817833463E+03  0.70817833463E+03  0.00000000000E+00 0.  1.
          1   -1    0    0  501    0  0.00000000000E+00 -0.00000000000E+00 -0.11773280344E+04  0.11773280344E+04  0.00000000000E+00 0. -1.
         23    2    1    2    0    0 -0.45346874504E+03  0.16340879179E+03 -0.10330695980E+04  0.11436559881E+04  0.91541731602E+02 0.  0.
         13    1    3    3    0    0 -0.18141355666E+03  0.11326583419E+03 -0.43784003089E+03  0.48728217737E+03  0.00000000000E+00 0. -1.
        -13    1    3    3    0    0 -0.27205518838E+03  0.50142957597E+02 -0.59522956716E+03  0.65637381068E+03  0.00000000000E+00 0.  1.
         22    1    1    2    0    0  0.45346874504E+03 -0.16340879179E+03  0.56391989832E+03  0.74185038093E+03  0.00000000000E+00 0.  1.
<mgrwt>
<rscale>  0 0.18262072E+04</rscale>
<asrwt>0</asrwt>
<pdfrwt beam="1">  1        1 0.18112739E+00 0.18262072E+04</pdfrwt>
<pdfrwt beam="2">  1       -1 0.10895051E+00 0.18262072E+04</pdfrwt>
<totfact> 0.81620123E+00</totfact>
</mgrwt>
</event>
<event>
 6    1  0.1780144E-005  0.9987938E+03  0.7818608E-02  0.9309869E-01
         -2   -1    0    0    0  501 -0.00000000000E+00  0.00000000000E+00  0.12654319788E+03  0.12654319788E+03  0.00000000000E+00 0. -1.
          2   -1    0    0  501    0  0.00000000000E+00 -0.00000000000E+00 -0.19708468968E+04  0.19708468968E+04  0.00000000000E+00 0.  1.
         23    2    1    2    0    0 -0.21886012391E+03 -0.43471717648E+03 -0.73752669556E+03  0.88832677438E+03  0.91104632401E+02 0.  0.
         13    1    3    3    0    0 -0.39805942070E+02 -0.23694148796E+02 -0.81332397920E+02  0.93599597556E+02  0.00000000000E+00 0.  1.
        -13    1    3    3    0    0 -0.17905418184E+03 -0.41102302768E+03 -0.65619429764E+03  0.79472717682E+03  0.00000000000E+00 0. -1.
         22    1    1    2    0    0  0.21886012391E+03  0.43471717648E+03 -0.11067770033E+04  0.12090633203E+04  0.00000000000E+00 0.  1.
<mgrwt>
<rscale>  0 0.99879381E+03</rscale>
<asrwt>0</asrwt>
<pdfrwt beam="1">  1        2 0.30320720E+00 0.99879381E+03</pdfrwt>
<pdfrwt beam="2">  1       -2 0.19468185E-01 0.99879381E+03</pdfrwt>
<totfact> 0.15570682E+02</totfact>
</mgrwt>
</event>
<event>
 6    1  0.1780144E-005  0.1691556E+04  0.7818608E-02  0.8766195E-01
          2   -1    0    0  501    0  0.00000000000E+00  0.00000000000E+00  0.23921627811E+04  0.23921627811E+04  0.00000000000E+00 0. -1.
         -2   -1    0    0    0  501 -0.00000000000E+00 -0.00000000000E+00 -0.29903507898E+03  0.29903507898E+03  0.00000000000E+00 0.  1.
         23    2    1    2    0    0 -0.77207925807E+03  0.17715851713E+03  0.15099658624E+04  0.17075468792E+04  0.90707871969E+02 0.  0.
         11    1    3    3    0    0 -0.39607348574E+03  0.10005515379E+03  0.87338903412E+03  0.96420622526E+03  0.00000000000E+00 0. -1.
        -11    1    3    3    0    0 -0.37600577233E+03  0.77103363340E+02  0.63657682828E+03  0.74334065391E+03  0.00000000000E+00 0.  1.
         22    1    1    2    0    0  0.77207925807E+03 -0.17715851713E+03  0.58316183975E+03  0.98365098093E+03  0.00000000000E+00 0.  1.
<mgrwt>
<rscale>  0 0.16915562E+04</rscale>
<asrwt>0</asrwt>
<pdfrwt beam="1">  1        2 0.36802503E+00 0.16915562E+04</pdfrwt>
<pdfrwt beam="2">  1       -2 0.46005398E-01 0.16915562E+04</pdfrwt>
<totfact> 0.17155448E+01</totfact>
</mgrwt>
</event>
<event>
 6    1  0.1780144E-005  0.1956552E+04  0.7818608E-02  0.8627208E-01
         -2   -1    0    0    0  501 -0.00000000000E+00  0.00000000000E+00  0.96456352611E+03  0.96456352611E+03  0.00000000000E+00 0.  1.
          2   -1    0    0  501    0  0.00000000000E+00 -0.00000000000E+00 -0.99218305764E+03  0.99218305764E+03  0.00000000000E+00 0. -1.
         23    2    1    2    0    0 -0.94171161009E+03 -0.25680066990E+03  0.51567664233E+00  0.98024316308E+03  0.90050275983E+02 0.  0.
         13    1    3    3    0    0 -0.18867231525E+03 -0.52444991426E+02 -0.36029266210E+02  0.19911260054E+03  0.00000000000E+00 0. -1.
        -13    1    3    3    0    0 -0.75303929484E+03 -0.20435567848E+03  0.36544942852E+02  0.78113056254E+03  0.00000000000E+00 0.  1.
         22    1    1    2    0    0  0.94171161009E+03  0.25680066990E+03 -0.28135208167E+02  0.97650342067E+03  0.00000000000E+00 0. -1.
<mgrwt>
<rscale>  0 0.19565516E+04</rscale>
<asrwt>0</asrwt>
<pdfrwt beam="1">  1        2 0.15264355E+00 0.19565516E+04</pdfrwt>
<pdfrwt beam="2">  1       -2 0.14839439E+00 0.19565516E+04</pdfrwt>
<totfact> 0.73233982E+00</totfact>
</mgrwt>
</event>
<event>
 6    1  0.1780144E-005  0.3631785E+04  0.7818608E-02  0.8083250E-01
          2   -1    0    0  501    0  0.00000000000E+00  0.00000000000E+00  0.11222777816E+04  0.11222777816E+04  0.00000000000E+00 0. -1.
         -2   -1    0    0    0  501 -0.00000000000E+00 -0.00000000000E+00 -0.29381896360E+04  0.29381896360E+04  0.00000000000E+00 0.  1.
         23    2    1    2    0    0 -0.34047707400E+03 -0.12433755635E+04  0.51959839173E+03  0.13927876131E+04  0.89260387650E+02 0.  0.
         13    1    3    3    0    0 -0.21830616714E+03 -0.92022105258E+03  0.40462086184E+03  0.10286799357E+04  0.00000000000E+00 0. -1.
        -13    1    3    3    0    0 -0.12217090686E+03 -0.32315451092E+03  0.11497752989E+03  0.36410767746E+03  0.00000000000E+00 0.  1.
         22    1    1    2    0    0  0.34047707400E+03  0.12433755635E+04 -0.23355102461E+04  0.26676798045E+04  0.00000000000E+00 0.  1.
<mgrwt>
<rscale>  0 0.36317847E+04</rscale>
<asrwt>0</asrwt>
<pdfrwt beam="1">  1        2 0.17265812E+00 0.36317847E+04</pdfrwt>
<pdfrwt beam="2">  1       -2 0.45202917E+00 0.36317847E+04</pdfrwt>
<totfact> 0.57699639E-02</totfact>
</mgrwt>
</event>
<event>
 6    1  0.1780144E-005  0.1353427E+04  0.7818608E-02  0.8988238E-01
          1   -1    0    0  501    0  0.00000000000E+00  0.00000000000E+00  0.15268930583E+04  0.15268930583E+04  0.00000000000E+00 0. -1.
         -1   -1    0    0    0  501 -0.00000000000E+00 -0.00000000000E+00 -0.29991701793E+03  0.29991701793E+03  0.00000000000E+00 0.  1.
         23    2    1    2    0    0 -0.10438710329E+03 -0.66312410297E+03  0.53952022485E+03  0.86596370891E+03  0.90447934544E+02 0.  0.
         13    1    3    3    0    0 -0.11033693829E+03 -0.48317041939E+03  0.42220699953E+03  0.65106577592E+03  0.00000000000E+00 0. -1.
        -13    1    3    3    0    0  0.59498349949E+01 -0.17995368358E+03  0.11731322533E+03  0.21489793299E+03  0.00000000000E+00 0.  1.
         22    1    1    2    0    0  0.10438710329E+03  0.66312410297E+03  0.68745581547E+03  0.96084636727E+03  0.00000000000E+00 0. -1.
<mgrwt>
<rscale>  0 0.13534271E+04</rscale>
<asrwt>0</asrwt>
<pdfrwt beam="1">  1        1 0.23490662E+00 0.13534271E+04</pdfrwt>
<pdfrwt beam="2">  1       -1 0.46141081E-01 0.13534271E+04</pdfrwt>
<totfact> 0.28654450E+01</totfact>
</mgrwt>
</event>
<event>
 6    1  0.1780144E-005  0.4320487E+04  0.7818608E-02  0.7942841E-01
          2   -1    0    0  501    0  0.00000000000E+00  0.00000000000E+00  0.16040192152E+04  0.16040192152E+04  0.00000000000E+00 0.  1.
         -2   -1    0    0    0  501 -0.00000000000E+00 -0.00000000000E+00 -0.29093494822E+04  0.29093494822E+04  0.00000000000E+00 0. -1.
         23    2    1    2    0    0 -0.12768306615E+04  0.15158256526E+04  0.24240411744E+03  0.19987105353E+04  0.89778062254E+02 0.  0.
         13    1    3    3    0    0 -0.95015595541E+03  0.11722664757E+04  0.21013999437E+03  0.15235366247E+04  0.00000000000E+00 0. -1.
        -13    1    3    3    0    0 -0.32667470610E+03  0.34355917687E+03  0.32264123067E+02  0.47517391053E+03  0.00000000000E+00 0.  1.
         22    1    1    2    0    0  0.12768306615E+04 -0.15158256526E+04 -0.15477343844E+04  0.25146581621E+04  0.00000000000E+00 0. -1.
<mgrwt>
<rscale>  0 0.43204872E+04</rscale>
<asrwt>0</asrwt>
<pdfrwt beam="1">  1        2 0.24677219E+00 0.43204872E+04</pdfrwt>
<pdfrwt beam="2">  1       -2 0.44759222E+00 0.43204872E+04</pdfrwt>
<totfact> 0.30731141E-02</totfact>
</mgrwt>
</event>
<event>
 6    1  0.1780144E-005  0.4580102E+04  0.7818608E-02  0.7896761E-01
         -2   -1    0    0    0  501 -0.00000000000E+00  0.00000000000E+00  0.26441758568E+04  0.26441758568E+04  0.00000000000E+00 0.  1.
          2   -1    0    0  501    0  0.00000000000E+00 -0.00000000000E+00 -0.19833527323E+04  0.19833527323E+04  0.00000000000E+00 0. -1.
         23    2    1    2    0    0  0.14013321287E+04 -0.77850332623E+03  0.19817269809E+04  0.25503703954E+04  0.85721426074E+02 0.  0.
         13    1    3    3    0    0  0.40516955123E+03 -0.26690746468E+03  0.57602359621E+03  0.75313023000E+03  0.00000000000E+00 0. -1.
        -13    1    3    3    0    0  0.99616257750E+03 -0.51159586155E+03  0.14057033847E+04  0.17972401654E+04  0.00000000000E+00 0.  1.
         22    1    1    2    0    0 -0.14013321287E+04  0.77850332623E+03 -0.13209038563E+04  0.20771581937E+04  0.00000000000E+00 0. -1.
<mgrwt>
<rscale>  0 0.45801019E+04</rscale>
<asrwt>0</asrwt>
<pdfrwt beam="1">  1        2 0.30513119E+00 0.45801019E+04</pdfrwt>
<pdfrwt beam="2">  1       -2 0.40679628E+00 0.45801019E+04</pdfrwt>
<totfact> 0.34430887E-02</totfact>
</mgrwt>
</event>
<event>
 6    1  0.1780144E-005  0.3382696E+04  0.7818608E-02  0.8142166E-01
          2   -1    0    0  501    0  0.00000000000E+00  0.00000000000E+00  0.12008380942E+04  0.12008380942E+04  0.00000000000E+00 0. -1.
         -2   -1    0    0    0  501 -0.00000000000E+00 -0.00000000000E+00 -0.23822174903E+04  0.23822174903E+04  0.00000000000E+00 0.  1.
         23    2    1    2    0    0  0.85055638235E+03  0.13453422128E+04 -0.11942305305E+04  0.19913404779E+04  0.76540903448E+02 0.  0.
         13    1    3    3    0    0  0.25789075510E+03  0.44692263413E+03 -0.42372746523E+03  0.66767690334E+03  0.00000000000E+00 0. -1.
        -13    1    3    3    0    0  0.59266562725E+03  0.89841957864E+03 -0.77050306526E+03  0.13236635746E+04  0.00000000000E+00 0.  1.
         22    1    1    2    0    0 -0.85055638235E+03 -0.13453422128E+04  0.12851134324E+02  0.15917151066E+04  0.00000000000E+00 0. -1.
<mgrwt>
<rscale>  0 0.33826957E+04</rscale>
<asrwt>0</asrwt>
<pdfrwt beam="1">  1        2 0.18474432E+00 0.33826957E+04</pdfrwt>
<pdfrwt beam="2">  1       -2 0.36649500E+00 0.33826957E+04</pdfrwt>
<totfact> 0.19176419E-01</totfact>
</mgrwt>
</event>
<event>
 6    1  0.1780144E-005  0.3032720E+04  0.7818608E-02  0.8234449E-01
          2   -1    0    0  501    0  0.00000000000E+00  0.00000000000E+00  0.11076598877E+04  0.11076598877E+04  0.00000000000E+00 0. -1.
         -2   -1    0    0    0  501 -0.00000000000E+00 -0.00000000000E+00 -0.20758600567E+04  0.20758600567E+04  0.00000000000E+00 0.  1.
         23    2    1    2    0    0  0.24995646108E+03 -0.29310665403E+03 -0.20225879111E+04  0.20609678281E+04  0.91306008259E+02 0.  0.
         13    1    3    3    0    0  0.73904566595E+02 -0.15179149325E+03 -0.94916808281E+03  0.96406565742E+03  0.00000000000E+00 0. -1.
        -13    1    3    3    0    0  0.17605189449E+03 -0.14131516078E+03 -0.10734198283E+04  0.10969021706E+04  0.00000000000E+00 0.  1.
         22    1    1    2    0    0 -0.24995646108E+03  0.29310665403E+03  0.10543877422E+04  0.11225521163E+04  0.00000000000E+00 0. -1.
<mgrwt>
<rscale>  0 0.30327195E+04</rscale>
<asrwt>0</asrwt>
<pdfrwt beam="1">  1        2 0.17040921E+00 0.30327195E+04</pdfrwt>
<pdfrwt beam="2">  1       -2 0.31936308E+00 0.30327195E+04</pdfrwt>
<totfact> 0.44447219E-01</totfact>
</mgrwt>
</event>
<event>
 6    1  0.1780144E-005  0.1592709E+04  0.7818608E-02  0.8825039E-01
         -2   -1    0    0    0  501 -0.00000000000E+00  0.00000000000E+00  0.23037555215E+03  0.23037555215E+03  0.00000000000E+00 0.  1.
          2   -1    0    0  501    0  0.00000000000E+00 -0.00000000000E+00 -0.27528128143E+04  0.27528128143E+04  0.00000000000E+00 0. -1.
         23    2    1    2    0    0 -0.43832604422E+03 -0.63073483614E+03 -0.89050697279E+03  0.11795385601E+04  0.91391419858E+02 0.  0.
         11    1    3    3    0    0 -0.16258052523E+03 -0.29615229707E+03 -0.43331584686E+03  0.54945539709E+03  0.00000000000E+00 0.  1.
        -11    1    3    3    0    0 -0.27574551899E+03 -0.33458253908E+03 -0.45719112592E+03  0.63008316302E+03  0.00000000000E+00 0. -1.
         22    1    1    2    0    0  0.43832604422E+03  0.63073483614E+03 -0.16319302894E+04  0.18036498063E+04  0.00000000000E+00 0. -1.
<mgrwt>
<rscale>  0 0.15927094E+04</rscale>
<asrwt>0</asrwt>
<pdfrwt beam="1">  1        2 0.42350967E+00 0.15927094E+04</pdfrwt>
<pdfrwt beam="2">  1       -2 0.35442392E-01 0.15927094E+04</pdfrwt>
<totfact> 0.17785769E+01</totfact>
</mgrwt>
</event>
<event>
 6    1  0.1780144E-005  0.3993754E+04  0.7818608E-02  0.8005808E-01
         -1   -1    0    0    0  501 -0.00000000000E+00  0.00000000000E+00  0.13393657857E+04  0.13393657857E+04  0.00000000000E+00 0.  1.
          1   -1    0    0  501    0  0.00000000000E+00 -0.00000000000E+00 -0.29771680100E+04  0.29771680100E+04  0.00000000000E+00 0. -1.
         23    2    1    2    0    0  0.96836314827E+01  0.90575392916E+03 -0.27414090885E+04  0.28887971031E+04  0.96648637251E+02 0.  0.
         11    1    3    3    0    0  0.20377563103E+02  0.34077115595E+03 -0.11744982262E+04  0.12231051914E+04  0.00000000000E+00 0. -1.
        -11    1    3    3    0    0 -0.10693931621E+02  0.56498277321E+03 -0.15669108623E+04  0.16656919117E+04  0.00000000000E+00 0.  1.
         22    1    1    2    0    0 -0.96836314827E+01 -0.90575392916E+03  0.11036068642E+04  0.14277366927E+04  0.00000000000E+00 0.  1.
<mgrwt>
<rscale>  0 0.39937536E+04</rscale>
<asrwt>0</asrwt>
<pdfrwt beam="1">  1        1 0.45802585E+00 0.39937536E+04</pdfrwt>
<pdfrwt beam="2">  1       -1 0.20605628E+00 0.39937536E+04</pdfrwt>
<totfact> 0.66481505E-02</totfact>
</mgrwt>
</event>
<event>
 6    1  0.1780144E-005  0.3675967E+04  0.7818608E-02  0.8073309E-01
          1   -1    0    0  501    0  0.00000000000E+00  0.00000000000E+00  0.16202296950E+04  0.16202296950E+04  0.00000000000E+00 0. -1.
         -1   -1    0    0    0  501 -0.00000000000E+00 -0.00000000000E+00 -0.20850032588E+04  0.20850032588E+04  0.00000000000E+00 0.  1.
         23    2    1    2    0    0  0.16908121874E+04  0.35138630674E+03 -0.86314960036E+03  0.19329401856E+04  0.94405185384E+02 0.  0.
         13    1    3    3    0    0  0.62822062354E+03  0.84197973004E+02 -0.31307059296E+03  0.70693963439E+03  0.00000000000E+00 0. -1.
        -13    1    3    3    0    0  0.10625915638E+04  0.26718833373E+03 -0.55007900740E+03  0.12260005512E+04  0.00000000000E+00 0.  1.
         22    1    1    2    0    0 -0.16908121874E+04 -0.35138630674E+03  0.39837603652E+03  0.17722927681E+04  0.00000000000E+00 0. -1.
<mgrwt>
<rscale>  0 0.36759675E+04</rscale>
<asrwt>0</asrwt>
<pdfrwt beam="1">  1        1 0.24926611E+00 0.36759675E+04</pdfrwt>
<pdfrwt beam="2">  1       -1 0.32076973E+00 0.36759675E+04</pdfrwt>
<totfact> 0.10509448E-01</totfact>
</mgrwt>
</event>
<event>
 6    1  0.1780144E-005  0.9456651E+03  0.7818608E-02  0.9370232E-01
         -1   -1    0    0    0  501 -0.00000000000E+00  0.00000000000E+00  0.16073779892E+03  0.16073779892E+03  0.00000000000E+00 0.  1.
          1   -1    0    0  501    0  0.00000000000E+00 -0.00000000000E+00 -0.13909025764E+04  0.13909025764E+04  0.00000000000E+00 0. -1.
         23    2    1    2    0    0 -0.28531233633E+03 -0.36519057762E+03 -0.51010410596E+03  0.69533747451E+03  0.92307731521E+02 0.  0.
         11    1    3    3    0    0 -0.20041000685E+03 -0.24765009510E+03 -0.40962117489E+03  0.51892605193E+03  0.00000000000E+00 0.  1.
        -11    1    3    3    0    0 -0.84902329484E+02 -0.11754048252E+03 -0.10048293107E+03  0.17641142258E+03  0.00000000000E+00 0. -1.
         22    1    1    2    0    0  0.28531233633E+03  0.36519057762E+03 -0.72006067151E+03  0.85630290079E+03  0.00000000000E+00 0.  1.
<mgrwt>
<rscale>  0 0.94566510E+03</rscale>
<asrwt>0</asrwt>
<pdfrwt beam="1">  1        1 0.21398502E+00 0.94566510E+03</pdfrwt>
<pdfrwt beam="2">  1       -1 0.24728892E-01 0.94566510E+03</pdfrwt>
<totfact> 0.11185606E+02</totfact>
</mgrwt>
</event>
<event>
 6    1  0.1780144E-005  0.1415588E+04  0.7818608E-02  0.8942612E-01
         -1   -1    0    0    0  501 -0.00000000000E+00  0.00000000000E+00  0.19272234448E+04  0.19272234448E+04  0.00000000000E+00 0.  1.
          1   -1    0    0  501    0  0.00000000000E+00 -0.00000000000E+00 -0.25994512503E+03  0.25994512503E+03  0.00000000000E+00 0. -1.
         23    2    1    2    0    0 -0.21357466399E+03 -0.53116727985E+03  0.20260145398E+03  0.61458116765E+03  0.94391981671E+02 0.  0.
         11    1    3    3    0    0 -0.80004233159E+02 -0.17056619352E+03  0.11316955083E+03  0.21977454568E+03  0.00000000000E+00 0. -1.
        -11    1    3    3    0    0 -0.13357043084E+03 -0.36060108633E+03  0.89431903150E+02  0.39480662198E+03  0.00000000000E+00 0.  1.
         22    1    1    2    0    0  0.21357466399E+03  0.53116727985E+03  0.14646768658E+04  0.15725874021E+04  0.00000000000E+00 0.  1.
<mgrwt>
<rscale>  0 0.14155880E+04</rscale>
<asrwt>0</asrwt>
<pdfrwt beam="1">  1        1 0.39991559E-01 0.14155880E+04</pdfrwt>
<pdfrwt beam="2">  1       -1 0.29649590E+00 0.14155880E+04</pdfrwt>
<totfact> 0.35932672E+00</totfact>
</mgrwt>
</event>
<event>
 6    1  0.1780144E-005  0.1110937E+04  0.7818608E-02  0.9194597E-01
         -1   -1    0    0    0  501 -0.00000000000E+00  0.00000000000E+00  0.44509332722E+03  0.44509332722E+03  0.00000000000E+00 0.  1.
          1   -1    0    0  501    0  0.00000000000E+00 -0.00000000000E+00 -0.69321470719E+03  0.69321470719E+03  0.00000000000E+00 0. -1.
         23    2    1    2    0    0 -0.14418779088E+02  0.54967395324E+03 -0.17019954383E+03  0.58295124044E+03  0.92276258847E+02 0.  0.
         13    1    3    3    0    0  0.30039396174E+02  0.87813312436E+02 -0.17263459988E+02  0.94401113416E+02  0.00000000000E+00 0.  1.
        -13    1    3    3    0    0 -0.44458175262E+02  0.46186064081E+03 -0.15293608385E+03  0.48855012702E+03  0.00000000000E+00 0. -1.
         22    1    1    2    0    0  0.14418779088E+02 -0.54967395324E+03 -0.77921836134E+02  0.55535679397E+03  0.00000000000E+00 0. -1.
<mgrwt>
<rscale>  0 0.11109370E+04</rscale>
<asrwt>0</asrwt>
<pdfrwt beam="1">  1        1 0.10664842E+00 0.11109370E+04</pdfrwt>
<pdfrwt beam="2">  1       -1 0.68475897E-01 0.11109370E+04</pdfrwt>
<totfact> 0.59453726E+01</totfact>
</mgrwt>
</event>
<event>
 6    1  0.1780144E-005  0.3474495E+04  0.7818608E-02  0.8119861E-01
         -2   -1    0    0    0  501 -0.00000000000E+00  0.00000000000E+00  0.10539173850E+04  0.10539173850E+04  0.00000000000E+00 0.  1.
          2   -1    0    0  501    0  0.00000000000E+00 -0.00000000000E+00 -0.28636295601E+04  0.28636295601E+04  0.00000000000E+00 0. -1.
         23    2    1    2    0    0 -0.11547382005E+04 -0.10451344097E+04 -0.17701428361E+04  0.23595700587E+04  0.91863789982E+02 0.  0.
         13    1    3    3    0    0 -0.78063940215E+03 -0.75259471899E+03 -0.11928934311E+04  0.16120767430E+04  0.00000000000E+00 0. -1.
        -13    1    3    3    0    0 -0.37409879830E+03 -0.29253969068E+03 -0.57724940503E+03  0.74749331577E+03  0.00000000000E+00 0.  1.
         22    1    1    2    0    0  0.11547382005E+04  0.10451344097E+04 -0.39569338943E+02  0.15579768864E+04  0.00000000000E+00 0.  1.
<mgrwt>
<rscale>  0 0.34744951E+04</rscale>
<asrwt>0</asrwt>
<pdfrwt beam="1">  1        2 0.44055839E+00 0.34744951E+04</pdfrwt>
<pdfrwt beam="2">  1       -2 0.16214114E+00 0.34744951E+04</pdfrwt>
<totfact> 0.42282871E-01</totfact>
</mgrwt>
</event>
<event>
 6    1  0.1780144E-005  0.2920069E+04  0.7818608E-02  0.8266931E-01
          2   -1    0    0  501    0  0.00000000000E+00  0.00000000000E+00  0.16352400601E+04  0.16352400601E+04  0.00000000000E+00 0. -1.
         -2   -1    0    0    0  501 -0.00000000000E+00 -0.00000000000E+00 -0.13036008698E+04  0.13036008698E+04  0.00000000000E+00 0.  1.
         23    2    1    2    0    0  0.14861240632E+03 -0.14441754225E+04  0.25022181605E+02  0.14550140234E+04  0.93334883310E+02 0.  0.
         11    1    3    3    0    0  0.13520547275E+03 -0.94172704336E+03 -0.64095549055E+01  0.95140497500E+03  0.00000000000E+00 0. -1.
        -11    1    3    3    0    0  0.13406933566E+02 -0.50244837916E+03  0.31431736511E+02  0.50360904841E+03  0.00000000000E+00 0.  1.
         22    1    1    2    0    0 -0.14861240632E+03  0.14441754225E+04  0.30661700878E+03  0.14838269065E+04  0.00000000000E+00 0. -1.
<mgrwt>
<rscale>  0 0.29200687E+04</rscale>
<asrwt>0</asrwt>
<pdfrwt beam="1">  1        2 0.25157539E+00 0.29200687E+04</pdfrwt>
<pdfrwt beam="2">  1       -2 0.20055398E+00 0.29200687E+04</pdfrwt>
<totfact> 0.12112470E+00</totfact>
</mgrwt>
</event>
<event>
 6    1  0.1780144E-005  0.3247139E+04  0.7818608E-02  0.8176478E-01
         -2   -1    0    0    0  501 -0.00000000000E+00  0.00000000000E+00  0.12001050978E+04  0.12001050978E+04  0.00000000000E+00 0.  1.
          2   -1    0    0  501    0  0.00000000000E+00 -0.00000000000E+00 -0.21964563591E+04  0.21964563591E+04  0.00000000000E+00 0. -1.
         23    2    1    2    0    0 -0.15516637020E+04  0.41842141802E+03 -0.26712624049E+03  0.16317651916E+04  0.92544502417E+02 0.  0.
         11    1    3    3    0    0 -0.99838715546E+03  0.30391493473E+03 -0.20244446064E+03  0.10630733556E+04  0.00000000000E+00 0.  1.
        -11    1    3    3    0    0 -0.55327654653E+03  0.11450648329E+03 -0.64681779857E+02  0.56869183597E+03  0.00000000000E+00 0. -1.
         22    1    1    2    0    0  0.15516637020E+04 -0.41842141802E+03 -0.72922502076E+03  0.17647962653E+04  0.00000000000E+00 0. -1.
<mgrwt>
<rscale>  0 0.32471393E+04</rscale>
<asrwt>0</asrwt>
<pdfrwt beam="1">  1        2 0.33791636E+00 0.32471393E+04</pdfrwt>
<pdfrwt beam="2">  1       -2 0.18463155E+00 0.32471393E+04</pdfrwt>
<totfact> 0.73331644E-01</totfact>
</mgrwt>
</event>
<event>
 6    1  0.1780144E-005  0.4664068E+04  0.7818608E-02  0.7882527E-01
         -1   -1    0    0    0  501 -0.00000000000E+00  0.00000000000E+00  0.19519603488E+04  0.19519603488E+04  0.00000000000E+00 0.  1.
          1   -1    0    0  501    0  0.00000000000E+00 -0.00000000000E+00 -0.27861127656E+04  0.27861127656E+04  0.00000000000E+00 0. -1.
         23    2    1    2    0    0 -0.36405225591E+03 -0.26203791513E+03 -0.27410115722E+04  0.27791678711E+04  0.97116956675E+02 0.  0.
         11    1    3    3    0    0 -0.25224990043E+03 -0.13657471656E+03 -0.15443393596E+04  0.15707535526E+04  0.00000000000E+00 0. -1.
        -11    1    3    3    0    0 -0.11180235548E+03 -0.12546319857E+03 -0.11966722125E+04  0.12084143185E+04  0.00000000000E+00 0.  1.
         22    1    1    2    0    0  0.36405225591E+03  0.26203791513E+03  0.19068591553E+04  0.19589052433E+04  0.00000000000E+00 0.  1.
<mgrwt>
<rscale>  0 0.46640676E+04</rscale>
<asrwt>0</asrwt>
<pdfrwt beam="1">  1        1 0.42863273E+00 0.46640676E+04</pdfrwt>
<pdfrwt beam="2">  1       -1 0.30030159E+00 0.46640676E+04</pdfrwt>
<totfact> 0.20785322E-02</totfact>
</mgrwt>
</event>
<event>
 6    1  0.1780144E-005  0.3695391E+04  0.7818608E-02  0.8068984E-01
         -2   -1    0    0    0  501 -0.00000000000E+00  0.00000000000E+00  0.20707956897E+04  0.20707956897E+04  0.00000000000E+00 0.  1.
          2   -1    0    0  501    0  0.00000000000E+00 -0.00000000000E+00 -0.16486310455E+04  0.16486310455E+04  0.00000000000E+00 0. -1.
         23    2    1    2    0    0  0.12393857928E+04 -0.13410753603E+04 -0.65010983661E+02  0.18294795514E+04  0.90602072151E+02 0.  0.
         11    1    3    3    0    0  0.65721205373E+03 -0.75594894489E+03 -0.23303204140E+01  0.10016945249E+04  0.00000000000E+00 0.  1.
        -11    1    3    3    0    0  0.58217373911E+03 -0.58512641536E+03 -0.62680663247E+02  0.82778502644E+03  0.00000000000E+00 0. -1.
         22    1    1    2    0    0 -0.12393857928E+04  0.13410753603E+04  0.48717562783E+03  0.18899471838E+04  0.00000000000E+00 0.  1.
<mgrwt>
<rscale>  0 0.36953907E+04</rscale>
<asrwt>0</asrwt>
<pdfrwt beam="1">  1        2 0.25363555E+00 0.36953907E+04</pdfrwt>
<pdfrwt beam="2">  1       -2 0.31858395E+00 0.36953907E+04</pdfrwt>
<totfact> 0.20693433E-01</totfact>
</mgrwt>
</event>
<event>
 6    1  0.1780144E-005  0.2522335E+04  0.7818608E-02  0.8395071E-01
          2   -1    0    0  501    0  0.00000000000E+00  0.00000000000E+00  0.20912729523E+04  0.20912729523E+04  0.00000000000E+00 0. -1.
         -2   -1    0    0    0  501 -0.00000000000E+00 -0.00000000000E+00 -0.76056251059E+03  0.76056251059E+03  0.00000000000E+00 0.  1.
         23    2    1    2    0    0  0.73963596784E+03 -0.98683187600E+03  0.37642214981E+03  0.12924879518E+04  0.89067132851E+02 0.  0.
         11    1    3    3    0    0  0.60703975107E+03 -0.81354965941E+03  0.27367424566E+03  0.10513124657E+04  0.00000000000E+00 0. -1.
        -11    1    3    3    0    0  0.13259621677E+03 -0.17328221659E+03  0.10274790416E+03  0.24117548610E+03  0.00000000000E+00 0.  1.
         22    1    1    2    0    0 -0.73963596784E+03  0.98683187600E+03  0.95428829186E+03  0.15593475111E+04  0.00000000000E+00 0. -1.
<mgrwt>
<rscale>  0 0.25223353E+04</rscale>
<asrwt>0</asrwt>
<pdfrwt beam="1">  1        2 0.32173430E+00 0.25223353E+04</pdfrwt>
<pdfrwt beam="2">  1       -2 0.11700962E+00 0.25223353E+04</pdfrwt>
<totfact> 0.29896004E+00</totfact>
</mgrwt>
</event>
<event>
 6    1  0.1780144E-005  0.3159542E+04  0.7818608E-02  0.8199584E-01
          2   -1    0    0  501    0  0.00000000000E+00  0.00000000000E+00  0.12935416362E+04  0.12935416362E+04  0.00000000000E+00 0. -1.
         -2   -1    0    0    0  501 -0.00000000000E+00 -0.00000000000E+00 -0.19293360703E+04  0.19293360703E+04  0.00000000000E+00 0.  1.
         23    2    1    2    0    0 -0.82769351774E+03 -0.23273945247E+03  0.10317793132E+04  0.13466990330E+04  0.98921799455E+02 0.  0.
         13    1    3    3    0    0 -0.13864324780E+03 -0.77228461883E+02  0.17406996299E+03  0.23555580549E+03  0.00000000000E+00 0. -1.
        -13    1    3    3    0    0 -0.68905026994E+03 -0.15551099059E+03  0.85770935017E+03  0.11111432275E+04  0.00000000000E+00 0.  1.
         22    1    1    2    0    0  0.82769351774E+03  0.23273945247E+03 -0.16675737473E+04  0.18761786735E+04  0.00000000000E+00 0.  1.
<mgrwt>
<rscale>  0 0.31595421E+04</rscale>
<asrwt>0</asrwt>
<pdfrwt beam="1">  1        2 0.19900640E+00 0.31595421E+04</pdfrwt>
<pdfrwt beam="2">  1       -2 0.29682094E+00 0.31595421E+04</pdfrwt>
<totfact> 0.46826675E-01</totfact>
</mgrwt>
</event>
<event>
 6    1  0.1933278E-005  0.4968223E+04  0.7818608E-02  0.7833428E-01
         -2   -1    0    0    0  501 -0.00000000000E+00  0.00000000000E+00  0.53647119250E+04  0.53647119250E+04  0.00000000000E+00 0.  1.
          2   -1    0    0  501    0  0.00000000000E+00 -0.00000000000E+00 -0.11502591569E+04  0.11502591569E+04  0.00000000000E+00 0. -1.
         23    2    1    2    0    0  0.10106260611E+04  0.20591346980E+04  0.86032634561E+03  0.24515286008E+04  0.91816771998E+02 0.  0.
         13    1    3    3    0    0  0.54152699065E+03  0.11441003548E+04  0.51947601861E+03  0.13682369814E+04  0.00000000000E+00 0. -1.
        -13    1    3    3    0    0  0.46909907044E+03  0.91503434319E+03  0.34085032700E+03  0.10832916193E+04  0.00000000000E+00 0.  1.
         22    1    1    2    0    0 -0.10106260611E+04 -0.20591346980E+04  0.33541264225E+04  0.40634424812E+04  0.00000000000E+00 0.  1.
<mgrwt>
<rscale>  0 0.49682226E+04</rscale>
<asrwt>0</asrwt>
<pdfrwt beam="1">  1        2 0.17696295E+00 0.49682226E+04</pdfrwt>
<pdfrwt beam="2">  1       -2 0.82534028E+00 0.49682226E+04</pdfrwt>
<totfact> 0.77324985E-04</totfact>
</mgrwt>
</event>
<event>
 6    1  0.1780144E-005  0.2501901E+04  0.7818608E-02  0.8402308E-01
         -1   -1    0    0    0  501 -0.00000000000E+00  0.00000000000E+00  0.17400596686E+04  0.17400596686E+04  0.00000000000E+00 0.  1.
          1   -1    0    0  501    0  0.00000000000E+00 -0.00000000000E+00 -0.89932409510E+03  0.89932409510E+03  0.00000000000E+00 0. -1.
         23    2    1    2    0    0 -0.95158633046E+03  0.24554863916E+03 -0.39282021697E+03  0.10622120651E+04  0.90421623221E+02 0.  0.
         13    1    3    3    0    0 -0.42723573371E+03  0.14066208804E+03 -0.21622484603E+03  0.49906851154E+03  0.00000000000E+00 0.  1.
        -13    1    3    3    0    0 -0.52435059675E+03  0.10488655113E+03 -0.17659537094E+03  0.56314355360E+03  0.00000000000E+00 0. -1.
         22    1    1    2    0    0  0.95158633046E+03 -0.24554863916E+03  0.12335557904E+04  0.15771716985E+04  0.00000000000E+00 0.  1.
<mgrwt>
<rscale>  0 0.25019013E+04</rscale>
<asrwt>0</asrwt>
<pdfrwt beam="1">  1        1 0.13835755E+00 0.25019013E+04</pdfrwt>
<pdfrwt beam="2">  1       -1 0.26770149E+00 0.25019013E+04</pdfrwt>
<totfact> 0.86540573E-01</totfact>
</mgrwt>
</event>
<event>
 6    1  0.1780144E-005  0.2201564E+04  0.7818608E-02  0.8517777E-01
          2   -1    0    0  501    0  0.00000000000E+00  0.00000000000E+00  0.13184257395E+04  0.13184257395E+04  0.00000000000E+00 0. -1.
         -2   -1    0    0    0  501 -0.00000000000E+00 -0.00000000000E+00 -0.91906697762E+03  0.91906697762E+03  0.00000000000E+00 0.  1.
         23    2    1    2    0    0  0.62349250286E+03 -0.73943000403E+03 -0.32984514338E+03  0.10261967304E+04  0.93713813892E+02 0.  0.
         13    1    3    3    0    0  0.33458604872E+03 -0.42368253546E+03 -0.22945598051E+03  0.58660443387E+03  0.00000000000E+00 0.  1.
        -13    1    3    3    0    0  0.28890645413E+03 -0.31574746857E+03 -0.10038916287E+03  0.43959229653E+03  0.00000000000E+00 0. -1.
         22    1    1    2    0    0 -0.62349250286E+03  0.73943000403E+03  0.72920390526E+03  0.12112959867E+04  0.00000000000E+00 0. -1.
<mgrwt>
<rscale>  0 0.22015645E+04</rscale>
<asrwt>0</asrwt>
<pdfrwt beam="1">  1        2 0.20283473E+00 0.22015645E+04</pdfrwt>
<pdfrwt beam="2">  1       -2 0.14139492E+00 0.22015645E+04</pdfrwt>
<totfact> 0.51596884E+00</totfact>
</mgrwt>
</event>
<event>
 6    1  0.1780144E-005  0.1624958E+04  0.7818608E-02  0.8805360E-01
         -4   -1    0    0    0  501 -0.00000000000E+00  0.00000000000E+00  0.59583212847E+03  0.59583212847E+03  0.00000000000E+00 0.  1.
          4   -1    0    0  501    0  0.00000000000E+00 -0.00000000000E+00 -0.11078999022E+04  0.11078999022E+04  0.00000000000E+00 0. -1.
         23    2    1    2    0    0  0.67457790312E+03  0.26520409886E+03  0.12209347259E+03  0.74063855247E+03  0.90829994640E+02 0.  0.
         11    1    3    3    0    0  0.39164488769E+03  0.14725065479E+03  0.25267346518E+02  0.41917408339E+03  0.00000000000E+00 0.  1.
        -11    1    3    3    0    0  0.28293301543E+03  0.11795344407E+03  0.96826126069E+02  0.32146446908E+03  0.00000000000E+00 0. -1.
         22    1    1    2    0    0 -0.67457790312E+03 -0.26520409886E+03 -0.63416124630E+03  0.96309347819E+03  0.00000000000E+00 0. -1.
<mgrwt>
<rscale>  0 0.16249583E+04</rscale>
<asrwt>0</asrwt>
<pdfrwt beam="1">  1        4 0.17044614E+00 0.16249583E+04</pdfrwt>
<pdfrwt beam="2">  1       -4 0.91666483E-01 0.16249583E+04</pdfrwt>
<totfact> 0.40754204E-01</totfact>
</mgrwt>
</event>
<event>
 6    1  0.1780144E-005  0.7997353E+03  0.7818608E-02  0.9560400E-01
          1   -1    0    0  501    0  0.00000000000E+00  0.00000000000E+00  0.20600500193E+03  0.20600500193E+03  0.00000000000E+00 0. -1.
         -1   -1    0    0    0  501 -0.00000000000E+00 -0.00000000000E+00 -0.77616626846E+03  0.77616626846E+03  0.00000000000E+00 0.  1.
         23    2    1    2    0    0  0.43136384678E+02 -0.19497803108E+03  0.12917594872E+03  0.25488197380E+03  0.91658139610E+02 0.  0.
         11    1    3    3    0    0  0.42877842014E+02 -0.25570483430E+02  0.23140982974E+02  0.55026030673E+02  0.00000000000E+00 0. -1.
        -11    1    3    3    0    0  0.25854266438E+00 -0.16940754765E+03  0.10603496575E+03  0.19985594313E+03  0.00000000000E+00 0.  1.
         22    1    1    2    0    0 -0.43136384678E+02  0.19497803108E+03 -0.69933721525E+03  0.72728929658E+03  0.00000000000E+00 0.  1.
<mgrwt>
<rscale>  0 0.79973529E+03</rscale>
<asrwt>0</asrwt>
<pdfrwt beam="1">  1        1 0.31693077E-01 0.79973529E+03</pdfrwt>
<pdfrwt beam="2">  1       -1 0.11941020E+00 0.79973529E+03</pdfrwt>
<totfact> 0.90862531E+01</totfact>
</mgrwt>
</event>
<event>
 6    1  0.1780144E-005  0.2475797E+04  0.7818608E-02  0.8411659E-01
          2   -1    0    0  501    0  0.00000000000E+00  0.00000000000E+00  0.85779829100E+03  0.85779829100E+03  0.00000000000E+00 0. -1.
         -2   -1    0    0    0  501 -0.00000000000E+00 -0.00000000000E+00 -0.17864259392E+04  0.17864259392E+04  0.00000000000E+00 0.  1.
         23    2    1    2    0    0  0.57644431413E+02  0.71407957722E+03  0.61122231257E+03  0.94588079473E+03  0.88686184847E+02 0.  0.
         11    1    3    3    0    0  0.22712819008E+02  0.65245253926E+02  0.86433142216E+02  0.11065036548E+03  0.00000000000E+00 0.  1.
        -11    1    3    3    0    0  0.34931612404E+02  0.64883432329E+03  0.52478917036E+03  0.83523042925E+03  0.00000000000E+00 0. -1.
         22    1    1    2    0    0 -0.57644431413E+02 -0.71407957722E+03 -0.15398499607E+04  0.16983434354E+04  0.00000000000E+00 0.  1.
<mgrwt>
<rscale>  0 0.24757973E+04</rscale>
<asrwt>0</asrwt>
<pdfrwt beam="1">  1        2 0.13196897E+00 0.24757973E+04</pdfrwt>
<pdfrwt beam="2">  1       -2 0.27483476E+00 0.24757973E+04</pdfrwt>
<totfact> 0.12683759E+00</totfact>
</mgrwt>
</event>
<event>
 6    1  0.1780144E-005  0.3439832E+04  0.7818608E-02  0.8128199E-01
         -2   -1    0    0    0  501 -0.00000000000E+00  0.00000000000E+00  0.10567851444E+04  0.10567851444E+04  0.00000000000E+00 0.  1.
          2   -1    0    0  501    0  0.00000000000E+00 -0.00000000000E+00 -0.27991599036E+04  0.27991599036E+04  0.00000000000E+00 0. -1.
         23    2    1    2    0    0 -0.92865313286E+03 -0.13936522312E+04 -0.43837489910E+03  0.17334279532E+04  0.89088349943E+02 0.  0.
         13    1    3    3    0    0 -0.26674734469E+03 -0.33051337682E+03 -0.11227814896E+03  0.43931722125E+03  0.00000000000E+00 0.  1.
        -13    1    3    3    0    0 -0.66190578817E+03 -0.10631388543E+04 -0.32609675015E+03  0.12941107319E+04  0.00000000000E+00 0. -1.
         22    1    1    2    0    0  0.92865313286E+03  0.13936522312E+04 -0.13039998602E+04  0.21225170948E+04  0.00000000000E+00 0.  1.
<mgrwt>
<rscale>  0 0.34398317E+04</rscale>
<asrwt>0</asrwt>
<pdfrwt beam="1">  1        2 0.43063997E+00 0.34398317E+04</pdfrwt>
<pdfrwt beam="2">  1       -2 0.16258233E+00 0.34398317E+04</pdfrwt>
<totfact> 0.46072115E-01</totfact>
</mgrwt>
</event>
<event>
 6    1  0.1780144E-005  0.1369720E+04  0.7818608E-02  0.8976033E-01
          3   -1    0    0  501    0  0.00000000000E+00  0.00000000000E+00  0.21744207660E+03  0.21744207660E+03  0.00000000000E+00 0. -1.
         -3   -1    0    0    0  501 -0.00000000000E+00 -0.00000000000E+00 -0.21570505945E+04  0.21570505945E+04  0.00000000000E+00 0.  1.
         23    2    1    2    0    0  0.30689599496E+03  0.55051338816E+03 -0.14233777255E+04  0.15597875874E+04  0.98402369478E+02 0.  0.
         13    1    3    3    0    0  0.11791237457E+03  0.18365035589E+03 -0.60680577167E+03  0.64485969468E+03  0.00000000000E+00 0. -1.
        -13    1    3    3    0    0  0.18898362039E+03  0.36686303227E+03 -0.81657195380E+03  0.91492789276E+03  0.00000000000E+00 0.  1.
         22    1    1    2    0    0 -0.30689599496E+03 -0.55051338816E+03 -0.51623079243E+03  0.81470508365E+03  0.00000000000E+00 0. -1.
<mgrwt>
<rscale>  0 0.13697205E+04</rscale>
<asrwt>0</asrwt>
<pdfrwt beam="1">  1        3 0.33452627E-01 0.13697205E+04</pdfrwt>
<pdfrwt beam="2">  1       -3 0.33185393E+00 0.13697205E+04</pdfrwt>
<totfact> 0.57336530E-01</totfact>
</mgrwt>
</event>
<event>
 6    1  0.1780144E-005  0.3471701E+04  0.7818608E-02  0.8120529E-01
         -1   -1    0    0    0  501 -0.00000000000E+00  0.00000000000E+00  0.13910361410E+04  0.13910361410E+04  0.00000000000E+00 0.  1.
          1   -1    0    0  501    0  0.00000000000E+00 -0.00000000000E+00 -0.21661383464E+04  0.21661383464E+04  0.00000000000E+00 0. -1.
         23    2    1    2    0    0 -0.11912618637E+02  0.97777142670E+03 -0.18561593485E+04  0.20994833610E+04  0.79523470807E+02 0.  0.
         13    1    3    3    0    0  0.26879511863E+02  0.50827006540E+03 -0.91674655079E+03  0.10485634010E+04  0.00000000000E+00 0. -1.
        -13    1    3    3    0    0 -0.38792130500E+02  0.46950136130E+03 -0.93941279775E+03  0.10509199599E+04  0.00000000000E+00 0.  1.
         22    1    1    2    0    0  0.11912618637E+02 -0.97777142670E+03  0.10810571432E+04  0.14576911264E+04  0.00000000000E+00 0.  1.
<mgrwt>
<rscale>  0 0.34717009E+04</rscale>
<asrwt>0</asrwt>
<pdfrwt beam="1">  1        1 0.33325205E+00 0.34717009E+04</pdfrwt>
<pdfrwt beam="2">  1       -1 0.21400556E+00 0.34717009E+04</pdfrwt>
<totfact> 0.22691187E-01</totfact>
</mgrwt>
</event>
<event>
 6    1  0.1780144E-005  0.8211852E+03  0.7818608E-02  0.9529849E-01
          2   -1    0    0  501    0  0.00000000000E+00  0.00000000000E+00  0.60570261423E+03  0.60570261423E+03  0.00000000000E+00 0. -1.
         -2   -1    0    0    0  501 -0.00000000000E+00 -0.00000000000E+00 -0.27833175448E+03  0.27833175448E+03  0.00000000000E+00 0.  1.
         23    2    1    2    0    0 -0.23242523808E+03 -0.27282411892E+03  0.36981949186E+03  0.52312388461E+03  0.91856686911E+02 0.  0.
         11    1    3    3    0    0 -0.19140699070E+03 -0.16188357650E+03  0.26905594131E+03  0.36774179526E+03  0.00000000000E+00 0. -1.
        -11    1    3    3    0    0 -0.41018247383E+02 -0.11094054242E+03  0.10076355055E+03  0.15538208935E+03  0.00000000000E+00 0.  1.
         22    1    1    2    0    0  0.23242523808E+03  0.27282411892E+03 -0.42448632108E+02  0.36091048410E+03  0.00000000000E+00 0.  1.
<mgrwt>
<rscale>  0 0.82118517E+03</rscale>
<asrwt>0</asrwt>
<pdfrwt beam="1">  1        2 0.93185017E-01 0.82118517E+03</pdfrwt>
<pdfrwt beam="2">  1       -2 0.42820270E-01 0.82118517E+03</pdfrwt>
<totfact> 0.25494249E+02</totfact>
</mgrwt>
</event>
<event>
 6    1  0.1780144E-005  0.2737609E+04  0.7818608E-02  0.8322904E-01
         -1   -1    0    0    0  501 -0.00000000000E+00  0.00000000000E+00  0.95918204478E+03  0.95918204478E+03  0.00000000000E+00 0.  1.
          1   -1    0    0  501    0  0.00000000000E+00 -0.00000000000E+00 -0.19533584190E+04  0.19533584190E+04  0.00000000000E+00 0. -1.
         23    2    1    2    0    0  0.97548734749E+03 -0.36468833058E+03 -0.14396993221E+04  0.17798163841E+04  0.10217181367E+03 0.  0.
         11    1    3    3    0    0  0.28028061190E+03 -0.15155418071E+03 -0.41006689054E+03  0.51930794893E+03  0.00000000000E+00 0. -1.
        -11    1    3    3    0    0  0.69520673558E+03 -0.21313414987E+03 -0.10296324316E+04  0.12605084352E+04  0.00000000000E+00 0.  1.
         22    1    1    2    0    0 -0.97548734749E+03  0.36468833058E+03  0.44552294789E+03  0.11327240797E+04  0.00000000000E+00 0.  1.
<mgrwt>
<rscale>  0 0.27376094E+04</rscale>
<asrwt>0</asrwt>
<pdfrwt beam="1">  1        1 0.30051667E+00 0.27376094E+04</pdfrwt>
<pdfrwt beam="2">  1       -1 0.14756647E+00 0.27376094E+04</pdfrwt>
<totfact> 0.10170484E+00</totfact>
</mgrwt>
</event>
<event>
 6    1  0.1780144E-005  0.1247398E+04  0.7818608E-02  0.9072352E-01
         -1   -1    0    0    0  501 -0.00000000000E+00  0.00000000000E+00  0.41018804547E+03  0.41018804547E+03  0.00000000000E+00 0.  1.
          1   -1    0    0  501    0  0.00000000000E+00 -0.00000000000E+00 -0.94834600191E+03  0.94834600191E+03  0.00000000000E+00 0. -1.
         23    2    1    2    0    0 -0.26711278355E+02  0.49182922160E+03 -0.68103878395E+03  0.84567499610E+03  0.93503466093E+02 0.  0.
         11    1    3    3    0    0 -0.41128361818E+02  0.47790792830E+03 -0.63805992269E+03  0.79825308958E+03  0.00000000000E+00 0.  1.
        -11    1    3    3    0    0  0.14417083462E+02  0.13921293296E+02 -0.42978861261E+02  0.47421906518E+02  0.00000000000E+00 0. -1.
         22    1    1    2    0    0  0.26711278355E+02 -0.49182922160E+03  0.14288082751E+03  0.51285905128E+03  0.00000000000E+00 0.  1.
<mgrwt>
<rscale>  0 0.12473976E+04</rscale>
<asrwt>0</asrwt>
<pdfrwt beam="1">  1        1 0.14589938E+00 0.12473976E+04</pdfrwt>
<pdfrwt beam="2">  1       -1 0.63105853E-01 0.12473976E+04</pdfrwt>
<totfact> 0.41768506E+01</totfact>
</mgrwt>
</event>
<event>
 6    1  0.1780144E-005  0.1562092E+04  0.7818608E-02  0.8844181E-01
          2   -1    0    0  501    0  0.00000000000E+00  0.00000000000E+00  0.14627584847E+04  0.14627584847E+04  0.00000000000E+00 0.  1.
         -2   -1    0    0    0  501 -0.00000000000E+00 -0.00000000000E+00 -0.41704300427E+03  0.41704300427E+03  0.00000000000E+00 0. -1.
         23    2    1    2    0    0 -0.49490614442E+03 -0.43262425603E+03  0.10264696751E+04  0.12221798350E+04  0.89374026051E+02 0.  0.
         13    1    3    3    0    0 -0.26409413313E+03 -0.18553083889E+03  0.55449846731E+03  0.64158861709E+03  0.00000000000E+00 0.  1.
        -13    1    3    3    0    0 -0.23081201129E+03 -0.24709341714E+03  0.47197120781E+03  0.58059121794E+03  0.00000000000E+00 0. -1.
         22    1    1    2    0    0  0.49490614442E+03  0.43262425603E+03  0.19245805312E+02  0.65762165393E+03  0.00000000000E+00 0. -1.
<mgrwt>
<rscale>  0 0.15620924E+04</rscale>
<asrwt>0</asrwt>
<pdfrwt beam="1">  1        2 0.22503976E+00 0.15620924E+04</pdfrwt>
<pdfrwt beam="2">  1       -2 0.64160463E-01 0.15620924E+04</pdfrwt>
<totfact> 0.28767948E+01</totfact>
</mgrwt>
</event>
<event>
 6    1  0.1780144E-005  0.1158418E+04  0.7818608E-02  0.9150053E-01
         -2   -1    0    0    0  501 -0.00000000000E+00  0.00000000000E+00  0.10883633211E+03  0.10883633211E+03  0.00000000000E+00 0. -1.
          2   -1    0    0  501    0  0.00000000000E+00 -0.00000000000E+00 -0.30824535449E+04  0.30824535449E+04  0.00000000000E+00 0.  1.
         23    2    1    2    0    0  0.25907447056E+03  0.37427933072E+03 -0.52449564192E+03  0.70022563303E+03  0.89530218674E+02 0.  0.
         13    1    3    3    0    0  0.16441663669E+03  0.19974469114E+03 -0.35436966489E+03  0.43875805572E+03  0.00000000000E+00 0.  1.
        -13    1    3    3    0    0  0.94657833869E+02  0.17453463958E+03 -0.17012597703E+03  0.26146757731E+03  0.00000000000E+00 0. -1.
         22    1    1    2    0    0 -0.25907447056E+03 -0.37427933072E+03 -0.24491215708E+04  0.24910642439E+04  0.00000000000E+00 0.  1.
<mgrwt>
<rscale>  0 0.11584178E+04</rscale>
<asrwt>0</asrwt>
<pdfrwt beam="1">  1        2 0.47422363E+00 0.11584178E+04</pdfrwt>
<pdfrwt beam="2">  1       -2 0.16744051E-01 0.11584178E+04</pdfrwt>
<totfact> 0.45273100E+01</totfact>
</mgrwt>
</event>
<event>
 6    1  0.1780144E-005  0.1701555E+04  0.7818608E-02  0.8760478E-01
          1   -1    0    0  501    0  0.00000000000E+00  0.00000000000E+00  0.21980164327E+04  0.21980164327E+04  0.00000000000E+00 0. -1.
         -1   -1    0    0    0  501 -0.00000000000E+00 -0.00000000000E+00 -0.32930696076E+03  0.32930696076E+03  0.00000000000E+00 0.  1.
         23    2    1    2    0    0 -0.19550548481E+03  0.76256588731E+03  0.46891735949E+03  0.92135107578E+03  0.96307776046E+02 0.  0.
         11    1    3    3    0    0 -0.87005960888E+02  0.34087656584E+03  0.26554931586E+03  0.44077580415E+03  0.00000000000E+00 0.  1.
        -11    1    3    3    0    0 -0.10849952392E+03  0.42168932147E+03  0.20336804364E+03  0.48057527163E+03  0.00000000000E+00 0. -1.
         22    1    1    2    0    0  0.19550548481E+03 -0.76256588731E+03  0.13997921125E+04  0.16059723177E+04  0.00000000000E+00 0. -1.
<mgrwt>
<rscale>  0 0.17015547E+04</rscale>
<asrwt>0</asrwt>
<pdfrwt beam="1">  1        1 0.33815637E+00 0.17015547E+04</pdfrwt>
<pdfrwt beam="2">  1       -1 0.50662611E-01 0.17015547E+04</pdfrwt>
<totfact> 0.81441735E+00</totfact>
</mgrwt>
</event>
<event>
 6    1  0.1780144E-005  0.4848725E+04  0.7818608E-02  0.7852276E-01
         -2   -1    0    0    0  501 -0.00000000000E+00  0.00000000000E+00  0.17133588932E+04  0.17133588932E+04  0.00000000000E+00 0.  1.
          2   -1    0    0  501    0  0.00000000000E+00 -0.00000000000E+00 -0.34304159604E+04  0.34304159604E+04  0.00000000000E+00 0. -1.
         23    2    1    2    0    0 -0.13333606691E+04  0.10734559286E+04  0.96116210953E+03  0.19652506263E+04  0.90659356468E+02 0.  0.
         11    1    3    3    0    0 -0.47007014704E+03  0.41544882379E+03  0.31462129434E+03  0.70181922685E+03  0.00000000000E+00 0. -1.
        -11    1    3    3    0    0 -0.86329052211E+03  0.65800710478E+03  0.64654081519E+03  0.12634313995E+04  0.00000000000E+00 0.  1.
         22    1    1    2    0    0  0.13333606691E+04 -0.10734559286E+04 -0.26782191767E+04  0.31785242272E+04  0.00000000000E+00 0. -1.
<mgrwt>
<rscale>  0 0.48487251E+04</rscale>
<asrwt>0</asrwt>
<pdfrwt beam="1">  1        2 0.52775630E+00 0.48487251E+04</pdfrwt>
<pdfrwt beam="2">  1       -2 0.26359368E+00 0.48487251E+04</pdfrwt>
<totfact> 0.35450754E-02</totfact>
</mgrwt>
</event>
<event>
 6    1  0.1780144E-005  0.1369207E+04  0.7818608E-02  0.8976415E-01
         -1   -1    0    0    0  501 -0.00000000000E+00  0.00000000000E+00  0.39854097030E+03  0.39854097030E+03  0.00000000000E+00 0.  1.
          1   -1    0    0  501    0  0.00000000000E+00 -0.00000000000E+00 -0.11759941899E+04  0.11759941899E+04  0.00000000000E+00 0. -1.
         23    2    1    2    0    0 -0.40563309292E+03  0.64352018863E+02  0.23517146650E+03  0.48179175789E+03  0.90212476486E+02 0.  0.
         13    1    3    3    0    0 -0.21492377635E+03  0.34642349144E+02  0.17591710809E+03  0.27989131982E+03  0.00000000000E+00 0. -1.
        -13    1    3    3    0    0 -0.19070931657E+03  0.29709669719E+02  0.59254358414E+02  0.20190043807E+03  0.00000000000E+00 0.  1.
         22    1    1    2    0    0  0.40563309292E+03 -0.64352018863E+02 -0.10126246861E+04  0.10927434023E+04  0.00000000000E+00 0. -1.
<mgrwt>
<rscale>  0 0.13692069E+04</rscale>
<asrwt>0</asrwt>
<pdfrwt beam="1">  1        1 0.18092218E+00 0.13692069E+04</pdfrwt>
<pdfrwt beam="2">  1       -1 0.61313996E-01 0.13692069E+04</pdfrwt>
<totfact> 0.29343447E+01</totfact>
</mgrwt>
</event>
<event>
 6    1  0.1780144E-005  0.3029198E+04  0.7818608E-02  0.8235442E-01
         -2   -1    0    0    0  501 -0.00000000000E+00  0.00000000000E+00  0.27353693212E+04  0.27353693212E+04  0.00000000000E+00 0.  1.
          2   -1    0    0  501    0  0.00000000000E+00 -0.00000000000E+00 -0.83864752706E+03  0.83864752706E+03  0.00000000000E+00 0. -1.
         23    2    1    2    0    0 -0.13155750470E+04 -0.74750198557E+03  0.92655523287E+03  0.17765964525E+04  0.91068286032E+02 0.  0.
         11    1    3    3    0    0 -0.76048235355E+03 -0.47701198455E+03  0.52326756319E+03  0.10390778538E+04  0.00000000000E+00 0.  1.
        -11    1    3    3    0    0 -0.55509269341E+03 -0.27049000102E+03  0.40328766969E+03  0.73751859871E+03  0.00000000000E+00 0. -1.
         22    1    1    2    0    0  0.13155750470E+04  0.74750198557E+03  0.97016656125E+03  0.17974203958E+04  0.00000000000E+00 0. -1.
<mgrwt>
<rscale>  0 0.30291984E+04</rscale>
<asrwt>0</asrwt>
<pdfrwt beam="1">  1        2 0.12902270E+00 0.30291984E+04</pdfrwt>
<pdfrwt beam="2">  1       -2 0.42082605E+00 0.30291984E+04</pdfrwt>
<totfact> 0.14931957E-01</totfact>
</mgrwt>
</event>
<event>
 6    1  0.2231277E-005  0.2767567E+04  0.7818608E-02  0.8313409E-01
         -2   -1    0    0    0  501 -0.00000000000E+00  0.00000000000E+00  0.14004589630E+04  0.14004589630E+04  0.00000000000E+00 0. -1.
          2   -1    0    0  501    0  0.00000000000E+00 -0.00000000000E+00 -0.13673066536E+04  0.13673066536E+04  0.00000000000E+00 0.  1.
         23    2    1    2    0    0 -0.10263229870E+04 -0.68931737125E+03  0.63481578961E+03  0.13928124336E+04  0.91859003712E+02 0.  0.
         13    1    3    3    0    0 -0.67373990347E+03 -0.45781362899E+03  0.46638784058E+03  0.93863538941E+03  0.00000000000E+00 0.  1.
        -13    1    3    3    0    0 -0.35258308355E+03 -0.23150374227E+03  0.16842794903E+03  0.45417704423E+03  0.00000000000E+00 0. -1.
         22    1    1    2    0    0  0.10263229870E+04  0.68931737125E+03 -0.60166348019E+03  0.13749531830E+04  0.00000000000E+00 0.  1.
<mgrwt>
<rscale>  0 0.27675671E+04</rscale>
<asrwt>0</asrwt>
<pdfrwt beam="1">  1        2 0.21035487E+00 0.27675671E+04</pdfrwt>
<pdfrwt beam="2">  1       -2 0.21545523E+00 0.27675671E+04</pdfrwt>
<totfact> 0.13927624E+00</totfact>
</mgrwt>
</event>
<event>
 6    1  0.1780144E-005  0.8225365E+03  0.7818608E-02  0.9527957E-01
         -4   -1    0    0    0  501 -0.00000000000E+00  0.00000000000E+00  0.17320828924E+03  0.17320828924E+03  0.00000000000E+00 0.  1.
          4   -1    0    0  501    0  0.00000000000E+00 -0.00000000000E+00 -0.97652116067E+03  0.97652116067E+03  0.00000000000E+00 0. -1.
         23    2    1    2    0    0 -0.23692317189E+03 -0.59657542177E+02 -0.86035560498E+03  0.89884006159E+03  0.89499036700E+02 0.  0.
         13    1    3    3    0    0 -0.13104212470E+03 -0.10925352511E+02 -0.31826556827E+03  0.34436081908E+03  0.00000000000E+00 0.  1.
        -13    1    3    3    0    0 -0.10588104719E+03 -0.48732189667E+02 -0.54209003671E+03  0.55447924250E+03  0.00000000000E+00 0. -1.
         22    1    1    2    0    0  0.23692317189E+03  0.59657542177E+02  0.57042733556E+02  0.25088938832E+03  0.00000000000E+00 0.  1.
<mgrwt>
<rscale>  0 0.82253647E+03</rscale>
<asrwt>0</asrwt>
<pdfrwt beam="1">  1        4 0.15023402E+00 0.82253647E+03</pdfrwt>
<pdfrwt beam="2">  1       -4 0.26647429E-01 0.82253647E+03</pdfrwt>
<totfact> 0.79908540E+00</totfact>
</mgrwt>
</event>
<event>
 6    1  0.1780144E-005  0.1168427E+04  0.7818608E-02  0.9140950E-01
          1   -1    0    0  501    0  0.00000000000E+00  0.00000000000E+00  0.34588336926E+03  0.34588336926E+03  0.00000000000E+00 0. -1.
         -1   -1    0    0    0  501 -0.00000000000E+00 -0.00000000000E+00 -0.98676527200E+03  0.98676527200E+03  0.00000000000E+00 0.  1.
         23    2    1    2    0    0 -0.15466619027E+03 -0.50094506288E+03 -0.60691729489E+03  0.80727146149E+03  0.92038161957E+02 0.  0.
         11    1    3    3    0    0 -0.75203090785E+02 -0.24502239849E+03 -0.36667684903E+03  0.44737388418E+03  0.00000000000E+00 0. -1.
        -11    1    3    3    0    0 -0.79463099484E+02 -0.25592266439E+03 -0.24024044586E+03  0.35989757731E+03  0.00000000000E+00 0.  1.
         22    1    1    2    0    0  0.15466619027E+03  0.50094506288E+03 -0.33964607852E+02  0.52537717977E+03  0.00000000000E+00 0. -1.
<mgrwt>
<rscale>  0 0.11684275E+04</rscale>
<asrwt>0</asrwt>
<pdfrwt beam="1">  1        1 0.53212827E-01 0.11684275E+04</pdfrwt>
<pdfrwt beam="2">  1       -1 0.15181004E+00 0.11684275E+04</pdfrwt>
<totfact> 0.24372664E+01</totfact>
</mgrwt>
</event>
<event>
 6    1  0.1780144E-005  0.1722029E+04  0.7818608E-02  0.8748899E-01
          2   -1    0    0  501    0  0.00000000000E+00  0.00000000000E+00  0.29413749865E+04  0.29413749865E+04  0.00000000000E+00 0. -1.
         -2   -1    0    0    0  501 -0.00000000000E+00 -0.00000000000E+00 -0.25204061239E+03  0.25204061239E+03  0.00000000000E+00 0.  1.
         23    2    1    2    0    0  0.52855940973E+03  0.31037017906E+03  0.23103712602E+03  0.65985485211E+03  0.79533480925E+02 0.  0.
         11    1    3    3    0    0  0.32470711487E+03  0.19244586578E+03  0.10054127563E+03  0.39061319718E+03  0.00000000000E+00 0. -1.
        -11    1    3    3    0    0  0.20385229486E+03  0.11792431328E+03  0.13049585039E+03  0.26924165493E+03  0.00000000000E+00 0.  1.
         22    1    1    2    0    0 -0.52855940973E+03 -0.31037017906E+03  0.24582972481E+04  0.25335607468E+04  0.00000000000E+00 0. -1.
<mgrwt>
<rscale>  0 0.17220290E+04</rscale>
<asrwt>0</asrwt>
<pdfrwt beam="1">  1        2 0.45251920E+00 0.17220290E+04</pdfrwt>
<pdfrwt beam="2">  1       -2 0.38775481E-01 0.17220290E+04</pdfrwt>
<totfact> 0.11355478E+01</totfact>
</mgrwt>
</event>
<event>
 6    1  0.1780144E-005  0.4549932E+03  0.7818608E-02  0.1026243E+00
         -2   -1    0    0    0  501 -0.00000000000E+00  0.00000000000E+00  0.78838084018E+02  0.78838084018E+02  0.00000000000E+00 0.  1.
          2   -1    0    0  501    0  0.00000000000E+00 -0.00000000000E+00 -0.65646829526E+03  0.65646829526E+03  0.00000000000E+00 0. -1.
         23    2    1    2    0    0  0.21202691352E+03 -0.47101829786E+02 -0.26220602474E+03  0.35233586885E+03  0.90634268590E+02 0.  0.
         13    1    3    3    0    0  0.15574143200E+03 -0.10673060452E+02 -0.22995586025E+03  0.27793705317E+03  0.00000000000E+00 0. -1.
        -13    1    3    3    0    0  0.56285481520E+02 -0.36428769334E+02 -0.32250164488E+02  0.74398815681E+02  0.00000000000E+00 0.  1.
         22    1    1    2    0    0 -0.21202691352E+03  0.47101829786E+02 -0.31542418649E+03  0.38297051042E+03  0.00000000000E+00 0.  1.
<mgrwt>
<rscale>  0 0.45499320E+03</rscale>
<asrwt>0</asrwt>
<pdfrwt beam="1">  1        2 0.10099513E+00 0.45499320E+03</pdfrwt>
<pdfrwt beam="2">  1       -2 0.12128935E-01 0.45499320E+03</pdfrwt>
<totfact> 0.22140422E+03</totfact>
</mgrwt>
</event>
<event>
 6    1  0.1780144E-005  0.1209605E+04  0.7818608E-02  0.9104491E-01
         -2   -1    0    0    0  501 -0.00000000000E+00  0.00000000000E+00  0.18406107690E+03  0.18406107690E+03  0.00000000000E+00 0.  1.
          2   -1    0    0  501    0  0.00000000000E+00 -0.00000000000E+00 -0.19873078924E+04  0.19873078924E+04  0.00000000000E+00 0. -1.
         23    2    1    2    0    0  0.53871662048E+03 -0.17695794645E+03 -0.12666645512E+04  0.13906960299E+04  0.89814532376E+02 0.  0.
         13    1    3    3    0    0  0.52936173210E+03 -0.15917840534E+03 -0.12026832934E+04  0.13236346597E+04  0.00000000000E+00 0.  1.
        -13    1    3    3    0    0  0.93548883812E+01 -0.17779541111E+02 -0.63981257821E+02  0.67061370185E+02  0.00000000000E+00 0. -1.
         22    1    1    2    0    0 -0.53871662048E+03  0.17695794645E+03 -0.53658226423E+03  0.78067293938E+03  0.00000000000E+00 0.  1.
<mgrwt>
<rscale>  0 0.12096049E+04</rscale>
<asrwt>0</asrwt>
<pdfrwt beam="1">  1        2 0.30573967E+00 0.12096049E+04</pdfrwt>
<pdfrwt beam="2">  1       -2 0.28317089E-01 0.12096049E+04</pdfrwt>
<totfact> 0.76546331E+01</totfact>
</mgrwt>
</event>
<event>
 6    1  0.1780144E-005  0.3961641E+04  0.7818608E-02  0.8012330E-01
          2   -1    0    0  501    0  0.00000000000E+00  0.00000000000E+00  0.25057306008E+04  0.25057306008E+04  0.00000000000E+00 0. -1.
         -2   -1    0    0    0  501 -0.00000000000E+00 -0.00000000000E+00 -0.15658707923E+04  0.15658707923E+04  0.00000000000E+00 0.  1.
         23    2    1    2    0    0 -0.79123544814E+03  0.15380230936E+04  0.14601798839E+04  0.22654171413E+04  0.91765788287E+02 0.  0.
         11    1    3    3    0    0 -0.41682383598E+03  0.86225502781E+03  0.75715315372E+03  0.12208631133E+04  0.00000000000E+00 0.  1.
        -11    1    3    3    0    0 -0.37441161216E+03  0.67576806577E+03  0.70302673016E+03  0.10445540280E+04  0.00000000000E+00 0. -1.
         22    1    1    2    0    0  0.79123544814E+03 -0.15380230936E+04 -0.52032007540E+03  0.18061842519E+04  0.00000000000E+00 0.  1.
<mgrwt>
<rscale>  0 0.39616413E+04</rscale>
<asrwt>0</asrwt>
<pdfrwt beam="1">  1        2 0.38549701E+00 0.39616413E+04</pdfrwt>
<pdfrwt beam="2">  1       -2 0.24090320E+00 0.39616413E+04</pdfrwt>
<totfact> 0.19990626E-01</totfact>
</mgrwt>
</event>
<event>
 6    1  0.1780144E-005  0.6124768E+03  0.7818608E-02  0.9879854E-01
          1   -1    0    0  501    0  0.00000000000E+00  0.00000000000E+00  0.30725773053E+03  0.30725773053E+03  0.00000000000E+00 0. -1.
         -1   -1    0    0    0  501 -0.00000000000E+00 -0.00000000000E+00 -0.30522243527E+03  0.30522243527E+03  0.00000000000E+00 0.  1.
         23    2    1    2    0    0 -0.16712827244E+03 -0.24788365251E+03  0.91722993471E+01  0.31343317709E+03  0.93691305858E+02 0.  0.
         13    1    3    3    0    0 -0.35449719748E+02 -0.12965826936E+03 -0.13183487749E+02  0.13506203683E+03  0.00000000000E+00 0.  1.
        -13    1    3    3    0    0 -0.13167855269E+03 -0.11822538315E+03  0.22355787096E+02  0.17837114026E+03  0.00000000000E+00 0. -1.
         22    1    1    2    0    0  0.16712827244E+03  0.24788365251E+03 -0.71370040871E+01  0.29904698871E+03  0.00000000000E+00 0. -1.
<mgrwt>
<rscale>  0 0.61247678E+03</rscale>
<asrwt>0</asrwt>
<pdfrwt beam="1">  1        1 0.47270420E-01 0.61247678E+03</pdfrwt>
<pdfrwt beam="2">  1       -1 0.46957297E-01 0.61247678E+03</pdfrwt>
<totfact> 0.38918807E+02</totfact>
</mgrwt>
</event>
<event>
 6    1  0.1780144E-005  0.7994069E+03  0.7818608E-02  0.9560876E-01
         -2   -1    0    0    0  501 -0.00000000000E+00  0.00000000000E+00  0.62639912389E+02  0.62639912389E+02  0.00000000000E+00 0.  1.
          2   -1    0    0  501    0  0.00000000000E+00 -0.00000000000E+00 -0.25504958846E+04  0.25504958846E+04  0.00000000000E+00 0. -1.
         23    2    1    2    0    0  0.10388391722E+03  0.31202996953E+03 -0.55128973914E+03  0.64884372471E+03  0.94462862925E+02 0.  0.
         11    1    3    3    0    0  0.27872835603E+02  0.20175324367E+03 -0.38276245554E+03  0.43357624897E+03  0.00000000000E+00 0.  1.
        -11    1    3    3    0    0  0.76011081622E+02  0.11027672587E+03 -0.16852728360E+03  0.21526747574E+03  0.00000000000E+00 0. -1.
         22    1    1    2    0    0 -0.10388391722E+03 -0.31202996953E+03 -0.19365662330E+04  0.19642920722E+04  0.00000000000E+00 0. -1.
<mgrwt>
<rscale>  0 0.79940688E+03</rscale>
<asrwt>0</asrwt>
<pdfrwt beam="1">  1        2 0.39238387E+00 0.79940688E+03</pdfrwt>
<pdfrwt beam="2">  1       -2 0.96369123E-02 0.79940688E+03</pdfrwt>
<totfact> 0.24536515E+02</totfact>
</mgrwt>
</event>
<event>
 6    1  0.1780144E-005  0.3103255E+04  0.7818608E-02  0.8214845E-01
         -1   -1    0    0    0  501 -0.00000000000E+00  0.00000000000E+00  0.11968959888E+04  0.11968959888E+04  0.00000000000E+00 0.  1.
          1   -1    0    0  501    0  0.00000000000E+00 -0.00000000000E+00 -0.20114929175E+04  0.20114929175E+04  0.00000000000E+00 0. -1.
         23    2    1    2    0    0  0.14605793636E+04 -0.51032540374E+03 -0.50919016652E+03  0.16313672243E+04  0.91434673835E+02 0.  0.
         13    1    3    3    0    0  0.48402906289E+03 -0.21503917700E+03 -0.17310839370E+03  0.55721853642E+03  0.00000000000E+00 0. -1.
        -13    1    3    3    0    0  0.97655030073E+03 -0.29528622674E+03 -0.33608177282E+03  0.10741486878E+04  0.00000000000E+00 0.  1.
         22    1    1    2    0    0 -0.14605793636E+04  0.51032540374E+03 -0.30540676224E+03  0.15770216820E+04  0.00000000000E+00 0. -1.
<mgrwt>
<rscale>  0 0.31032549E+04</rscale>
<asrwt>0</asrwt>
<pdfrwt beam="1">  1        1 0.30946045E+00 0.31032549E+04</pdfrwt>
<pdfrwt beam="2">  1       -1 0.18413785E+00 0.31032549E+04</pdfrwt>
<totfact> 0.47999474E-01</totfact>
</mgrwt>
</event>
<event>
 6    1  0.1780144E-005  0.4078899E+04  0.7818608E-02  0.7988816E-01
          1   -1    0    0  501    0  0.00000000000E+00  0.00000000000E+00  0.29924286242E+04  0.29924286242E+04  0.00000000000E+00 0. -1.
         -1   -1    0    0    0  501 -0.00000000000E+00 -0.00000000000E+00 -0.13899597278E+04  0.13899597278E+04  0.00000000000E+00 0.  1.
         23    2    1    2    0    0 -0.45180639708E+03  0.19826638888E+04  0.95429528824E+03  0.22480935872E+04  0.90333622483E+02 0.  0.
         11    1    3    3    0    0 -0.32094619740E+03  0.15175628606E+04  0.69439962971E+03  0.16994688415E+04  0.00000000000E+00 0. -1.
        -11    1    3    3    0    0 -0.13086019968E+03  0.46510102826E+03  0.25989565854E+03  0.54862474577E+03  0.00000000000E+00 0.  1.
         22    1    1    2    0    0  0.45180639708E+03 -0.19826638888E+04  0.64817360825E+03  0.21342947648E+04  0.00000000000E+00 0. -1.
<mgrwt>
<rscale>  0 0.40788995E+04</rscale>
<asrwt>0</asrwt>
<pdfrwt beam="1">  1        1 0.46037363E+00 0.40788995E+04</pdfrwt>
<pdfrwt beam="2">  1       -1 0.21383996E+00 0.40788995E+04</pdfrwt>
<totfact> 0.56974412E-02</totfact>
</mgrwt>
</event>
<event>
 6    1  0.1780144E-005  0.1334121E+04  0.7818608E-02  0.9002936E-01
         -2   -1    0    0    0  501 -0.00000000000E+00  0.00000000000E+00  0.70126466405E+03  0.70126466405E+03  0.00000000000E+00 0.  1.
          2   -1    0    0  501    0  0.00000000000E+00 -0.00000000000E+00 -0.63452490180E+03  0.63452490180E+03  0.00000000000E+00 0. -1.
         23    2    1    2    0    0 -0.54208747461E+02  0.56957800934E+03 -0.30404329167E+03  0.65399944412E+03  0.88967705769E+02 0.  0.
         11    1    3    3    0    0  0.88782885894E+01  0.16088133878E+03 -0.50186396588E+02  0.16876108431E+03  0.00000000000E+00 0. -1.
        -11    1    3    3    0    0 -0.63087036051E+02  0.40869667056E+03 -0.25385689508E+03  0.48523835981E+03  0.00000000000E+00 0.  1.
         22    1    1    2    0    0  0.54208747461E+02 -0.56957800934E+03  0.37078305392E+03  0.68179012174E+03  0.00000000000E+00 0.  1.
<mgrwt>
<rscale>  0 0.13341213E+04</rscale>
<asrwt>0</asrwt>
<pdfrwt beam="1">  1        2 0.97619216E-01 0.13341213E+04</pdfrwt>
<pdfrwt beam="2">  1       -2 0.10788687E+00 0.13341213E+04</pdfrwt>
<totfact> 0.31192546E+01</totfact>
</mgrwt>
</event>
<event>
 6    1  0.1780144E-005  0.1881366E+04  0.7818608E-02  0.8664188E-01
         -1   -1    0    0    0  501 -0.00000000000E+00  0.00000000000E+00  0.39840164039E+03  0.39840164039E+03  0.00000000000E+00 0.  1.
          1   -1    0    0  501    0  0.00000000000E+00 -0.00000000000E+00 -0.22210854770E+04  0.22210854770E+04  0.00000000000E+00 0. -1.
         23    2    1    2    0    0  0.80190705187E+03  0.25002747626E+03 -0.33007513244E+03  0.90675555568E+03  0.87677739328E+02 0.  0.
         11    1    3    3    0    0  0.73562261085E+03  0.20839502826E+03 -0.28212840462E+03  0.81496352685E+03  0.00000000000E+00 0.  1.
        -11    1    3    3    0    0  0.66284441017E+02  0.41632448003E+02 -0.47946727828E+02  0.91792028832E+02  0.00000000000E+00 0. -1.
         22    1    1    2    0    0 -0.80190705187E+03 -0.25002747626E+03 -0.14926087041E+04  0.17127315617E+04  0.00000000000E+00 0. -1.
<mgrwt>
<rscale>  0 0.18813656E+04</rscale>
<asrwt>0</asrwt>
<pdfrwt beam="1">  1        1 0.34170547E+00 0.18813656E+04</pdfrwt>
<pdfrwt beam="2">  1       -1 0.61292558E-01 0.18813656E+04</pdfrwt>
<totfact> 0.53332362E+00</totfact>
</mgrwt>
</event>
<event>
 6    1  0.1780144E-005  0.1494630E+04  0.7818608E-02  0.8888032E-01
         -1   -1    0    0    0  501 -0.00000000000E+00  0.00000000000E+00  0.43808927845E+03  0.43808927845E+03  0.00000000000E+00 0.  1.
          1   -1    0    0  501    0  0.00000000000E+00 -0.00000000000E+00 -0.12748085256E+04  0.12748085256E+04  0.00000000000E+00 0. -1.
         23    2    1    2    0    0 -0.47107904804E+02 -0.74108139601E+03 -0.46759193372E+03  0.88363562372E+03  0.10367694448E+03 0.  0.
         13    1    3    3    0    0 -0.76886580530E+02 -0.63177006910E+03 -0.40068697201E+03  0.75206051353E+03  0.00000000000E+00 0. -1.
        -13    1    3    3    0    0  0.29778675726E+02 -0.10931132692E+03 -0.66904961710E+02  0.13157511019E+03  0.00000000000E+00 0.  1.
         22    1    1    2    0    0  0.47107904804E+02  0.74108139601E+03 -0.36912731344E+03  0.82926218034E+03  0.00000000000E+00 0. -1.
<mgrwt>
<rscale>  0 0.14946303E+04</rscale>
<asrwt>0</asrwt>
<pdfrwt beam="1">  1        1 0.19612439E+00 0.14946303E+04</pdfrwt>
<pdfrwt beam="2">  1       -1 0.67398350E-01 0.14946303E+04</pdfrwt>
<totfact> 0.20347780E+01</totfact>
</mgrwt>
</event>
<event>
 6    1  0.1780144E-005  0.2910805E+04  0.7818608E-02  0.8269670E-01
          2   -1    0    0  501    0  0.00000000000E+00  0.00000000000E+00  0.28313559421E+04  0.28313559421E+04  0.00000000000E+00 0. -1.
         -2   -1    0    0    0  501 -0.00000000000E+00 -0.00000000000E+00 -0.74812082959E+03  0.74812082959E+03  0.00000000000E+00 0.  1.
         23    2    1    2    0    0 -0.13347506543E+04 -0.11463735729E+03  0.17375152311E+04  0.21959221941E+04  0.91728246169E+02 0.  0.
         13    1    3    3    0    0 -0.64394542579E+03 -0.10127126068E+03  0.84003675327E+03  0.10632889196E+04  0.00000000000E+00 0. -1.
        -13    1    3    3    0    0 -0.69080522854E+03 -0.13366096610E+02  0.89747847785E+03  0.11326332745E+04  0.00000000000E+00 0.  1.
         22    1    1    2    0    0  0.13347506543E+04  0.11463735729E+03  0.34571988144E+03  0.13835545777E+04  0.00000000000E+00 0.  1.
<mgrwt>
<rscale>  0 0.29108049E+04</rscale>
<asrwt>0</asrwt>
<pdfrwt beam="1">  1        2 0.43559322E+00 0.29108049E+04</pdfrwt>
<pdfrwt beam="2">  1       -2 0.11509551E+00 0.29108049E+04</pdfrwt>
<totfact> 0.11225502E+00</totfact>
</mgrwt>
</event>
<event>
 6    1  0.1780144E-005  0.2003296E+04  0.7818608E-02  0.8605081E-01
         -2   -1    0    0    0  501 -0.00000000000E+00  0.00000000000E+00  0.78237435988E+03  0.78237435988E+03  0.00000000000E+00 0.  1.
          2   -1    0    0  501    0  0.00000000000E+00 -0.00000000000E+00 -0.12823766986E+04  0.12823766986E+04  0.00000000000E+00 0. -1.
         23    2    1    2    0    0 -0.61887248727E+03 -0.26041541634E+03 -0.10136526375E+04  0.12193777835E+04  0.92580585519E+02 0.  0.
         13    1    3    3    0    0 -0.38536445053E+03 -0.15703832375E+03 -0.70638307125E+03  0.81984378890E+03  0.00000000000E+00 0.  1.
        -13    1    3    3    0    0 -0.23350803674E+03 -0.10337709260E+03 -0.30726956629E+03  0.39953399463E+03  0.00000000000E+00 0. -1.
         22    1    1    2    0    0  0.61887248727E+03  0.26041541634E+03  0.51365029880E+03  0.84537327497E+03  0.00000000000E+00 0.  1.
<mgrwt>
<rscale>  0 0.20032959E+04</rscale>
<asrwt>0</asrwt>
<pdfrwt beam="1">  1        2 0.19728872E+00 0.20032959E+04</pdfrwt>
<pdfrwt beam="2">  1       -2 0.12036529E+00 0.20032959E+04</pdfrwt>
<totfact> 0.82877395E+00</totfact>
</mgrwt>
</event>
<event>
 6    1  0.1780144E-005  0.1387221E+04  0.7818608E-02  0.8963121E-01
          2   -1    0    0  501    0  0.00000000000E+00  0.00000000000E+00  0.10880040485E+04  0.10880040485E+04  0.00000000000E+00 0. -1.
         -2   -1    0    0    0  501 -0.00000000000E+00 -0.00000000000E+00 -0.44218166125E+03  0.44218166125E+03  0.00000000000E+00 0.  1.
         23    2    1    2    0    0  0.37091731703E+03  0.58281151523E+03  0.31180265795E+03  0.76284087340E+03  0.86350346061E+02 0.  0.
         11    1    3    3    0    0  0.23437938593E+03  0.38730463079E+03  0.15993284399E+03  0.48012195134E+03  0.00000000000E+00 0.  1.
        -11    1    3    3    0    0  0.13653793111E+03  0.19550688444E+03  0.15186981396E+03  0.28271892206E+03  0.00000000000E+00 0. -1.
         22    1    1    2    0    0 -0.37091731703E+03 -0.58281151523E+03  0.33401972934E+03  0.76734483640E+03  0.00000000000E+00 0.  1.
<mgrwt>
<rscale>  0 0.13872209E+04</rscale>
<asrwt>0</asrwt>
<pdfrwt beam="1">  1        2 0.16738524E+00 0.13872209E+04</pdfrwt>
<pdfrwt beam="2">  1       -2 0.68027948E-01 0.13872209E+04</pdfrwt>
<totfact> 0.42720867E+01</totfact>
</mgrwt>
</event>
<event>
 6    1  0.1780144E-005  0.2337469E+04  0.7818608E-02  0.8463292E-01
          1   -1    0    0  501    0  0.00000000000E+00  0.00000000000E+00  0.30247320395E+04  0.30247320395E+04  0.00000000000E+00 0. -1.
         -1   -1    0    0    0  501 -0.00000000000E+00 -0.00000000000E+00 -0.45159053863E+03  0.45159053863E+03  0.00000000000E+00 0.  1.
         23    2    1    2    0    0  0.26143435631E+03  0.89257636577E+03  0.24021314492E+03  0.96482995314E+03  0.90299457848E+02 0.  0.
         11    1    3    3    0    0  0.16048394030E+03  0.65573344270E+03  0.20120124931E+03  0.70443124979E+03  0.00000000000E+00 0.  1.
        -11    1    3    3    0    0  0.10095041602E+03  0.23684292307E+03  0.39011895614E+02  0.26039870334E+03  0.00000000000E+00 0. -1.
         22    1    1    2    0    0 -0.26143435631E+03 -0.89257636577E+03  0.23329283559E+04  0.25114926250E+04  0.00000000000E+00 0. -1.
<mgrwt>
<rscale>  0 0.23374690E+04</rscale>
<asrwt>0</asrwt>
<pdfrwt beam="1">  1        1 0.46534338E+00 0.23374690E+04</pdfrwt>
<pdfrwt beam="2">  1       -1 0.69475469E-01 0.23374690E+04</pdfrwt>
<totfact> 0.10829487E+00</totfact>
</mgrwt>
</event>
<event>
 6    1  0.2593235E-005  0.3066258E+04  0.7818608E-02  0.8225060E-01
          2   -1    0    0  501    0  0.00000000000E+00  0.00000000000E+00  0.17726822973E+04  0.17726822973E+04  0.00000000000E+00 0. -1.
         -2   -1    0    0    0  501 -0.00000000000E+00 -0.00000000000E+00 -0.13259476178E+04  0.13259476178E+04  0.00000000000E+00 0.  1.
         23    2    1    2    0    0  0.40763705885E+02 -0.15313088236E+04  0.21708884098E+03  0.15496607081E+04  0.88047443720E+02 0.  0.
         13    1    3    3    0    0 -0.21588507253E+02 -0.68929147833E+03  0.79412192925E+02  0.69418664791E+03  0.00000000000E+00 0. -1.
        -13    1    3    3    0    0  0.62352213137E+02 -0.84201734530E+03  0.13767664806E+03  0.85547406021E+03  0.00000000000E+00 0.  1.
         22    1    1    2    0    0 -0.40763705885E+02  0.15313088236E+04  0.22964583854E+03  0.15489692070E+04  0.00000000000E+00 0.  1.
<mgrwt>
<rscale>  0 0.30662576E+04</rscale>
<asrwt>0</asrwt>
<pdfrwt beam="1">  1        2 0.27272035E+00 0.30662576E+04</pdfrwt>
<pdfrwt beam="2">  1       -2 0.20399194E+00 0.30662576E+04</pdfrwt>
<totfact> 0.95283998E-01</totfact>
</mgrwt>
</event>
<event>
 6    1  0.1780144E-005  0.1137984E+04  0.7818608E-02  0.9168941E-01
          2   -1    0    0  501    0  0.00000000000E+00  0.00000000000E+00  0.20356175127E+04  0.20356175127E+04  0.00000000000E+00 0. -1.
         -2   -1    0    0    0  501 -0.00000000000E+00 -0.00000000000E+00 -0.15904346589E+03  0.15904346589E+03  0.00000000000E+00 0.  1.
         23    2    1    2    0    0 -0.11534268847E+03  0.31966362968E+03  0.18155162647E+04  0.18493830837E+04  0.92896237417E+02 0.  0.
         11    1    3    3    0    0 -0.66080243178E+02  0.10891852477E+03  0.87902200329E+03  0.88820579026E+03  0.00000000000E+00 0. -1.
        -11    1    3    3    0    0 -0.49262445288E+02  0.21074510491E+03  0.93649426142E+03  0.96117729344E+03  0.00000000000E+00 0.  1.
         22    1    1    2    0    0  0.11534268847E+03 -0.31966362968E+03  0.61057782056E+02  0.34527789485E+03  0.00000000000E+00 0.  1.
<mgrwt>
<rscale>  0 0.11379836E+04</rscale>
<asrwt>0</asrwt>
<pdfrwt beam="1">  1        2 0.31317191E+00 0.11379836E+04</pdfrwt>
<pdfrwt beam="2">  1       -2 0.24468227E-01 0.11379836E+04</pdfrwt>
<totfact> 0.94515146E+01</totfact>
</mgrwt>
</event>
<event>
 6    1  0.1780144E-005  0.2306216E+04  0.7818608E-02  0.8475474E-01
          2   -1    0    0  501    0  0.00000000000E+00  0.00000000000E+00  0.27655849997E+04  0.27655849997E+04  0.00000000000E+00 0. -1.
         -2   -1    0    0    0  501 -0.00000000000E+00 -0.00000000000E+00 -0.48078741500E+03  0.48078741500E+03  0.00000000000E+00 0.  1.
         23    2    1    2    0    0  0.53348171054E+03 -0.18319602587E+03  0.25570771400E+04  0.26200341071E+04  0.88157260750E+02 0.  0.
         11    1    3    3    0    0  0.30533894677E+03 -0.13375185987E+03  0.16553331847E+04  0.16885642969E+04  0.00000000000E+00 0. -1.
        -11    1    3    3    0    0  0.22814276377E+03 -0.49444165997E+02  0.90174395538E+03  0.93146981018E+03  0.00000000000E+00 0.  1.
         22    1    1    2    0    0 -0.53348171054E+03  0.18319602587E+03 -0.27227955534E+03  0.62633830765E+03  0.00000000000E+00 0.  1.
<mgrwt>
<rscale>  0 0.23062163E+04</rscale>
<asrwt>0</asrwt>
<pdfrwt beam="1">  1        2 0.42547460E+00 0.23062163E+04</pdfrwt>
<pdfrwt beam="2">  1       -2 0.73967296E-01 0.23062163E+04</pdfrwt>
<totfact> 0.36205533E+00</totfact>
</mgrwt>
</event>
<event>
 6    1  0.1780144E-005  0.1700296E+04  0.7818608E-02  0.8761196E-01
          1   -1    0    0  501    0  0.00000000000E+00  0.00000000000E+00  0.49244701788E+03  0.49244701788E+03  0.00000000000E+00 0. -1.
         -1   -1    0    0    0  501 -0.00000000000E+00 -0.00000000000E+00 -0.14676739695E+04  0.14676739695E+04  0.00000000000E+00 0.  1.
         23    2    1    2    0    0 -0.58992673317E+03 -0.51132639253E+03 -0.87007235225E+03  0.11723864382E+04  0.89419417017E+02 0.  0.
         11    1    3    3    0    0 -0.28325825827E+03 -0.26043586701E+03 -0.36420105290E+03  0.52981552321E+03  0.00000000000E+00 0. -1.
        -11    1    3    3    0    0 -0.30666847490E+03 -0.25089052552E+03 -0.50587129935E+03  0.64257091500E+03  0.00000000000E+00 0.  1.
         22    1    1    2    0    0  0.58992673317E+03  0.51132639253E+03 -0.10515459937E+03  0.78773454918E+03  0.00000000000E+00 0. -1.
<mgrwt>
<rscale>  0 0.17002961E+04</rscale>
<asrwt>0</asrwt>
<pdfrwt beam="1">  1        1 0.75761081E-01 0.17002961E+04</pdfrwt>
<pdfrwt beam="2">  1       -1 0.22579599E+00 0.17002961E+04</pdfrwt>
<totfact> 0.43355121E+00</totfact>
</mgrwt>
</event>
<event>
 6    1  0.1780144E-005  0.1228953E+04  0.7818608E-02  0.9087885E-01
         -2   -1    0    0    0  501 -0.00000000000E+00  0.00000000000E+00  0.26694319545E+03  0.26694319545E+03  0.00000000000E+00 0.  1.
          2   -1    0    0  501    0  0.00000000000E+00 -0.00000000000E+00 -0.14144638838E+04  0.14144638838E+04  0.00000000000E+00 0. -1.
         23    2    1    2    0    0 -0.75274917681E+02 -0.18635109647E+03 -0.13667720641E+04  0.13839777429E+04  0.83279488858E+02 0.  0.
         13    1    3    3    0    0 -0.58638254814E+00 -0.10932740898E+03 -0.62575762788E+03  0.63523651899E+03  0.00000000000E+00 0. -1.
        -13    1    3    3    0    0 -0.74688535133E+02 -0.77023687493E+02 -0.74101443622E+03  0.74874122392E+03  0.00000000000E+00 0.  1.
         22    1    1    2    0    0  0.75274917681E+02  0.18635109647E+03  0.21925137571E+03  0.29742933638E+03  0.00000000000E+00 0.  1.
<mgrwt>
<rscale>  0 0.12289532E+04</rscale>
<asrwt>0</asrwt>
<pdfrwt beam="1">  1        2 0.21760983E+00 0.12289532E+04</pdfrwt>
<pdfrwt beam="2">  1       -2 0.41068183E-01 0.12289532E+04</pdfrwt>
<totfact> 0.78481473E+01</totfact>
</mgrwt>
</event>
<event>
 6    1  0.1780144E-005  0.2269094E+04  0.7818608E-02  0.8490207E-01
         -2   -1    0    0    0  501 -0.00000000000E+00  0.00000000000E+00  0.57645730066E+03  0.57645730066E+03  0.00000000000E+00 0.  1.
          2   -1    0    0  501    0  0.00000000000E+00 -0.00000000000E+00 -0.22329445142E+04  0.22329445142E+04  0.00000000000E+00 0. -1.
         23    2    1    2    0    0 -0.76835154102E+03  0.71523139026E+03 -0.30246000393E+03  0.10961272553E+04  0.89960399885E+02 0.  0.
         13    1    3    3    0    0 -0.32842390597E+03  0.24644397393E+03 -0.11116395736E+03  0.42538725852E+03  0.00000000000E+00 0. -1.
        -13    1    3    3    0    0 -0.43992763505E+03  0.46878741632E+03 -0.19129604657E+03  0.67073999673E+03  0.00000000000E+00 0.  1.
         22    1    1    2    0    0  0.76835154102E+03 -0.71523139026E+03 -0.13540272096E+04  0.17132745596E+04  0.00000000000E+00 0.  1.
<mgrwt>
<rscale>  0 0.22690942E+04</rscale>
<asrwt>0</asrwt>
<pdfrwt beam="1">  1        2 0.34352992E+00 0.22690942E+04</pdfrwt>
<pdfrwt beam="2">  1       -2 0.88685739E-01 0.22690942E+04</pdfrwt>
<totfact> 0.49157295E+00</totfact>
</mgrwt>
</event>
<event>
 6    1  0.1780144E-005  0.1460867E+04  0.7818608E-02  0.8910901E-01
          2   -1    0    0  501    0  0.00000000000E+00  0.00000000000E+00  0.70278288337E+03  0.70278288337E+03  0.00000000000E+00 0.  1.
         -2   -1    0    0    0  501 -0.00000000000E+00 -0.00000000000E+00 -0.75917226450E+03  0.75917226450E+03  0.00000000000E+00 0. -1.
         23    2    1    2    0    0 -0.65608094294E+03 -0.11850113434E+03  0.26312337078E+03  0.72264931052E+03  0.92213855862E+02 0.  0.
         13    1    3    3    0    0 -0.44523312707E+03 -0.12214562940E+03  0.16788270252E+03  0.49126031188E+03  0.00000000000E+00 0.  1.
        -13    1    3    3    0    0 -0.21084781587E+03  0.36444950537E+01  0.95240668256E+02  0.23138899864E+03  0.00000000000E+00 0. -1.
         22    1    1    2    0    0  0.65608094294E+03  0.11850113434E+03 -0.31951275190E+03  0.73930583736E+03  0.00000000000E+00 0. -1.
<mgrwt>
<rscale>  0 0.14608672E+04</rscale>
<asrwt>0</asrwt>
<pdfrwt beam="1">  1        2 0.10812044E+00 0.14608672E+04</pdfrwt>
<pdfrwt beam="2">  1       -2 0.11679573E+00 0.14608672E+04</pdfrwt>
<totfact> 0.22424783E+01</totfact>
</mgrwt>
</event>
<event>
 6    1  0.1780144E-005  0.4876825E+04  0.7818608E-02  0.7847794E-01
          1   -1    0    0  501    0  0.00000000000E+00  0.00000000000E+00  0.18931519231E+04  0.18931519231E+04  0.00000000000E+00 0. -1.
         -1   -1    0    0    0  501 -0.00000000000E+00 -0.00000000000E+00 -0.31407176444E+04  0.31407176444E+04  0.00000000000E+00 0.  1.
         23    2    1    2    0    0 -0.42294328224E+03  0.64759731643E+03 -0.30100349904E+04  0.31091458915E+04  0.90632373610E+02 0.  0.
         13    1    3    3    0    0 -0.15140563611E+03  0.30280276767E+03 -0.12210302117E+04  0.12670942982E+04  0.00000000000E+00 0. -1.
        -13    1    3    3    0    0 -0.27153764614E+03  0.34479454876E+03 -0.17890047787E+04  0.18420515933E+04  0.00000000000E+00 0.  1.
         22    1    1    2    0    0  0.42294328224E+03 -0.64759731643E+03  0.17624692691E+04  0.19247236760E+04  0.00000000000E+00 0. -1.
<mgrwt>
<rscale>  0 0.48768251E+04</rscale>
<asrwt>0</asrwt>
<pdfrwt beam="1">  1        1 0.29125415E+00 0.48768251E+04</pdfrwt>
<pdfrwt beam="2">  1       -1 0.48318732E+00 0.48768251E+04</pdfrwt>
<totfact> 0.49559391E-03</totfact>
</mgrwt>
</event>
<event>
 6    1  0.1780144E-005  0.1528779E+04  0.7818608E-02  0.8865537E-01
          1   -1    0    0  501    0  0.00000000000E+00  0.00000000000E+00  0.13308548258E+04  0.13308548258E+04  0.00000000000E+00 0. -1.
         -1   -1    0    0    0  501 -0.00000000000E+00 -0.00000000000E+00 -0.43903485174E+03  0.43903485174E+03  0.00000000000E+00 0.  1.
         23    2    1    2    0    0  0.10359691865E+03 -0.67932498146E+03  0.82790672160E+03  0.10797450146E+04  0.90581481599E+02 0.  0.
         11    1    3    3    0    0  0.28965643620E+01 -0.26618859896E+03  0.28257046371E+03  0.38821492406E+03  0.00000000000E+00 0.  1.
        -11    1    3    3    0    0  0.10070035428E+03 -0.41313638250E+03  0.54533625789E+03  0.69153009050E+03  0.00000000000E+00 0. -1.
         22    1    1    2    0    0 -0.10359691865E+03  0.67932498146E+03  0.63913252450E+02  0.69014466297E+03  0.00000000000E+00 0.  1.
<mgrwt>
<rscale>  0 0.15287794E+04</rscale>
<asrwt>0</asrwt>
<pdfrwt beam="1">  1        1 0.20474690E+00 0.15287794E+04</pdfrwt>
<pdfrwt beam="2">  1       -1 0.67543824E-01 0.15287794E+04</pdfrwt>
<totfact> 0.18420659E+01</totfact>
</mgrwt>
</event>
<event>
 6    1  0.1780144E-005  0.4402279E+04  0.7818608E-02  0.7927972E-01
          1   -1    0    0  501    0  0.00000000000E+00  0.00000000000E+00  0.15670573617E+04  0.15670573617E+04  0.00000000000E+00 0. -1.
         -1   -1    0    0    0  501 -0.00000000000E+00 -0.00000000000E+00 -0.30917916298E+04  0.30917916298E+04  0.00000000000E+00 0.  1.
         23    2    1    2    0    0 -0.10971116855E+04 -0.12839123649E+03 -0.27764068114E+04  0.29894711086E+04  0.91456908456E+02 0.  0.
         13    1    3    3    0    0 -0.52430971135E+03 -0.44069781119E+02 -0.12080864011E+04  0.13176932767E+04  0.00000000000E+00 0.  1.
        -13    1    3    3    0    0 -0.57280197416E+03 -0.84321455372E+02 -0.15683204104E+04  0.16717778318E+04  0.00000000000E+00 0. -1.
         22    1    1    2    0    0  0.10971116855E+04  0.12839123649E+03  0.12516725434E+04  0.16693778830E+04  0.00000000000E+00 0. -1.
<mgrwt>
<rscale>  0 0.44022789E+04</rscale>
<asrwt>0</asrwt>
<pdfrwt beam="1">  1        1 0.24108575E+00 0.44022789E+04</pdfrwt>
<pdfrwt beam="2">  1       -1 0.47566025E+00 0.44022789E+04</pdfrwt>
<totfact> 0.96363504E-03</totfact>
</mgrwt>
</event>
<event>
 6    1  0.1780144E-005  0.2185698E+04  0.7818608E-02  0.8524405E-01
         -2   -1    0    0    0  501 -0.00000000000E+00  0.00000000000E+00  0.45412672927E+03  0.45412672927E+03  0.00000000000E+00 0.  1.
          2   -1    0    0  501    0  0.00000000000E+00 -0.00000000000E+00 -0.26299237260E+04  0.26299237260E+04  0.00000000000E+00 0. -1.
         23    2    1    2    0    0 -0.84768927900E+02 -0.52353418924E+03 -0.24350233184E+04  0.24937351968E+04  0.90015845370E+02 0.  0.
         11    1    3    3    0    0 -0.28387050156E+02 -0.39638744513E+03 -0.17203957559E+04  0.17656982721E+04  0.00000000000E+00 0. -1.
        -11    1    3    3    0    0 -0.56381877744E+02 -0.12714674411E+03 -0.71462756249E+03  0.72803692472E+03  0.00000000000E+00 0.  1.
         22    1    1    2    0    0  0.84768927900E+02  0.52353418924E+03  0.25922632169E+03  0.59031525840E+03  0.00000000000E+00 0.  1.
<mgrwt>
<rscale>  0 0.21856977E+04</rscale>
<asrwt>0</asrwt>
<pdfrwt beam="1">  1        2 0.40460365E+00 0.21856977E+04</pdfrwt>
<pdfrwt beam="2">  1       -2 0.69865651E-01 0.21856977E+04</pdfrwt>
<totfact> 0.49936479E+00</totfact>
</mgrwt>
</event>
<event>
 6    1  0.1780144E-005  0.3344382E+04  0.7818608E-02  0.8151693E-01
          2   -1    0    0  501    0  0.00000000000E+00  0.00000000000E+00  0.11053629797E+04  0.11053629797E+04  0.00000000000E+00 0.  1.
         -2   -1    0    0    0  501 -0.00000000000E+00 -0.00000000000E+00 -0.25296871667E+04  0.25296871667E+04  0.00000000000E+00 0. -1.
         23    2    1    2    0    0 -0.40192910971E+03  0.15386133879E+04 -0.12703016668E+04  0.20373639748E+04  0.91145348189E+02 0.  0.
         13    1    3    3    0    0 -0.17876479993E+03  0.85585531136E+03 -0.68032310466E+03  0.11078288200E+04  0.00000000000E+00 0.  1.
        -13    1    3    3    0    0 -0.22316430978E+03  0.68275807651E+03 -0.58997856212E+03  0.92953515478E+03  0.00000000000E+00 0. -1.
         22    1    1    2    0    0  0.40192910971E+03 -0.15386133879E+04 -0.15402252020E+03  0.15976861717E+04  0.00000000000E+00 0.  1.
<mgrwt>
<rscale>  0 0.33443819E+04</rscale>
<asrwt>0</asrwt>
<pdfrwt beam="1">  1        2 0.17005585E+00 0.33443819E+04</pdfrwt>
<pdfrwt beam="2">  1       -2 0.38918264E+00 0.33443819E+04</pdfrwt>
<totfact> 0.15697041E-01</totfact>
</mgrwt>
</event>
<event>
 6    1  0.3369445E-005  0.3192494E+04  0.7818608E-02  0.8190802E-01
          2   -1    0    0  501    0  0.00000000000E+00  0.00000000000E+00  0.16184627818E+04  0.16184627818E+04  0.00000000000E+00 0. -1.
         -2   -1    0    0    0  501 -0.00000000000E+00 -0.00000000000E+00 -0.15743361074E+04  0.15743361074E+04  0.00000000000E+00 0.  1.
         23    2    1    2    0    0 -0.72475531252E+02  0.15477884315E+04  0.40017292461E+03  0.16029339064E+04  0.91416668440E+02 0.  0.
         11    1    3    3    0    0 -0.47503637352E+02  0.83240639671E+03  0.16902724058E+03  0.85072158366E+03  0.00000000000E+00 0. -1.
        -11    1    3    3    0    0 -0.24971893899E+02  0.71538203481E+03  0.23114568403E+03  0.75221232273E+03  0.00000000000E+00 0.  1.
         22    1    1    2    0    0  0.72475531252E+02 -0.15477884315E+04 -0.35604625019E+03  0.15898649828E+04  0.00000000000E+00 0.  1.
<mgrwt>
<rscale>  0 0.31924939E+04</rscale>
<asrwt>0</asrwt>
<pdfrwt beam="1">  1        2 0.24899427E+00 0.31924939E+04</pdfrwt>
<pdfrwt beam="2">  1       -2 0.24220556E+00 0.31924939E+04</pdfrwt>
<totfact> 0.65867945E-01</totfact>
</mgrwt>
</event>
<event>
 6    1  0.1780144E-005  0.1289438E+04  0.7818608E-02  0.9037983E-01
          3   -1    0    0  501    0  0.00000000000E+00  0.00000000000E+00  0.37817344663E+03  0.37817344663E+03  0.00000000000E+00 0. -1.
         -3   -1    0    0    0  501 -0.00000000000E+00 -0.00000000000E+00 -0.10991313367E+04  0.10991313367E+04  0.00000000000E+00 0.  1.
         23    2    1    2    0    0 -0.36206470286E+03  0.52603953148E+03 -0.29467873876E+03  0.70950119350E+03  0.93530459055E+02 0.  0.
         13    1    3    3    0    0 -0.17720709347E+03  0.30469836988E+03 -0.20370087755E+03  0.40710870551E+03  0.00000000000E+00 0.  1.
        -13    1    3    3    0    0 -0.18485760939E+03  0.22134116160E+03 -0.90977861201E+02  0.30239248799E+03  0.00000000000E+00 0. -1.
         22    1    1    2    0    0  0.36206470286E+03 -0.52603953148E+03 -0.42627915134E+03  0.76780358986E+03  0.00000000000E+00 0. -1.
<mgrwt>
<rscale>  0 0.12894375E+04</rscale>
<asrwt>0</asrwt>
<pdfrwt beam="1">  1        3 0.58180530E-01 0.12894375E+04</pdfrwt>
<pdfrwt beam="2">  1       -3 0.16909713E+00 0.12894375E+04</pdfrwt>
<totfact> 0.17480483E+00</totfact>
</mgrwt>
</event>
<event>
 6    1  0.1780144E-005  0.2952757E+04  0.7818608E-02  0.8257352E-01
          2   -1    0    0  501    0  0.00000000000E+00  0.00000000000E+00  0.36586029318E+04  0.36586029318E+04  0.00000000000E+00 0. -1.
         -2   -1    0    0    0  501 -0.00000000000E+00 -0.00000000000E+00 -0.59577210867E+03  0.59577210867E+03  0.00000000000E+00 0.  1.
         23    2    1    2    0    0 -0.91480629173E+03 -0.20023372848E+03  0.31747775270E+04  0.33112439987E+04  0.90334795411E+02 0.  0.
         13    1    3    3    0    0 -0.28470279881E+03 -0.43299884204E+02  0.84852933153E+03  0.89606505907E+03  0.00000000000E+00 0. -1.
        -13    1    3    3    0    0 -0.63010349292E+03 -0.15693384428E+03  0.23262481955E+04  0.24151789396E+04  0.00000000000E+00 0.  1.
         22    1    1    2    0    0  0.91480629173E+03  0.20023372848E+03 -0.11194670393E+03  0.94313104176E+03  0.00000000000E+00 0.  1.
<mgrwt>
<rscale>  0 0.29527571E+04</rscale>
<asrwt>0</asrwt>
<pdfrwt beam="1">  1        2 0.56286198E+00 0.29527571E+04</pdfrwt>
<pdfrwt beam="2">  1       -2 0.91657249E-01 0.29527571E+04</pdfrwt>
<totfact> 0.54472311E-01</totfact>
</mgrwt>
</event>
<event>
 6    1  0.1780144E-005  0.1524919E+04  0.7818608E-02  0.8868049E-01
         -1   -1    0    0    0  501 -0.00000000000E+00  0.00000000000E+00  0.97250581033E+03  0.97250581033E+03  0.00000000000E+00 0. -1.
          1   -1    0    0  501    0  0.00000000000E+00 -0.00000000000E+00 -0.59778020447E+03  0.59778020447E+03  0.00000000000E+00 0.  1.
         23    2    1    2    0    0  0.50461472732E+03 -0.22882952116E+03  0.72320979594E+03  0.91573257656E+03  0.92383819146E+02 0.  0.
         11    1    3    3    0    0  0.21580716416E+03 -0.88256866252E+02  0.23267901574E+03  0.32939570566E+03  0.00000000000E+00 0.  1.
        -11    1    3    3    0    0  0.28880756317E+03 -0.14057265491E+03  0.49053078020E+03  0.58633687089E+03  0.00000000000E+00 0. -1.
         22    1    1    2    0    0 -0.50461472732E+03  0.22882952116E+03 -0.34848419007E+03  0.65455343824E+03  0.00000000000E+00 0.  1.
<mgrwt>
<rscale>  0 0.15249193E+04</rscale>
<asrwt>0</asrwt>
<pdfrwt beam="1">  1        1 0.91966185E-01 0.15249193E+04</pdfrwt>
<pdfrwt beam="2">  1       -1 0.14961628E+00 0.15249193E+04</pdfrwt>
<totfact> 0.11679246E+01</totfact>
</mgrwt>
</event>
<event>
 6    1  0.1780144E-005  0.1501843E+04  0.7818608E-02  0.8883228E-01
          2   -1    0    0  501    0  0.00000000000E+00  0.00000000000E+00  0.29497319545E+04  0.29497319545E+04  0.00000000000E+00 0. -1.
         -2   -1    0    0    0  501 -0.00000000000E+00 -0.00000000000E+00 -0.19116410998E+03  0.19116410998E+03  0.00000000000E+00 0.  1.
         23    2    1    2    0    0 -0.18225798009E+03  0.47745691298E+03  0.24102517230E+03  0.57200443938E+03  0.88954313697E+02 0.  0.
         13    1    3    3    0    0 -0.14935085911E+03  0.26887044579E+03  0.14482441034E+03  0.33995750553E+03  0.00000000000E+00 0.  1.
        -13    1    3    3    0    0 -0.32907120985E+02  0.20858646719E+03  0.96200761954E+02  0.23204693385E+03  0.00000000000E+00 0. -1.
         22    1    1    2    0    0  0.18225798009E+03 -0.47745691298E+03  0.25175426722E+04  0.25688916251E+04  0.00000000000E+00 0. -1.
<mgrwt>
<rscale>  0 0.15018427E+04</rscale>
<asrwt>0</asrwt>
<pdfrwt beam="1">  1        2 0.45380488E+00 0.15018427E+04</pdfrwt>
<pdfrwt beam="2">  1       -2 0.29409865E-01 0.15018427E+04</pdfrwt>
<totfact> 0.19371824E+01</totfact>
</mgrwt>
</event>
<event>
 6    1  0.1780144E-005  0.2245415E+04  0.7818608E-02  0.8499759E-01
         -2   -1    0    0    0  501 -0.00000000000E+00  0.00000000000E+00  0.36968786769E+04  0.36968786769E+04  0.00000000000E+00 0.  1.
          2   -1    0    0  501    0  0.00000000000E+00 -0.00000000000E+00 -0.34095589498E+03  0.34095589498E+03  0.00000000000E+00 0. -1.
         23    2    1    2    0    0 -0.23161592085E+03 -0.46121054465E+03  0.34699234831E+04  0.35092919898E+04  0.91652546856E+02 0.  0.
         13    1    3    3    0    0 -0.22465984342E+03 -0.40694935052E+03  0.29356158488E+04  0.29721911498E+04  0.00000000000E+00 0. -1.
        -13    1    3    3    0    0 -0.69560774371E+01 -0.54261194129E+02  0.53430763431E+03  0.53710083996E+03  0.00000000000E+00 0.  1.
         22    1    1    2    0    0  0.23161592085E+03  0.46121054465E+03 -0.11400070117E+03  0.52854258216E+03  0.00000000000E+00 0. -1.
<mgrwt>
<rscale>  0 0.22454154E+04</rscale>
<asrwt>0</asrwt>
<pdfrwt beam="1">  1        2 0.52454756E-01 0.22454154E+04</pdfrwt>
<pdfrwt beam="2">  1       -2 0.56875054E+00 0.22454154E+04</pdfrwt>
<totfact> 0.58930423E-02</totfact>
</mgrwt>
</event>
<event>
 6    1  0.1780144E-005  0.1374859E+04  0.7818608E-02  0.8972221E-01
          2   -1    0    0  501    0  0.00000000000E+00  0.00000000000E+00  0.43226355013E+03  0.43226355013E+03  0.00000000000E+00 0. -1.
         -2   -1    0    0    0  501 -0.00000000000E+00 -0.00000000000E+00 -0.10932202991E+04  0.10932202991E+04  0.00000000000E+00 0.  1.
         23    2    1    2    0    0 -0.50197837271E+03 -0.81152908507E+02  0.17630717590E+03  0.54590283620E+03  0.91419937999E+02 0.  0.
         13    1    3    3    0    0 -0.31800454162E+03 -0.45062012898E+02  0.64434300882E+02  0.32758091005E+03  0.00000000000E+00 0.  1.
        -13    1    3    3    0    0 -0.18397383109E+03 -0.36090895609E+02  0.11187287502E+03  0.21832192615E+03  0.00000000000E+00 0. -1.
         22    1    1    2    0    0  0.50197837271E+03  0.81152908507E+02 -0.83726392491E+03  0.97958101308E+03  0.00000000000E+00 0.  1.
<mgrwt>
<rscale>  0 0.13748590E+04</rscale>
<asrwt>0</asrwt>
<pdfrwt beam="1">  1        2 0.66502084E-01 0.13748590E+04</pdfrwt>
<pdfrwt beam="2">  1       -2 0.16818774E+00 0.13748590E+04</pdfrwt>
<totfact> 0.15572914E+01</totfact>
</mgrwt>
</event>
<event>
 6    1  0.1780144E-005  0.2031037E+04  0.7818608E-02  0.8592246E-01
          1   -1    0    0  501    0  0.00000000000E+00  0.00000000000E+00  0.25834705894E+04  0.25834705894E+04  0.00000000000E+00 0. -1.
         -1   -1    0    0    0  501 -0.00000000000E+00 -0.00000000000E+00 -0.39918320861E+03  0.39918320861E+03  0.00000000000E+00 0.  1.
         23    2    1    2    0    0 -0.59502053452E+03  0.45390847500E+03  0.20979388797E+04  0.22293023502E+04  0.91428034612E+02 0.  0.
         13    1    3    3    0    0 -0.33562674940E+03  0.23121285170E+03  0.12611647946E+04  0.13253834678E+04  0.00000000000E+00 0. -1.
        -13    1    3    3    0    0 -0.25939378513E+03  0.22269562330E+03  0.83677408513E+03  0.90391888239E+03  0.00000000000E+00 0.  1.
         22    1    1    2    0    0  0.59502053452E+03 -0.45390847500E+03  0.86348501039E+02  0.75335144774E+03  0.00000000000E+00 0.  1.
<mgrwt>
<rscale>  0 0.20310373E+04</rscale>
<asrwt>0</asrwt>
<pdfrwt beam="1">  1        1 0.39745700E+00 0.20310373E+04</pdfrwt>
<pdfrwt beam="2">  1       -1 0.61412803E-01 0.20310373E+04</pdfrwt>
<totfact> 0.29498455E+00</totfact>
</mgrwt>
</event>
<event>
 6    1  0.1780144E-005  0.1799020E+04  0.7818608E-02  0.8706821E-01
          1   -1    0    0  501    0  0.00000000000E+00  0.00000000000E+00  0.21859849601E+04  0.21859849601E+04  0.00000000000E+00 0. -1.
         -1   -1    0    0    0  501 -0.00000000000E+00 -0.00000000000E+00 -0.37013883408E+03  0.37013883408E+03  0.00000000000E+00 0.  1.
         23    2    1    2    0    0  0.64969438683E+03  0.61514600943E+03  0.81361995919E+03  0.12126340478E+04  0.89423076570E+02 0.  0.
         13    1    3    3    0    0  0.41088683156E+03  0.43634777615E+03  0.57562997415E+03  0.83100976964E+03  0.00000000000E+00 0.  1.
        -13    1    3    3    0    0  0.23880755526E+03  0.17879823327E+03  0.23798998505E+03  0.38162427812E+03  0.00000000000E+00 0. -1.
         22    1    1    2    0    0 -0.64969438683E+03 -0.61514600943E+03  0.10022261668E+04  0.13434897464E+04  0.00000000000E+00 0. -1.
<mgrwt>
<rscale>  0 0.17990196E+04</rscale>
<asrwt>0</asrwt>
<pdfrwt beam="1">  1        1 0.33630537E+00 0.17990196E+04</pdfrwt>
<pdfrwt beam="2">  1       -1 0.56944437E-01 0.17990196E+04</pdfrwt>
<totfact> 0.65640184E+00</totfact>
</mgrwt>
</event>
<event>
 6    1  0.1780144E-005  0.1569801E+04  0.7818608E-02  0.8839318E-01
         -1   -1    0    0    0  501 -0.00000000000E+00  0.00000000000E+00  0.40323067041E+03  0.40323067041E+03  0.00000000000E+00 0.  1.
          1   -1    0    0  501    0  0.00000000000E+00 -0.00000000000E+00 -0.15278328794E+04  0.15278328794E+04  0.00000000000E+00 0. -1.
         23    2    1    2    0    0 -0.60466453168E+03  0.34567211077E+03 -0.10023760554E+04  0.12239230852E+04  0.90119687934E+02 0.  0.
         11    1    3    3    0    0 -0.41371509821E+03  0.27932733912E+03 -0.74205405253E+03  0.89433112534E+03  0.00000000000E+00 0.  1.
        -11    1    3    3    0    0 -0.19094943347E+03  0.66344771656E+02 -0.26032200285E+03  0.32959195991E+03  0.00000000000E+00 0. -1.
         22    1    1    2    0    0  0.60466453168E+03 -0.34567211077E+03 -0.12222615364E+03  0.70714046460E+03  0.00000000000E+00 0.  1.
<mgrwt>
<rscale>  0 0.15698014E+04</rscale>
<asrwt>0</asrwt>
<pdfrwt beam="1">  1        1 0.23505121E+00 0.15698014E+04</pdfrwt>
<pdfrwt beam="2">  1       -1 0.62035488E-01 0.15698014E+04</pdfrwt>
<totfact> 0.15863194E+01</totfact>
</mgrwt>
</event>
<event>
 6    1  0.1780144E-005  0.2000852E+04  0.7818608E-02  0.8606222E-01
         -3   -1    0    0    0  501 -0.00000000000E+00  0.00000000000E+00  0.17469014613E+04  0.17469014613E+04  0.00000000000E+00 0.  1.
          3   -1    0    0  501    0  0.00000000000E+00 -0.00000000000E+00 -0.57293002913E+03  0.57293002913E+03  0.00000000000E+00 0. -1.
         23    2    1    2    0    0 -0.68469991956E+01  0.55332131735E+03  0.15516044877E+04  0.16498926230E+04  0.91966403826E+02 0.  0.
         13    1    3    3    0    0  0.30829099886E+02  0.13889607629E+03  0.46725048336E+03  0.48843174304E+03  0.00000000000E+00 0.  1.
        -13    1    3    3    0    0 -0.37676099082E+02  0.41442524106E+03  0.10843540043E+04  0.11614608799E+04  0.00000000000E+00 0. -1.
         22    1    1    2    0    0  0.68469991956E+01 -0.55332131735E+03 -0.37763305548E+03  0.66993886752E+03  0.00000000000E+00 0. -1.
<mgrwt>
<rscale>  0 0.20008521E+04</rscale>
<asrwt>0</asrwt>
<pdfrwt beam="1">  1        3 0.88143082E-01 0.20008521E+04</pdfrwt>
<pdfrwt beam="2">  1       -3 0.26875407E+00 0.20008521E+04</pdfrwt>
<totfact> 0.16209373E-01</totfact>
</mgrwt>
</event>
<event>
 6    1  0.1780144E-005  0.2387646E+04  0.7818608E-02  0.8444143E-01
          2   -1    0    0  501    0  0.00000000000E+00  0.00000000000E+00  0.17807784879E+04  0.17807784879E+04  0.00000000000E+00 0. -1.
         -2   -1    0    0    0  501 -0.00000000000E+00 -0.00000000000E+00 -0.80033177171E+03  0.80033177171E+03  0.00000000000E+00 0.  1.
         23    2    1    2    0    0 -0.49721580161E+03  0.13732469695E+03 -0.67091871245E+03  0.85105551924E+03  0.89899679338E+02 0.  0.
         13    1    3    3    0    0 -0.20826935349E+03  0.97263190822E+02 -0.25877518123E+03  0.34612258856E+03  0.00000000000E+00 0.  1.
        -13    1    3    3    0    0 -0.28894644812E+03  0.40061506132E+02 -0.41214353122E+03  0.50493293068E+03  0.00000000000E+00 0. -1.
         22    1    1    2    0    0  0.49721580161E+03 -0.13732469695E+03  0.16513654286E+04  0.17300547404E+04  0.00000000000E+00 0. -1.
<mgrwt>
<rscale>  0 0.23876462E+04</rscale>
<asrwt>0</asrwt>
<pdfrwt beam="1">  1        2 0.27396592E+00 0.23876462E+04</pdfrwt>
<pdfrwt beam="2">  1       -2 0.12312797E+00 0.23876462E+04</pdfrwt>
<totfact> 0.39644375E+00</totfact>
</mgrwt>
</event>
<event>
 6    1  0.1780144E-005  0.4701287E+04  0.7818608E-02  0.7876315E-01
          2   -1    0    0  501    0  0.00000000000E+00  0.00000000000E+00  0.46971865353E+04  0.46971865353E+04  0.00000000000E+00 0.  1.
         -2   -1    0    0    0  501 -0.00000000000E+00 -0.00000000000E+00 -0.11763475407E+04  0.11763475407E+04  0.00000000000E+00 0. -1.
         23    2    1    2    0    0 -0.92480316951E+03 -0.21126597945E+04  0.23228418405E+04  0.32747286790E+04  0.98292399249E+02 0.  0.
         13    1    3    3    0    0 -0.29413722574E+03 -0.77035043788E+03  0.79371337109E+03  0.11445249758E+04  0.00000000000E+00 0. -1.
        -13    1    3    3    0    0 -0.63066594377E+03 -0.13423093567E+04  0.15291284694E+04  0.21302037033E+04  0.00000000000E+00 0.  1.
         22    1    1    2    0    0  0.92480316951E+03  0.21126597945E+04  0.11979971542E+04  0.25988053970E+04  0.00000000000E+00 0. -1.
<mgrwt>
<rscale>  0 0.47012866E+04</rscale>
<asrwt>0</asrwt>
<pdfrwt beam="1">  1        2 0.72264407E+00 0.47012866E+04</pdfrwt>
<pdfrwt beam="2">  1       -2 0.18097655E+00 0.47012866E+04</pdfrwt>
<totfact> 0.10166576E-02</totfact>
</mgrwt>
</event>
<event>
 6    1  0.1780144E-005  0.1720588E+04  0.7818608E-02  0.8749709E-01
         -1   -1    0    0    0  501 -0.00000000000E+00  0.00000000000E+00  0.86035948618E+03  0.86035948618E+03  0.00000000000E+00 0.  1.
          1   -1    0    0  501    0  0.00000000000E+00 -0.00000000000E+00 -0.86022848677E+03  0.86022848677E+03  0.00000000000E+00 0. -1.
         23    2    1    2    0    0 -0.79578037718E+03 -0.30293335637E+03 -0.10394155698E+03  0.86276157787E+03  0.92296619025E+02 0.  0.
         11    1    3    3    0    0 -0.57660540419E+03 -0.17586173396E+03 -0.83636789471E+02  0.60860188479E+03  0.00000000000E+00 0. -1.
        -11    1    3    3    0    0 -0.21917497299E+03 -0.12707162241E+03 -0.20304767508E+02  0.25415969308E+03  0.00000000000E+00 0.  1.
         22    1    1    2    0    0  0.79578037718E+03  0.30293335637E+03  0.10407255638E+03  0.85782639508E+03  0.00000000000E+00 0. -1.
<mgrwt>
<rscale>  0 0.17205880E+04</rscale>
<asrwt>0</asrwt>
<pdfrwt beam="1">  1        1 0.13234284E+00 0.17205880E+04</pdfrwt>
<pdfrwt beam="2">  1       -1 0.13236300E+00 0.17205880E+04</pdfrwt>
<totfact> 0.90380300E+00</totfact>
</mgrwt>
</event>
<event>
 6    1  0.1780144E-005  0.3547573E+04  0.7818608E-02  0.8102607E-01
          1   -1    0    0  501    0  0.00000000000E+00  0.00000000000E+00  0.10490205880E+04  0.10490205880E+04  0.00000000000E+00 0. -1.
         -1   -1    0    0    0  501 -0.00000000000E+00 -0.00000000000E+00 -0.29992915317E+04  0.29992915317E+04  0.00000000000E+00 0.  1.
         23    2    1    2    0    0  0.73932749962E+03  0.12403656764E+04 -0.21490064046E+04  0.25907086254E+04  0.91817709838E+02 0.  0.
         13    1    3    3    0    0  0.40103172435E+03  0.71744742213E+03 -0.12925345347E+04  0.15317319514E+04  0.00000000000E+00 0. -1.
        -13    1    3    3    0    0  0.33829577527E+03  0.52291825428E+03 -0.85647186990E+03  0.10589766740E+04  0.00000000000E+00 0.  1.
         22    1    1    2    0    0 -0.73932749962E+03 -0.12403656764E+04  0.19873546091E+03  0.14576034942E+04  0.00000000000E+00 0. -1.
<mgrwt>
<rscale>  0 0.35475730E+04</rscale>
<asrwt>0</asrwt>
<pdfrwt beam="1">  1        1 0.16138778E+00 0.35475730E+04</pdfrwt>
<pdfrwt beam="2">  1       -1 0.46142946E+00 0.35475730E+04</pdfrwt>
<totfact> 0.30395922E-02</totfact>
</mgrwt>
</event>
<event>
 6    1  0.1780144E-005  0.1830268E+04  0.7818608E-02  0.8690367E-01
         -2   -1    0    0    0  501 -0.00000000000E+00  0.00000000000E+00  0.47633186515E+03  0.47633186515E+03  0.00000000000E+00 0.  1.
          2   -1    0    0  501    0  0.00000000000E+00 -0.00000000000E+00 -0.17581651136E+04  0.17581651136E+04  0.00000000000E+00 0. -1.
         23    2    1    2    0    0  0.11834530946E+03 -0.17437671698E+03 -0.17266342389E+04  0.17422970470E+04  0.99600971532E+02 0.  0.
         11    1    3    3    0    0  0.11500742278E+03 -0.14876207917E+03 -0.11656798940E+04  0.11807482707E+04  0.00000000000E+00 0. -1.
        -11    1    3    3    0    0  0.33378866788E+01 -0.25614637813E+02 -0.56095434484E+03  0.56154877629E+03  0.00000000000E+00 0.  1.
         22    1    1    2    0    0 -0.11834530946E+03  0.17437671698E+03  0.44480099043E+03  0.49219993172E+03  0.00000000000E+00 0.  1.
<mgrwt>
<rscale>  0 0.18302678E+04</rscale>
<asrwt>0</asrwt>
<pdfrwt beam="1">  1        2 0.27048694E+00 0.18302678E+04</pdfrwt>
<pdfrwt beam="2">  1       -2 0.73281826E-01 0.18302678E+04</pdfrwt>
<totfact> 0.14408854E+01</totfact>
</mgrwt>
</event>
<event>
 6    1  0.1780144E-005  0.1929647E+04  0.7818608E-02  0.8640238E-01
          2   -1    0    0  501    0  0.00000000000E+00  0.00000000000E+00  0.15805541097E+04  0.15805541097E+04  0.00000000000E+00 0. -1.
         -2   -1    0    0    0  501 -0.00000000000E+00 -0.00000000000E+00 -0.58896091673E+03  0.58896091673E+03  0.00000000000E+00 0.  1.
         23    2    1    2    0    0 -0.31307319238E+03 -0.10840405225E+03 -0.51910116806E+03  0.62291756272E+03  0.93776355902E+02 0.  0.
         13    1    3    3    0    0 -0.22551049895E+03 -0.95847505435E+02 -0.44289712828E+03  0.50616162999E+03  0.00000000000E+00 0.  1.
        -13    1    3    3    0    0 -0.87562693423E+02 -0.12556546818E+02 -0.76204039787E+02  0.11675593273E+03  0.00000000000E+00 0. -1.
         22    1    1    2    0    0  0.31307319238E+03  0.10840405225E+03  0.15106943610E+04  0.15465974637E+04  0.00000000000E+00 0. -1.
<mgrwt>
<rscale>  0 0.19296472E+04</rscale>
<asrwt>0</asrwt>
<pdfrwt beam="1">  1        2 0.24316217E+00 0.19296472E+04</pdfrwt>
<pdfrwt beam="2">  1       -2 0.90609372E-01 0.19296472E+04</pdfrwt>
<totfact> 0.11117017E+01</totfact>
</mgrwt>
</event>
<event>
 6    1  0.1904557E-005  0.4044180E+04  0.7818608E-02  0.7995693E-01
         -2   -1    0    0    0  501 -0.00000000000E+00  0.00000000000E+00  0.21168518582E+04  0.21168518582E+04  0.00000000000E+00 0. -1.
          2   -1    0    0  501    0  0.00000000000E+00 -0.00000000000E+00 -0.19315701752E+04  0.19315701752E+04  0.00000000000E+00 0.  1.
         23    2    1    2    0    0  0.28809144326E+03 -0.15723617524E+04  0.13303485609E+04  0.20820811894E+04  0.99582255012E+02 0.  0.
         13    1    3    3    0    0  0.15897676007E+03 -0.64383425856E+03  0.58761079038E+03  0.88604887207E+03  0.00000000000E+00 0. -1.
        -13    1    3    3    0    0  0.12911468319E+03 -0.92852749383E+03  0.74273777053E+03  0.11960323173E+04  0.00000000000E+00 0.  1.
         22    1    1    2    0    0 -0.28809144326E+03  0.15723617524E+04 -0.11450668778E+04  0.19663408440E+04  0.00000000000E+00 0.  1.
<mgrwt>
<rscale>  0 0.40441800E+04</rscale>
<asrwt>0</asrwt>
<pdfrwt beam="1">  1        2 0.29716464E+00 0.40441800E+04</pdfrwt>
<pdfrwt beam="2">  1       -2 0.32566952E+00 0.40441800E+04</pdfrwt>
<totfact> 0.12659833E-01</totfact>
</mgrwt>
</event>
<event>
 6    1  0.1780144E-005  0.2564955E+04  0.7818608E-02  0.8380204E-01
         -2   -1    0    0    0  501 -0.00000000000E+00  0.00000000000E+00  0.10005661119E+04  0.10005661119E+04  0.00000000000E+00 0.  1.
          2   -1    0    0  501    0  0.00000000000E+00 -0.00000000000E+00 -0.16438176946E+04  0.16438176946E+04  0.00000000000E+00 0. -1.
         23    2    1    2    0    0  0.65366478350E+03  0.10977107259E+04 -0.41709043841E+03  0.13469265432E+04  0.89443791991E+02 0.  0.
         11    1    3    3    0    0  0.45214301778E+03  0.80565205150E+03 -0.33500179022E+03  0.98271803487E+03  0.00000000000E+00 0.  1.
        -11    1    3    3    0    0  0.20152176572E+03  0.29205867441E+03 -0.82088648195E+02  0.36420850830E+03  0.00000000000E+00 0. -1.
         22    1    1    2    0    0 -0.65366478350E+03 -0.10977107259E+04 -0.22616114423E+03  0.12974572633E+04  0.00000000000E+00 0. -1.
<mgrwt>
<rscale>  0 0.25649548E+04</rscale>
<asrwt>0</asrwt>
<pdfrwt beam="1">  1        2 0.25289503E+00 0.25649548E+04</pdfrwt>
<pdfrwt beam="2">  1       -2 0.15393325E+00 0.25649548E+04</pdfrwt>
<totfact> 0.26153030E+00</totfact>
</mgrwt>
</event>
<event>
 6    1  0.1780144E-005  0.2818386E+04  0.7818608E-02  0.8297583E-01
         -1   -1    0    0    0  501 -0.00000000000E+00  0.00000000000E+00  0.10811583702E+04  0.10811583702E+04  0.00000000000E+00 0.  1.
          1   -1    0    0  501    0  0.00000000000E+00 -0.00000000000E+00 -0.18367564318E+04  0.18367564318E+04  0.00000000000E+00 0. -1.
         23    2    1    2    0    0 -0.57892878965E+03 -0.37453091314E+03 -0.16488301902E+04  0.17895108034E+04  0.90972363538E+02 0.  0.
         13    1    3    3    0    0 -0.33224391689E+03 -0.16485741319E+03 -0.83633300558E+03  0.91488626791E+03  0.00000000000E+00 0.  1.
        -13    1    3    3    0    0 -0.24668487276E+03 -0.20967349996E+03 -0.81249718465E+03  0.87462453550E+03  0.00000000000E+00 0. -1.
         22    1    1    2    0    0  0.57892878965E+03  0.37453091314E+03  0.89323212869E+03  0.11284039986E+04  0.00000000000E+00 0.  1.
<mgrwt>
<rscale>  0 0.28183858E+04</rscale>
<asrwt>0</asrwt>
<pdfrwt beam="1">  1        1 0.28257791E+00 0.28183858E+04</pdfrwt>
<pdfrwt beam="2">  1       -1 0.16633206E+00 0.28183858E+04</pdfrwt>
<totfact> 0.87080139E-01</totfact>
</mgrwt>
</event>
<event>
 6    1  0.1780144E-005  0.3463525E+04  0.7818608E-02  0.8122489E-01
          2   -1    0    0  501    0  0.00000000000E+00  0.00000000000E+00  0.33308510328E+04  0.33308510328E+04  0.00000000000E+00 0.  1.
         -2   -1    0    0    0  501 -0.00000000000E+00 -0.00000000000E+00 -0.90037079283E+03  0.90037079283E+03  0.00000000000E+00 0. -1.
         23    2    1    2    0    0 -0.13447524193E+04  0.10672355377E+04  0.14813955188E+04  0.22695611592E+04  0.94996895350E+02 0.  0.
         13    1    3    3    0    0 -0.38853005927E+03  0.35370943292E+03  0.48694626990E+03  0.71636767072E+03  0.00000000000E+00 0. -1.
        -13    1    3    3    0    0 -0.95622236007E+03  0.71352610476E+03  0.99444924892E+03  0.15531934885E+04  0.00000000000E+00 0.  1.
         22    1    1    2    0    0  0.13447524193E+04 -0.10672355377E+04  0.94908472120E+03  0.19616606664E+04  0.00000000000E+00 0.  1.
<mgrwt>
<rscale>  0 0.34635248E+04</rscale>
<asrwt>0</asrwt>
<pdfrwt beam="1">  1        2 0.51243861E+00 0.34635248E+04</pdfrwt>
<pdfrwt beam="2">  1       -2 0.13851859E+00 0.34635248E+04</pdfrwt>
<totfact> 0.32277895E-01</totfact>
</mgrwt>
</event>
<event>
 6    1  0.1780144E-005  0.3520845E+04  0.7818608E-02  0.8108868E-01
          2   -1    0    0  501    0  0.00000000000E+00  0.00000000000E+00  0.32703708052E+04  0.32703708052E+04  0.00000000000E+00 0. -1.
         -2   -1    0    0    0  501 -0.00000000000E+00 -0.00000000000E+00 -0.94762573223E+03  0.94762573223E+03  0.00000000000E+00 0.  1.
         23    2    1    2    0    0 -0.15058477707E+04  0.49102525548E+03  0.24498286030E+03  0.16053773301E+04  0.92392966169E+02 0.  0.
         11    1    3    3    0    0 -0.16729919331E+03  0.43164127825E+02  0.54059967798E+02  0.18103768152E+03  0.00000000000E+00 0.  1.
        -11    1    3    3    0    0 -0.13385485774E+04  0.44786112766E+03  0.19092289250E+03  0.14243396486E+04  0.00000000000E+00 0. -1.
         22    1    1    2    0    0  0.15058477707E+04 -0.49102525548E+03  0.20777622127E+04  0.26126192073E+04  0.00000000000E+00 0. -1.
<mgrwt>
<rscale>  0 0.35208451E+04</rscale>
<asrwt>0</asrwt>
<pdfrwt beam="1">  1        2 0.50313396E+00 0.35208451E+04</pdfrwt>
<pdfrwt beam="2">  1       -2 0.14578858E+00 0.35208451E+04</pdfrwt>
<totfact> 0.30850960E-01</totfact>
</mgrwt>
</event>
<event>
 6    1  0.1780144E-005  0.9115882E+03  0.7818608E-02  0.9411210E-01
          2   -1    0    0  501    0  0.00000000000E+00  0.00000000000E+00  0.40585858057E+04  0.40585858057E+04  0.00000000000E+00 0. -1.
         -2   -1    0    0    0  501 -0.00000000000E+00 -0.00000000000E+00 -0.51187355981E+02  0.51187355981E+02  0.00000000000E+00 0.  1.
         23    2    1    2    0    0 -0.40758417396E+03 -0.24813510835E+02  0.28890073840E+04  0.29191686324E+04  0.91876387649E+02 0.  0.
         13    1    3    3    0    0 -0.25126621091E+03  0.24167210013E+02  0.15989969511E+04  0.16187989413E+04  0.00000000000E+00 0. -1.
        -13    1    3    3    0    0 -0.15631796304E+03 -0.48980720848E+02  0.12900104329E+04  0.13003696911E+04  0.00000000000E+00 0.  1.
         22    1    1    2    0    0  0.40758417396E+03  0.24813510835E+02  0.11183910657E+04  0.11906045292E+04  0.00000000000E+00 0. -1.
<mgrwt>
<rscale>  0 0.91158823E+03</rscale>
<asrwt>0</asrwt>
<pdfrwt beam="1">  1        2 0.62439756E+00 0.91158823E+03</pdfrwt>
<pdfrwt beam="2">  1       -2 0.78749810E-02 0.91158823E+03</pdfrwt>
<totfact> 0.33289372E+01</totfact>
</mgrwt>
</event>
<event>
 6    1  0.2137053E-005  0.2784565E+04  0.7818608E-02  0.8308076E-01
          1   -1    0    0  501    0  0.00000000000E+00  0.00000000000E+00  0.24451392027E+04  0.24451392027E+04  0.00000000000E+00 0. -1.
         -1   -1    0    0    0  501 -0.00000000000E+00 -0.00000000000E+00 -0.79277724404E+03  0.79277724404E+03  0.00000000000E+00 0.  1.
         23    2    1    2    0    0  0.32026466276E+03 -0.81790881495E+01  0.24009098087E+04  0.24236927457E+04  0.85336184448E+02 0.  0.
         11    1    3    3    0    0  0.66405445912E+02  0.10461552165E+02  0.78317610953E+03  0.78605594321E+03  0.00000000000E+00 0.  1.
        -11    1    3    3    0    0  0.25385921684E+03 -0.18640640314E+02  0.16177336992E+04  0.16376368025E+04  0.00000000000E+00 0. -1.
         22    1    1    2    0    0 -0.32026466276E+03  0.81790881495E+01 -0.74854784999E+03  0.81422370109E+03  0.00000000000E+00 0.  1.
<mgrwt>
<rscale>  0 0.27845651E+04</rscale>
<asrwt>0</asrwt>
<pdfrwt beam="1">  1        1 0.37617526E+00 0.27845651E+04</pdfrwt>
<pdfrwt beam="2">  1       -1 0.12196573E+00 0.27845651E+04</pdfrwt>
<totfact> 0.76212622E-01</totfact>
</mgrwt>
</event>
<event>
 6    1  0.1780144E-005  0.2177768E+04  0.7818608E-02  0.8527739E-01
          2   -1    0    0  501    0  0.00000000000E+00  0.00000000000E+00  0.13001536772E+04  0.13001536772E+04  0.00000000000E+00 0.  1.
         -2   -1    0    0    0  501 -0.00000000000E+00 -0.00000000000E+00 -0.91194455570E+03  0.91194455570E+03  0.00000000000E+00 0. -1.
         23    2    1    2    0    0  0.14843581906E+03  0.10755802510E+04  0.24990478379E+03  0.11175507654E+04  0.86955410579E+02 0.  0.
         11    1    3    3    0    0  0.94622164841E+02  0.83263978863E+03  0.22371571588E+03  0.86734715842E+03  0.00000000000E+00 0. -1.
        -11    1    3    3    0    0  0.53813654217E+02  0.24294046241E+03  0.26189067907E+02  0.25020360696E+03  0.00000000000E+00 0.  1.
         22    1    1    2    0    0 -0.14843581906E+03 -0.10755802510E+04  0.13830433771E+03  0.10945474675E+04  0.00000000000E+00 0. -1.
<mgrwt>
<rscale>  0 0.21777677E+04</rscale>
<asrwt>0</asrwt>
<pdfrwt beam="1">  1        2 0.20002364E+00 0.21777677E+04</pdfrwt>
<pdfrwt beam="2">  1       -2 0.14029916E+00 0.21777677E+04</pdfrwt>
<totfact> 0.54065709E+00</totfact>
</mgrwt>
</event>
<event>
 6    1  0.1780144E-005  0.1784834E+04  0.7818608E-02  0.8714406E-01
          2   -1    0    0  501    0  0.00000000000E+00  0.00000000000E+00  0.85713843400E+03  0.85713843400E+03  0.00000000000E+00 0. -1.
         -2   -1    0    0    0  501 -0.00000000000E+00 -0.00000000000E+00 -0.92914773748E+03  0.92914773748E+03  0.00000000000E+00 0.  1.
         23    2    1    2    0    0 -0.33574933293E+03 -0.57970013237E+03  0.55040573475E+03  0.87185720331E+03  0.91698702779E+02 0.  0.
         11    1    3    3    0    0 -0.21493083534E+03 -0.29051335230E+03  0.26702173090E+03  0.44932602486E+03  0.00000000000E+00 0.  1.
        -11    1    3    3    0    0 -0.12081849759E+03 -0.28918678007E+03  0.28338400385E+03  0.42253117845E+03  0.00000000000E+00 0. -1.
         22    1    1    2    0    0  0.33574933293E+03  0.57970013237E+03 -0.62241503822E+03  0.91442896817E+03  0.00000000000E+00 0.  1.
<mgrwt>
<rscale>  0 0.17848342E+04</rscale>
<asrwt>0</asrwt>
<pdfrwt beam="1">  1        2 0.13186745E+00 0.17848342E+04</pdfrwt>
<pdfrwt beam="2">  1       -2 0.14294581E+00 0.17848342E+04</pdfrwt>
<totfact> 0.10086187E+01</totfact>
</mgrwt>
</event>
<event>
 6    1  0.1780144E-005  0.1866145E+04  0.7818608E-02  0.8671894E-01
          1   -1    0    0  501    0  0.00000000000E+00  0.00000000000E+00  0.14460002786E+04  0.14460002786E+04  0.00000000000E+00 0. -1.
         -1   -1    0    0    0  501 -0.00000000000E+00 -0.00000000000E+00 -0.60209163306E+03  0.60209163306E+03  0.00000000000E+00 0.  1.
         23    2    1    2    0    0 -0.82473884705E+03  0.42813518715E+03  0.36254543657E+03  0.10015717526E+04  0.90624929104E+02 0.  0.
         11    1    3    3    0    0 -0.54854165594E+03  0.32242156553E+03  0.21969623854E+03  0.67314192519E+03  0.00000000000E+00 0.  1.
        -11    1    3    3    0    0 -0.27619719111E+03  0.10571362162E+03  0.14284919803E+03  0.32842982744E+03  0.00000000000E+00 0. -1.
         22    1    1    2    0    0  0.82473884705E+03 -0.42813518715E+03  0.48136320897E+03  0.10465201590E+04  0.00000000000E+00 0.  1.
<mgrwt>
<rscale>  0 0.18661454E+04</rscale>
<asrwt>0</asrwt>
<pdfrwt beam="1">  1        1 0.22246158E+00 0.18661454E+04</pdfrwt>
<pdfrwt beam="2">  1       -1 0.92629483E-01 0.18661454E+04</pdfrwt>
<totfact> 0.75839528E+00</totfact>
</mgrwt>
</event>
<event>
 6    1  0.1780144E-005  0.1980807E+04  0.7818608E-02  0.8615647E-01
         -2   -1    0    0    0  501 -0.00000000000E+00  0.00000000000E+00  0.69266369042E+03  0.69266369042E+03  0.00000000000E+00 0.  1.
          2   -1    0    0  501    0  0.00000000000E+00 -0.00000000000E+00 -0.14161264039E+04  0.14161264039E+04  0.00000000000E+00 0. -1.
         23    2    1    2    0    0  0.46396529971E+03  0.66627250892E+03 -0.96242166911E+03  0.12624543230E+04  0.91392521192E+02 0.  0.
         11    1    3    3    0    0  0.38345198117E+03  0.49501961952E+03 -0.77171776954E+03  0.99379482862E+03  0.00000000000E+00 0.  1.
        -11    1    3    3    0    0  0.80513318539E+02  0.17125288941E+03 -0.19070389957E+03  0.26865949435E+03  0.00000000000E+00 0. -1.
         22    1    1    2    0    0 -0.46396529971E+03 -0.66627250892E+03  0.23895895559E+03  0.84633577139E+03  0.00000000000E+00 0.  1.
<mgrwt>
<rscale>  0 0.19808073E+04</rscale>
<asrwt>0</asrwt>
<pdfrwt beam="1">  1        2 0.21786560E+00 0.19808073E+04</pdfrwt>
<pdfrwt beam="2">  1       -2 0.10656364E+00 0.19808073E+04</pdfrwt>
<totfact> 0.93525781E+00</totfact>
</mgrwt>
</event>
<event>
 6    1  0.1780144E-005  0.3024142E+04  0.7818608E-02  0.8236871E-01
         -1   -1    0    0    0  501 -0.00000000000E+00  0.00000000000E+00  0.11139705122E+04  0.11139705122E+04  0.00000000000E+00 0.  1.
          1   -1    0    0  501    0  0.00000000000E+00 -0.00000000000E+00 -0.20524404873E+04  0.20524404873E+04  0.00000000000E+00 0. -1.
         23    2    1    2    0    0  0.22177452882E+03  0.44314778215E+03 -0.19637803912E+04  0.20276286025E+04  0.96334970382E+02 0.  0.
         13    1    3    3    0    0  0.56699708435E+02  0.21802158571E+03 -0.91652571797E+03  0.94380488475E+03  0.00000000000E+00 0.  1.
        -13    1    3    3    0    0  0.16507482038E+03  0.22512619645E+03 -0.10472546732E+04  0.10838237178E+04  0.00000000000E+00 0. -1.
         22    1    1    2    0    0 -0.22177452882E+03 -0.44314778215E+03  0.10253104160E+04  0.11387823970E+04  0.00000000000E+00 0.  1.
<mgrwt>
<rscale>  0 0.30241417E+04</rscale>
<asrwt>0</asrwt>
<pdfrwt beam="1">  1        1 0.31576008E+00 0.30241417E+04</pdfrwt>
<pdfrwt beam="2">  1       -1 0.17138008E+00 0.30241417E+04</pdfrwt>
<totfact> 0.56047931E-01</totfact>
</mgrwt>
</event>
<event>
 6    1  0.1780144E-005  0.1991786E+04  0.7818608E-02  0.8610471E-01
         -2   -1    0    0    0  501 -0.00000000000E+00  0.00000000000E+00  0.47339902624E+03  0.47339902624E+03  0.00000000000E+00 0.  1.
          2   -1    0    0  501    0  0.00000000000E+00 -0.00000000000E+00 -0.20950669126E+04  0.20950669126E+04  0.00000000000E+00 0. -1.
         23    2    1    2    0    0  0.76387456833E-01 -0.68128064849E+03  0.12028412079E+03  0.69802745466E+03  0.92901721766E+02 0.  0.
         13    1    3    3    0    0 -0.26453297758E+02 -0.56503118457E+03  0.12252563849E+03  0.57876813025E+03  0.00000000000E+00 0.  1.
        -13    1    3    3    0    0  0.26529685215E+02 -0.11624946392E+03 -0.22415177004E+01  0.11925932442E+03  0.00000000000E+00 0. -1.
         22    1    1    2    0    0 -0.76387456833E-01  0.68128064849E+03 -0.17419520071E+04  0.18704384841E+04  0.00000000000E+00 0. -1.
<mgrwt>
<rscale>  0 0.19917858E+04</rscale>
<asrwt>0</asrwt>
<pdfrwt beam="1">  1        2 0.32231798E+00 0.19917858E+04</pdfrwt>
<pdfrwt beam="2">  1       -2 0.72830620E-01 0.19917858E+04</pdfrwt>
<totfact> 0.93669245E+00</totfact>
</mgrwt>
</event>
<event>
 6    1  0.1780144E-005  0.2765667E+04  0.7818608E-02  0.8314007E-01
          1   -1    0    0  501    0  0.00000000000E+00  0.00000000000E+00  0.13151867244E+04  0.13151867244E+04  0.00000000000E+00 0. -1.
         -1   -1    0    0    0  501 -0.00000000000E+00 -0.00000000000E+00 -0.14539597848E+04  0.14539597848E+04  0.00000000000E+00 0.  1.
         23    2    1    2    0    0 -0.11873610628E+04 -0.65548069903E+03  0.19333556791E+03  0.13728022175E+04  0.87897930844E+02 0.  0.
         13    1    3    3    0    0 -0.48516485303E+03 -0.24318396149E+03  0.11502002971E+03  0.55475488369E+03  0.00000000000E+00 0.  1.
        -13    1    3    3    0    0 -0.70219620974E+03 -0.41229673754E+03  0.78315538205E+02  0.81804733377E+03  0.00000000000E+00 0. -1.
         22    1    1    2    0    0  0.11873610628E+04  0.65548069903E+03 -0.33210862825E+03  0.13963442918E+04  0.00000000000E+00 0.  1.
<mgrwt>
<rscale>  0 0.27656671E+04</rscale>
<asrwt>0</asrwt>
<pdfrwt beam="1">  1        1 0.20233642E+00 0.27656671E+04</pdfrwt>
<pdfrwt beam="2">  1       -1 0.22368612E+00 0.27656671E+04</pdfrwt>
<totfact> 0.79648983E-01</totfact>
</mgrwt>
</event>
<event>
 6    1  0.1780144E-005  0.1138172E+04  0.7818608E-02  0.9168765E-01
          2   -1    0    0  501    0  0.00000000000E+00  0.00000000000E+00  0.46094230632E+03  0.46094230632E+03  0.00000000000E+00 0. -1.
         -2   -1    0    0    0  501 -0.00000000000E+00 -0.00000000000E+00 -0.70260161216E+03  0.70260161216E+03  0.00000000000E+00 0.  1.
         23    2    1    2    0    0  0.52196911037E+03  0.94627632873E+02  0.78383655511E+02  0.54400083022E+03  0.91579281188E+02 0.  0.
         13    1    3    3    0    0  0.13101132386E+03 -0.14254204598E+02  0.73034476088E+01  0.13198670265E+03  0.00000000000E+00 0. -1.
        -13    1    3    3    0    0  0.39095778651E+03  0.10888183747E+03  0.71080207902E+02  0.41201412758E+03  0.00000000000E+00 0.  1.
         22    1    1    2    0    0 -0.52196911037E+03 -0.94627632873E+02 -0.32004296135E+03  0.61954308825E+03  0.00000000000E+00 0.  1.
<mgrwt>
<rscale>  0 0.11381719E+04</rscale>
<asrwt>0</asrwt>
<pdfrwt beam="1">  1        2 0.70914201E-01 0.11381719E+04</pdfrwt>
<pdfrwt beam="2">  1       -2 0.10809256E+00 0.11381719E+04</pdfrwt>
<totfact> 0.45938325E+01</totfact>
</mgrwt>
</event>
<event>
 6    1  0.1780144E-005  0.2754151E+04  0.7818608E-02  0.8317646E-01
         -1   -1    0    0    0  501 -0.00000000000E+00  0.00000000000E+00  0.63355601248E+03  0.63355601248E+03  0.00000000000E+00 0.  1.
          1   -1    0    0  501    0  0.00000000000E+00 -0.00000000000E+00 -0.29931635831E+04  0.29931635831E+04  0.00000000000E+00 0. -1.
         23    2    1    2    0    0 -0.10581967727E+04 -0.11261184248E+03 -0.33405928052E+02  0.10686586271E+04  0.91942744938E+02 0.  0.
         13    1    3    3    0    0 -0.57844117075E+03 -0.87873590878E+02 -0.55880300236E+02  0.58774021808E+03  0.00000000000E+00 0.  1.
        -13    1    3    3    0    0 -0.47975560194E+03 -0.24738251603E+02  0.22474372185E+02  0.48091840897E+03  0.00000000000E+00 0. -1.
         22    1    1    2    0    0  0.10581967727E+04  0.11261184248E+03 -0.23262016425E+04  0.25580609685E+04  0.00000000000E+00 0. -1.
<mgrwt>
<rscale>  0 0.27541509E+04</rscale>
<asrwt>0</asrwt>
<pdfrwt beam="1">  1        1 0.46048670E+00 0.27541509E+04</pdfrwt>
<pdfrwt beam="2">  1       -1 0.97470157E-01 0.27541509E+04</pdfrwt>
<totfact> 0.53071909E-01</totfact>
</mgrwt>
</event>
<event>
 6    1  0.1780144E-005  0.4077265E+04  0.7818608E-02  0.7989139E-01
         -2   -1    0    0    0  501 -0.00000000000E+00  0.00000000000E+00  0.14283798554E+04  0.14283798554E+04  0.00000000000E+00 0.  1.
          2   -1    0    0  501    0  0.00000000000E+00 -0.00000000000E+00 -0.29096065436E+04  0.29096065436E+04  0.00000000000E+00 0. -1.
         23    2    1    2    0    0 -0.14891462812E+04  0.12591237705E+04 -0.13693725566E+04  0.23846659790E+04  0.92202584087E+02 0.  0.
         11    1    3    3    0    0 -0.69730384665E+03  0.57184738764E+03 -0.68694445306E+03  0.11336378482E+04  0.00000000000E+00 0. -1.
        -11    1    3    3    0    0 -0.79184243454E+03  0.68727638291E+03 -0.68242810350E+03  0.12510281308E+04  0.00000000000E+00 0.  1.
         22    1    1    2    0    0  0.14891462812E+04 -0.12591237705E+04 -0.11185413161E+03  0.19533204200E+04  0.00000000000E+00 0.  1.
<mgrwt>
<rscale>  0 0.40772654E+04</rscale>
<asrwt>0</asrwt>
<pdfrwt beam="1">  1        2 0.44763177E+00 0.40772654E+04</pdfrwt>
<pdfrwt beam="2">  1       -2 0.21975075E+00 0.40772654E+04</pdfrwt>
<totfact> 0.15405800E-01</totfact>
</mgrwt>
</event>
<event>
 6    1  0.1780144E-005  0.2824449E+04  0.7818608E-02  0.8295718E-01
         -2   -1    0    0    0  501 -0.00000000000E+00  0.00000000000E+00  0.97600503490E+03  0.97600503490E+03  0.00000000000E+00 0.  1.
          2   -1    0    0  501    0  0.00000000000E+00 -0.00000000000E+00 -0.20434101176E+04  0.20434101176E+04  0.00000000000E+00 0. -1.
         23    2    1    2    0    0 -0.10414391068E+04 -0.40961161676E+03  0.38282412284E+03  0.11876013415E+04  0.10707729683E+03 0.  0.
         13    1    3    3    0    0 -0.62170008689E+03 -0.24451576509E+03  0.17270013320E+03  0.69001760370E+03  0.00000000000E+00 0.  1.
        -13    1    3    3    0    0 -0.41973901989E+03 -0.16509585167E+03  0.21012398964E+03  0.49758373776E+03  0.00000000000E+00 0. -1.
         22    1    1    2    0    0  0.10414391068E+04  0.40961161676E+03 -0.14502292056E+04  0.18318138111E+04  0.00000000000E+00 0. -1.
<mgrwt>
<rscale>  0 0.28244494E+04</rscale>
<asrwt>0</asrwt>
<pdfrwt beam="1">  1        2 0.31437078E+00 0.28244494E+04</pdfrwt>
<pdfrwt beam="2">  1       -2 0.15015462E+00 0.28244494E+04</pdfrwt>
<totfact> 0.16398454E+00</totfact>
</mgrwt>
</event>
<event>
 6    1  0.1780144E-005  0.5718978E+04  0.7818608E-02  0.7726256E-01
          2   -1    0    0  501    0  0.00000000000E+00  0.00000000000E+00  0.37897391675E+04  0.37897391675E+04  0.00000000000E+00 0. -1.
         -2   -1    0    0    0  501 -0.00000000000E+00 -0.00000000000E+00 -0.21575830948E+04  0.21575830948E+04  0.00000000000E+00 0.  1.
         23    2    1    2    0    0 -0.23492929191E+04  0.15578269275E+04  0.13106305361E+04  0.31101792229E+04  0.97264797450E+02 0.  0.
         11    1    3    3    0    0 -0.18039369450E+04  0.11462227407E+04  0.99424843836E+03  0.23572324938E+04  0.00000000000E+00 0. -1.
        -11    1    3    3    0    0 -0.54535597409E+03  0.41160418681E+03  0.31638209777E+03  0.75294672910E+03  0.00000000000E+00 0.  1.
         22    1    1    2    0    0  0.23492929191E+04 -0.15578269275E+04  0.32152553658E+03  0.28371430394E+04  0.00000000000E+00 0. -1.
<mgrwt>
<rscale>  0 0.57189779E+04</rscale>
<asrwt>0</asrwt>
<pdfrwt beam="1">  1        2 0.58303679E+00 0.57189779E+04</pdfrwt>
<pdfrwt beam="2">  1       -2 0.33193586E+00 0.57189779E+04</pdfrwt>
<totfact> 0.69189692E-03</totfact>
</mgrwt>
</event>
<event>
 6    1  0.1780144E-005  0.5565974E+03  0.7818608E-02  0.9999783E-01
         -2   -1    0    0    0  501 -0.00000000000E+00  0.00000000000E+00  0.30270051251E+02  0.30270051251E+02  0.00000000000E+00 0.  1.
          2   -1    0    0  501    0  0.00000000000E+00 -0.00000000000E+00 -0.25586399360E+04  0.25586399360E+04  0.00000000000E+00 0. -1.
         23    2    1    2    0    0 -0.12854383098E+03  0.23362284883E+03 -0.15205857161E+04  0.15464455597E+04  0.90607932092E+02 0.  0.
         11    1    3    3    0    0  0.12171213643E+02  0.80796399700E+01 -0.52973707940E+02  0.54951185214E+02  0.00000000000E+00 0. -1.
        -11    1    3    3    0    0 -0.14071504463E+03  0.22554320886E+03 -0.14676120081E+04  0.14914943745E+04  0.00000000000E+00 0.  1.
         22    1    1    2    0    0  0.12854383098E+03 -0.23362284883E+03 -0.10077841687E+04  0.10424644275E+04  0.00000000000E+00 0.  1.
<mgrwt>
<rscale>  0 0.55659738E+03</rscale>
<asrwt>0</asrwt>
<pdfrwt beam="1">  1        2 0.39363696E+00 0.55659738E+03</pdfrwt>
<pdfrwt beam="2">  1       -2 0.46569304E-02 0.55659738E+03</pdfrwt>
<totfact> 0.78411484E+02</totfact>
</mgrwt>
</event>
<event>
 6    1  0.1780144E-005  0.3007520E+04  0.7818608E-02  0.8241587E-01
          2   -1    0    0  501    0  0.00000000000E+00  0.00000000000E+00  0.13710560582E+04  0.13710560582E+04  0.00000000000E+00 0. -1.
         -2   -1    0    0    0  501 -0.00000000000E+00 -0.00000000000E+00 -0.16493078416E+04  0.16493078416E+04  0.00000000000E+00 0.  1.
         23    2    1    2    0    0 -0.12187487026E+04  0.72896640475E+03  0.35310373606E+03  0.14662241985E+04  0.91600941139E+02 0.  0.
         13    1    3    3    0    0 -0.79372724986E+03  0.51308892838E+03  0.26352449055E+03  0.98117702415E+03  0.00000000000E+00 0.  1.
        -13    1    3    3    0    0 -0.42502145273E+03  0.21587747638E+03  0.89579245507E+02  0.48504717432E+03  0.00000000000E+00 0. -1.
         22    1    1    2    0    0  0.12187487026E+04 -0.72896640475E+03 -0.63135551951E+03  0.15541397014E+04  0.00000000000E+00 0. -1.
<mgrwt>
<rscale>  0 0.30075196E+04</rscale>
<asrwt>0</asrwt>
<pdfrwt beam="1">  1        2 0.21093170E+00 0.30075196E+04</pdfrwt>
<pdfrwt beam="2">  1       -2 0.25373967E+00 0.30075196E+04</pdfrwt>
<totfact> 0.78395529E-01</totfact>
</mgrwt>
</event>
<event>
 6    1  0.1780144E-005  0.1006127E+04  0.7818608E-02  0.9301850E-01
          2   -1    0    0  501    0  0.00000000000E+00  0.00000000000E+00  0.62003688108E+03  0.62003688108E+03  0.00000000000E+00 0. -1.
         -2   -1    0    0    0  501 -0.00000000000E+00 -0.00000000000E+00 -0.40815818609E+03  0.40815818609E+03  0.00000000000E+00 0.  1.
         23    2    1    2    0    0  0.45565839238E+03 -0.12996536634E+03 -0.53129549320E+02  0.48529089833E+03  0.90382188489E+02 0.  0.
         13    1    3    3    0    0  0.36517699756E+03 -0.14045443211E+03 -0.45210483332E+02  0.39385996858E+03  0.00000000000E+00 0. -1.
        -13    1    3    3    0    0  0.90481394819E+02  0.10489065763E+02 -0.79190659875E+01  0.91430929751E+02  0.00000000000E+00 0.  1.
         22    1    1    2    0    0 -0.45565839238E+03  0.12996536634E+03  0.26500824431E+03  0.54290416884E+03  0.00000000000E+00 0.  1.
<mgrwt>
<rscale>  0 0.10061275E+04</rscale>
<asrwt>0</asrwt>
<pdfrwt beam="1">  1        2 0.95390289E-01 0.10061275E+04</pdfrwt>
<pdfrwt beam="2">  1       -2 0.62793567E-01 0.10061275E+04</pdfrwt>
<totfact> 0.11188636E+02</totfact>
</mgrwt>
</event>
<event>
 6    1  0.1780144E-005  0.4549654E+03  0.7818608E-02  0.1026252E+00
         -2   -1    0    0    0  501 -0.00000000000E+00  0.00000000000E+00  0.11213680786E+03  0.11213680786E+03  0.00000000000E+00 0.  1.
          2   -1    0    0  501    0  0.00000000000E+00 -0.00000000000E+00 -0.46147534106E+03  0.46147534106E+03  0.00000000000E+00 0. -1.
         23    2    1    2    0    0  0.71386892847E+02 -0.20543441326E+03 -0.19897368283E+03  0.30920909514E+03  0.93382821943E+02 0.  0.
         11    1    3    3    0    0  0.74188767253E+02 -0.72934675761E+02 -0.82634033546E+02  0.13286016564E+03  0.00000000000E+00 0.  1.
        -11    1    3    3    0    0 -0.28018744055E+01 -0.13249973750E+03 -0.11633964929E+03  0.17634892949E+03  0.00000000000E+00 0. -1.
         22    1    1    2    0    0 -0.71386892847E+02  0.20543441326E+03 -0.15036485036E+03  0.26440305378E+03  0.00000000000E+00 0. -1.
<mgrwt>
<rscale>  0 0.45496537E+03</rscale>
<asrwt>0</asrwt>
<pdfrwt beam="1">  1        2 0.70996207E-01 0.45496537E+03</pdfrwt>
<pdfrwt beam="2">  1       -2 0.17251817E-01 0.45496537E+03</pdfrwt>
<totfact> 0.18552504E+03</totfact>
</mgrwt>
</event>
<event>
 6    1  0.1780144E-005  0.4553511E+03  0.7818608E-02  0.1026138E+00
         -4   -1    0    0    0  501 -0.00000000000E+00  0.00000000000E+00  0.15288636488E+03  0.15288636488E+03  0.00000000000E+00 0.  1.
          4   -1    0    0  501    0  0.00000000000E+00 -0.00000000000E+00 -0.33905022155E+03  0.33905022155E+03  0.00000000000E+00 0. -1.
         23    2    1    2    0    0 -0.21221953888E+03 -0.52575084953E+02 -0.83834633506E+02  0.25053952317E+03  0.89109677667E+02 0.  0.
         11    1    3    3    0    0 -0.14929782109E+03 -0.56843200770E+01 -0.85323797243E+02  0.17205319309E+03  0.00000000000E+00 0. -1.
        -11    1    3    3    0    0 -0.62921717792E+02 -0.46890764876E+02  0.14891637370E+01  0.78486330078E+02  0.00000000000E+00 0.  1.
         22    1    1    2    0    0  0.21221953888E+03  0.52575084953E+02 -0.10232922316E+03  0.24139706326E+03  0.00000000000E+00 0.  1.
<mgrwt>
<rscale>  0 0.45535110E+03</rscale>
<asrwt>0</asrwt>
<pdfrwt beam="1">  1        4 0.52161572E-01 0.45535110E+03</pdfrwt>
<pdfrwt beam="2">  1       -4 0.23520979E-01 0.45535110E+03</pdfrwt>
<totfact> 0.11649280E+02</totfact>
</mgrwt>
</event>
<event>
 6    1  0.1780144E-005  0.1693004E+04  0.7818608E-02  0.8765364E-01
         -2   -1    0    0    0  501 -0.00000000000E+00  0.00000000000E+00  0.20614985707E+04  0.20614985707E+04  0.00000000000E+00 0. -1.
          2   -1    0    0  501    0  0.00000000000E+00 -0.00000000000E+00 -0.34759454339E+03  0.34759454339E+03  0.00000000000E+00 0.  1.
         23    2    1    2    0    0 -0.54201025446E+03 -0.34979292412E+03  0.16339427519E+04  0.17590746441E+04  0.91893859450E+02 0.  0.
         11    1    3    3    0    0 -0.22917901543E+03 -0.16419551218E+03  0.83269880035E+03  0.87913052469E+03  0.00000000000E+00 0.  1.
        -11    1    3    3    0    0 -0.31283123903E+03 -0.18559741194E+03  0.80124395154E+03  0.87994411943E+03  0.00000000000E+00 0. -1.
         22    1    1    2    0    0  0.54201025446E+03  0.34979292412E+03  0.79961275383E+02  0.65001846994E+03  0.00000000000E+00 0.  1.
<mgrwt>
<rscale>  0 0.16930040E+04</rscale>
<asrwt>0</asrwt>
<pdfrwt beam="1">  1        2 0.53476085E-01 0.16930040E+04</pdfrwt>
<pdfrwt beam="2">  1       -2 0.31715362E+00 0.16930040E+04</pdfrwt>
<totfact> 0.22176092E+00</totfact>
</mgrwt>
</event>
<event>
 6    1  0.1780144E-005  0.1098556E+04  0.7818608E-02  0.9206600E-01
         -2   -1    0    0    0  501 -0.00000000000E+00  0.00000000000E+00  0.16582068881E+03  0.16582068881E+03  0.00000000000E+00 0. -1.
          2   -1    0    0  501    0  0.00000000000E+00 -0.00000000000E+00 -0.18194734464E+04  0.18194734464E+04  0.00000000000E+00 0.  1.
         23    2    1    2    0    0  0.47871648081E+03 -0.11653755988E+02 -0.13047121749E+04  0.13927869122E+04  0.90973867205E+02 0.  0.
         11    1    3    3    0    0  0.44361706284E+03 -0.24875651480E+02 -0.12485520681E+04  0.13252536222E+04  0.00000000000E+00 0.  1.
        -11    1    3    3    0    0  0.35099417968E+02  0.13221895491E+02 -0.56160106805E+02  0.67533290001E+02  0.00000000000E+00 0. -1.
         22    1    1    2    0    0 -0.47871648081E+03  0.11653755988E+02 -0.34894058269E+03  0.59250722297E+03  0.00000000000E+00 0. -1.
<mgrwt>
<rscale>  0 0.10985560E+04</rscale>
<asrwt>0</asrwt>
<pdfrwt beam="1">  1        2 0.27991900E+00 0.10985560E+04</pdfrwt>
<pdfrwt beam="2">  1       -2 0.25510875E-01 0.10985560E+04</pdfrwt>
<totfact> 0.11564529E+02</totfact>
</mgrwt>
</event>
<event>
 6    1  0.1780144E-005  0.1400977E+04  0.7818608E-02  0.8953112E-01
         -2   -1    0    0    0  501 -0.00000000000E+00  0.00000000000E+00  0.21229187073E+03  0.21229187073E+03  0.00000000000E+00 0.  1.
          2   -1    0    0  501    0  0.00000000000E+00 -0.00000000000E+00 -0.23113661731E+04  0.23113661731E+04  0.00000000000E+00 0. -1.
         23    2    1    2    0    0  0.58109298831E+03 -0.24218254673E+03 -0.15953501240E+04  0.17173953727E+04  0.89349879141E+02 0.  0.
         11    1    3    3    0    0  0.35749281366E+03 -0.18589019581E+03 -0.10839164995E+04  0.11563871561E+04  0.00000000000E+00 0.  1.
        -11    1    3    3    0    0  0.22360017465E+03 -0.56292350922E+02 -0.51143362450E+03  0.56100821664E+03  0.00000000000E+00 0. -1.
         22    1    1    2    0    0 -0.58109298831E+03  0.24218254673E+03 -0.50372417832E+03  0.80626267111E+03  0.00000000000E+00 0.  1.
<mgrwt>
<rscale>  0 0.14009772E+04</rscale>
<asrwt>0</asrwt>
<pdfrwt beam="1">  1        2 0.35559479E+00 0.14009772E+04</pdfrwt>
<pdfrwt beam="2">  1       -2 0.32660288E-01 0.14009772E+04</pdfrwt>
<totfact> 0.38078647E+01</totfact>
</mgrwt>
</event>
<event>
 6    1  0.1780144E-005  0.2873987E+04  0.7818608E-02  0.8280659E-01
          1   -1    0    0  501    0  0.00000000000E+00  0.00000000000E+00  0.19949312821E+04  0.19949312821E+04  0.00000000000E+00 0. -1.
         -1   -1    0    0    0  501 -0.00000000000E+00 -0.00000000000E+00 -0.10350987728E+04  0.10350987728E+04  0.00000000000E+00 0.  1.
         23    2    1    2    0    0  0.13342051219E+04 -0.39749893870E+03  0.11096658715E+03  0.13994835000E+04  0.90176325232E+02 0.  0.
         11    1    3    3    0    0  0.46004674997E+03 -0.16348836791E+03  0.40404184628E+01  0.48824971437E+03  0.00000000000E+00 0. -1.
        -11    1    3    3    0    0  0.87415837197E+03 -0.23401057079E+03  0.10692616869E+03  0.91123378563E+03  0.00000000000E+00 0.  1.
         22    1    1    2    0    0 -0.13342051219E+04  0.39749893870E+03  0.84886592223E+03  0.16305465549E+04  0.00000000000E+00 0. -1.
<mgrwt>
<rscale>  0 0.28739874E+04</rscale>
<asrwt>0</asrwt>
<pdfrwt beam="1">  1        1 0.30691250E+00 0.28739874E+04</pdfrwt>
<pdfrwt beam="2">  1       -1 0.15924597E+00 0.28739874E+04</pdfrwt>
<totfact> 0.76511921E-01</totfact>
</mgrwt>
</event>
<event>
 6    1  0.1780144E-005  0.1782296E+04  0.7818608E-02  0.8715772E-01
         -1   -1    0    0    0  501 -0.00000000000E+00  0.00000000000E+00  0.26464947918E+03  0.26464947918E+03  0.00000000000E+00 0.  1.
          1   -1    0    0  501    0  0.00000000000E+00 -0.00000000000E+00 -0.30007403689E+04  0.30007403689E+04  0.00000000000E+00 0. -1.
         23    2    1    2    0    0 -0.32469069637E+03  0.76369117644E+03 -0.19548478802E+04  0.21256579054E+04  0.91340214733E+02 0.  0.
         11    1    3    3    0    0 -0.18589832995E+03  0.32283141616E+03 -0.89177089102E+03  0.96645415536E+03  0.00000000000E+00 0.  1.
        -11    1    3    3    0    0 -0.13879236642E+03  0.44085976027E+03 -0.10630769891E+04  0.11592037500E+04  0.00000000000E+00 0. -1.
         22    1    1    2    0    0  0.32469069637E+03 -0.76369117644E+03 -0.78124300960E+03  0.11397319427E+04  0.00000000000E+00 0.  1.
<mgrwt>
<rscale>  0 0.17822956E+04</rscale>
<asrwt>0</asrwt>
<pdfrwt beam="1">  1        1 0.46165234E+00 0.17822956E+04</pdfrwt>
<pdfrwt beam="2">  1       -1 0.40715307E-01 0.17822956E+04</pdfrwt>
<totfact> 0.33373487E+00</totfact>
</mgrwt>
</event>
<event>
 6    1  0.1780144E-005  0.1051744E+04  0.7818608E-02  0.9253546E-01
         -1   -1    0    0    0  501 -0.00000000000E+00  0.00000000000E+00  0.77876435869E+03  0.77876435869E+03  0.00000000000E+00 0.  1.
          1   -1    0    0  501    0  0.00000000000E+00 -0.00000000000E+00 -0.35510251653E+03  0.35510251653E+03  0.00000000000E+00 0. -1.
         23    2    1    2    0    0 -0.29372290028E+03  0.43019852416E+03  0.25025985847E+03  0.58485671113E+03  0.89908083361E+02 0.  0.
         11    1    3    3    0    0 -0.21311235267E+03  0.23602955765E+03  0.13995135993E+03  0.34743806656E+03  0.00000000000E+00 0.  1.
        -11    1    3    3    0    0 -0.80610547609E+02  0.19416896650E+03  0.11030849854E+03  0.23741864457E+03  0.00000000000E+00 0. -1.
         22    1    1    2    0    0  0.29372290028E+03 -0.43019852416E+03  0.17340198369E+03  0.54901016410E+03  0.00000000000E+00 0.  1.
<mgrwt>
<rscale>  0 0.10517437E+04</rscale>
<asrwt>0</asrwt>
<pdfrwt beam="1">  1        1 0.54631157E-01 0.10517437E+04</pdfrwt>
<pdfrwt beam="2">  1       -1 0.11980990E+00 0.10517437E+04</pdfrwt>
<totfact> 0.43664947E+01</totfact>
</mgrwt>
</event>
<event>
 6    1  0.1780144E-005  0.3074472E+04  0.7818608E-02  0.8222779E-01
         -2   -1    0    0    0  501 -0.00000000000E+00  0.00000000000E+00  0.86228234285E+03  0.86228234285E+03  0.00000000000E+00 0. -1.
          2   -1    0    0  501    0  0.00000000000E+00 -0.00000000000E+00 -0.27405120390E+04  0.27405120390E+04  0.00000000000E+00 0.  1.
         23    2    1    2    0    0 -0.61173839971E+03  0.64397001870E+03 -0.24083796637E+04  0.25683958887E+04  0.86276196395E+02 0.  0.
         13    1    3    3    0    0 -0.17333332380E+03  0.12899179659E+03 -0.58947841812E+03  0.62782810558E+03  0.00000000000E+00 0.  1.
        -13    1    3    3    0    0 -0.43840507591E+03  0.51497822211E+03 -0.18189012456E+04  0.19405677831E+04  0.00000000000E+00 0. -1.
         22    1    1    2    0    0  0.61173839971E+03 -0.64397001870E+03  0.53014996749E+03  0.10343984932E+04  0.00000000000E+00 0. -1.
<mgrwt>
<rscale>  0 0.30744724E+04</rscale>
<asrwt>0</asrwt>
<pdfrwt beam="1">  1        2 0.42161724E+00 0.30744724E+04</pdfrwt>
<pdfrwt beam="2">  1       -2 0.13265882E+00 0.30744724E+04</pdfrwt>
<totfact> 0.88109257E-01</totfact>
</mgrwt>
</event>
<event>
 6    1  0.1780144E-005  0.4314341E+04  0.7818608E-02  0.7943972E-01
          2   -1    0    0  501    0  0.00000000000E+00  0.00000000000E+00  0.19225224223E+04  0.19225224223E+04  0.00000000000E+00 0. -1.
         -2   -1    0    0    0  501 -0.00000000000E+00 -0.00000000000E+00 -0.24204583390E+04  0.24204583390E+04  0.00000000000E+00 0.  1.
         23    2    1    2    0    0 -0.14284007850E+04  0.15376147905E+04 -0.74687707736E+03  0.22295570584E+04  0.92256498256E+02 0.  0.
         13    1    3    3    0    0 -0.90010168554E+03  0.10294329897E+04 -0.50255053419E+03  0.14568707438E+04  0.00000000000E+00 0. -1.
        -13    1    3    3    0    0 -0.52829909948E+03  0.50818180075E+03 -0.24432654317E+03  0.77268631463E+03  0.00000000000E+00 0.  1.
         22    1    1    2    0    0  0.14284007850E+04 -0.15376147905E+04  0.24894116071E+03  0.21134237029E+04  0.00000000000E+00 0.  1.
<mgrwt>
<rscale>  0 0.43143414E+04</rscale>
<asrwt>0</asrwt>
<pdfrwt beam="1">  1        2 0.29577268E+00 0.43143414E+04</pdfrwt>
<pdfrwt beam="2">  1       -2 0.37237820E+00 0.43143414E+04</pdfrwt>
<totfact> 0.63599365E-02</totfact>
</mgrwt>
</event>
<event>
 6    1  0.1780144E-005  0.1034435E+04  0.7818608E-02  0.9271563E-01
         -1   -1    0    0    0  501 -0.00000000000E+00  0.00000000000E+00  0.63500002450E+03  0.63500002450E+03  0.00000000000E+00 0.  1.
          1   -1    0    0  501    0  0.00000000000E+00 -0.00000000000E+00 -0.42128208433E+03  0.42128208433E+03  0.00000000000E+00 0. -1.
         23    2    1    2    0    0  0.35472545436E+03 -0.53590629960E+02  0.48154456980E+03  0.60858443502E+03  0.98932998817E+02 0.  0.
         11    1    3    3    0    0  0.19036194325E+03  0.17164709840E+01  0.18744888361E+03  0.26716605263E+03  0.00000000000E+00 0. -1.
        -11    1    3    3    0    0  0.16436351111E+03 -0.55307100944E+02  0.29409568619E+03  0.34141838239E+03  0.00000000000E+00 0.  1.
         22    1    1    2    0    0 -0.35472545436E+03  0.53590629960E+02 -0.26782662963E+03  0.44769767381E+03  0.00000000000E+00 0. -1.
<mgrwt>
<rscale>  0 0.10344354E+04</rscale>
<asrwt>0</asrwt>
<pdfrwt beam="1">  1        1 0.64812629E-01 0.10344354E+04</pdfrwt>
<pdfrwt beam="2">  1       -1 0.97692311E-01 0.10344354E+04</pdfrwt>
<totfact> 0.56331714E+01</totfact>
</mgrwt>
</event>
<event>
 6    1  0.1780144E-005  0.2197734E+04  0.7818608E-02  0.8519372E-01
         -2   -1    0    0    0  501 -0.00000000000E+00  0.00000000000E+00  0.19845762218E+04  0.19845762218E+04  0.00000000000E+00 0.  1.
          2   -1    0    0  501    0  0.00000000000E+00 -0.00000000000E+00 -0.60844656058E+03  0.60844656058E+03  0.00000000000E+00 0. -1.
         23    2    1    2    0    0  0.62354158103E+03 -0.35421727173E+03  0.16684529321E+04  0.18186024355E+04  0.96465812032E+02 0.  0.
         11    1    3    3    0    0  0.39141161290E+03 -0.20457456343E+03  0.91204591626E+03  0.10133516448E+04  0.00000000000E+00 0.  1.
        -11    1    3    3    0    0  0.23212996813E+03 -0.14964270830E+03  0.75640701589E+03  0.80525079071E+03  0.00000000000E+00 0. -1.
         22    1    1    2    0    0 -0.62354158103E+03  0.35421727173E+03 -0.29232327093E+03  0.77442034683E+03  0.00000000000E+00 0. -1.
<mgrwt>
<rscale>  0 0.21977339E+04</rscale>
<asrwt>0</asrwt>
<pdfrwt beam="1">  1        2 0.93607164E-01 0.21977339E+04</pdfrwt>
<pdfrwt beam="2">  1       -2 0.30531942E+00 0.21977339E+04</pdfrwt>
<totfact> 0.13152258E+00</totfact>
</mgrwt>
</event>
<event>
 6    1  0.1780144E-005  0.4566706E+04  0.7818608E-02  0.7899062E-01
          1   -1    0    0  501    0  0.00000000000E+00  0.00000000000E+00  0.16169164470E+04  0.16169164470E+04  0.00000000000E+00 0. -1.
         -1   -1    0    0    0  501 -0.00000000000E+00 -0.00000000000E+00 -0.32244714120E+04  0.32244714120E+04  0.00000000000E+00 0.  1.
         23    2    1    2    0    0  0.10337470265E+04 -0.43723850565E+03  0.13033931650E+04  0.17215434011E+04  0.71186470388E+02 0.  0.
         11    1    3    3    0    0  0.29923229050E+03 -0.14095807363E+03  0.33951490584E+03  0.47400370620E+03  0.00000000000E+00 0. -1.
        -11    1    3    3    0    0  0.73451473605E+03 -0.29628043202E+03  0.96387825918E+03  0.12475396949E+04  0.00000000000E+00 0.  1.
         22    1    1    2    0    0 -0.10337470265E+04  0.43723850565E+03 -0.29109481301E+04  0.31198444579E+04  0.00000000000E+00 0.  1.
<mgrwt>
<rscale>  0 0.45667060E+04</rscale>
<asrwt>0</asrwt>
<pdfrwt beam="1">  1        1 0.24875638E+00 0.45667060E+04</pdfrwt>
<pdfrwt beam="2">  1       -1 0.49607252E+00 0.45667060E+04</pdfrwt>
<totfact> 0.64388733E-03</totfact>
</mgrwt>
</event>
<event>
 6    1  0.1780144E-005  0.1982686E+04  0.7818608E-02  0.8614758E-01
          1   -1    0    0  501    0  0.00000000000E+00  0.00000000000E+00  0.20464420884E+04  0.20464420884E+04  0.00000000000E+00 0. -1.
         -1   -1    0    0    0  501 -0.00000000000E+00 -0.00000000000E+00 -0.48022917821E+03  0.48022917821E+03  0.00000000000E+00 0.  1.
         23    2    1    2    0    0  0.34514970968E+03  0.37519507789E+03  0.18651005788E+04  0.19357114482E+04  0.92081339245E+02 0.  0.
         13    1    3    3    0    0  0.54669516197E+02  0.10649106021E+03  0.52093590333E+03  0.53451222370E+03  0.00000000000E+00 0. -1.
        -13    1    3    3    0    0  0.29048019348E+03  0.26870401768E+03  0.13441646755E+04  0.14011992245E+04  0.00000000000E+00 0.  1.
         22    1    1    2    0    0 -0.34514970968E+03 -0.37519507789E+03 -0.29888766860E+03  0.59095981843E+03  0.00000000000E+00 0.  1.
<mgrwt>
<rscale>  0 0.19826863E+04</rscale>
<asrwt>0</asrwt>
<pdfrwt beam="1">  1        1 0.31483724E+00 0.19826863E+04</pdfrwt>
<pdfrwt beam="2">  1       -1 0.73881413E-01 0.19826863E+04</pdfrwt>
<totfact> 0.47498793E+00</totfact>
</mgrwt>
</event>
<event>
 6    1  0.1939180E-005  0.4935592E+04  0.7818608E-02  0.7838520E-01
         -2   -1    0    0    0  501 -0.00000000000E+00  0.00000000000E+00  0.17887439029E+04  0.17887439029E+04  0.00000000000E+00 0.  1.
          2   -1    0    0  501    0  0.00000000000E+00 -0.00000000000E+00 -0.34046334856E+04  0.34046334856E+04  0.00000000000E+00 0. -1.
         23    2    1    2    0    0  0.45570720969E+03 -0.15630291735E+04 -0.27584155365E+04  0.32043839713E+04  0.92147193430E+02 0.  0.
         13    1    3    3    0    0  0.15279028457E+03 -0.65085047490E+03 -0.10764783082E+04  0.12671845800E+04  0.00000000000E+00 0. -1.
        -13    1    3    3    0    0  0.30291692512E+03 -0.91217869860E+03 -0.16819372283E+04  0.19371993913E+04  0.00000000000E+00 0.  1.
         22    1    1    2    0    0 -0.45570720969E+03  0.15630291735E+04  0.11425259539E+04  0.19889934172E+04  0.00000000000E+00 0.  1.
<mgrwt>
<rscale>  0 0.49355921E+04</rscale>
<asrwt>0</asrwt>
<pdfrwt beam="1">  1        2 0.52378976E+00 0.49355921E+04</pdfrwt>
<pdfrwt beam="2">  1       -2 0.27519137E+00 0.49355921E+04</pdfrwt>
<totfact> 0.31154398E-02</totfact>
</mgrwt>
</event>
<event>
 6    1  0.1780144E-005  0.1091098E+04  0.7818608E-02  0.9213912E-01
          1   -1    0    0  501    0  0.00000000000E+00  0.00000000000E+00  0.40247283150E+04  0.40247283150E+04  0.00000000000E+00 0. -1.
         -1   -1    0    0    0  501 -0.00000000000E+00 -0.00000000000E+00 -0.73948780901E+02  0.73948780901E+02  0.00000000000E+00 0.  1.
         23    2    1    2    0    0 -0.39807219398E+03  0.36710695625E+03  0.20298268656E+04  0.21028594330E+04  0.92691432675E+02 0.  0.
         13    1    3    3    0    0 -0.41042507912E+02  0.83033816620E+02  0.37754234289E+03  0.38873811600E+03  0.00000000000E+00 0.  1.
        -13    1    3    3    0    0 -0.35702968607E+03  0.28407313963E+03  0.16522845227E+04  0.17141213170E+04  0.00000000000E+00 0. -1.
         22    1    1    2    0    0  0.39807219398E+03 -0.36710695625E+03  0.19209526685E+04  0.19958176629E+04  0.00000000000E+00 0.  1.
<mgrwt>
<rscale>  0 0.10910981E+04</rscale>
<asrwt>0</asrwt>
<pdfrwt beam="1">  1        1 0.61918880E+00 0.10910981E+04</pdfrwt>
<pdfrwt beam="2">  1       -1 0.11376739E-01 0.10910981E+04</pdfrwt>
<totfact> 0.48826242E+00</totfact>
</mgrwt>
</event>
<event>
 6    1  0.1780144E-005  0.5340479E+04  0.7818608E-02  0.7778029E-01
          2   -1    0    0  501    0  0.00000000000E+00  0.00000000000E+00  0.26016115929E+04  0.26016115929E+04  0.00000000000E+00 0.  1.
         -2   -1    0    0    0  501 -0.00000000000E+00 -0.00000000000E+00 -0.27406773927E+04  0.27406773927E+04  0.00000000000E+00 0. -1.
         23    2    1    2    0    0  0.21883925572E+04  0.11027689384E+04  0.98951160293E+03  0.26443549113E+04  0.91205090761E+02 0.  0.
         13    1    3    3    0    0  0.12661898745E+04  0.68081594145E+03  0.55467441160E+03  0.15409123425E+04  0.00000000000E+00 0.  1.
        -13    1    3    3    0    0  0.92220268268E+03  0.42195299696E+03  0.43483719133E+03  0.11034425688E+04  0.00000000000E+00 0. -1.
         22    1    1    2    0    0 -0.21883925572E+04 -0.11027689384E+04 -0.11285774027E+04  0.26979340744E+04  0.00000000000E+00 0. -1.
<mgrwt>
<rscale>  0 0.53404787E+04</rscale>
<asrwt>0</asrwt>
<pdfrwt beam="1">  1        2 0.40024794E+00 0.53404787E+04</pdfrwt>
<pdfrwt beam="2">  1       -2 0.42164268E+00 0.53404787E+04</pdfrwt>
<totfact> 0.11528514E-02</totfact>
</mgrwt>
</event>
<event>
 6    1  0.1780144E-005  0.3398045E+04  0.7818608E-02  0.8138386E-01
          2   -1    0    0  501    0  0.00000000000E+00  0.00000000000E+00  0.45086363374E+04  0.45086363374E+04  0.00000000000E+00 0. -1.
         -2   -1    0    0    0  501 -0.00000000000E+00 -0.00000000000E+00 -0.64025516909E+03  0.64025516909E+03  0.00000000000E+00 0.  1.
         23    2    1    2    0    0 -0.57990814201E+03 -0.15644298487E+04  0.14603102035E+04  0.22192942686E+04  0.95010292738E+02 0.  0.
         13    1    3    3    0    0 -0.44550474915E+03 -0.12823640396E+04  0.12186964239E+04  0.18243226099E+04  0.00000000000E+00 0. -1.
        -13    1    3    3    0    0 -0.13440339286E+03 -0.28206580912E+03  0.24161377962E+03  0.39497165872E+03  0.00000000000E+00 0.  1.
         22    1    1    2    0    0  0.57990814201E+03  0.15644298487E+04  0.24080709648E+04  0.29295972379E+04  0.00000000000E+00 0. -1.
<mgrwt>
<rscale>  0 0.33980452E+04</rscale>
<asrwt>0</asrwt>
<pdfrwt beam="1">  1        2 0.69363634E+00 0.33980452E+04</pdfrwt>
<pdfrwt beam="2">  1       -2 0.98500798E-01 0.33980452E+04</pdfrwt>
<totfact> 0.85251431E-02</totfact>
</mgrwt>
</event>
<event>
 6    1  0.1780144E-005  0.3056376E+04  0.7818608E-02  0.8227813E-01
          2   -1    0    0  501    0  0.00000000000E+00  0.00000000000E+00  0.12927793458E+04  0.12927793458E+04  0.00000000000E+00 0. -1.
         -2   -1    0    0    0  501 -0.00000000000E+00 -0.00000000000E+00 -0.18064630141E+04  0.18064630141E+04  0.00000000000E+00 0.  1.
         23    2    1    2    0    0 -0.66885494311E+03  0.66553842417E+03  0.96020811395E+03  0.13491951278E+04  0.89551894313E+02 0.  0.
         13    1    3    3    0    0 -0.57574834513E+03  0.56234024047E+03  0.86002789540E+03  0.11778627610E+04  0.00000000000E+00 0. -1.
        -13    1    3    3    0    0 -0.93106597980E+02  0.10319818370E+03  0.10018021854E+03  0.17133236675E+03  0.00000000000E+00 0.  1.
         22    1    1    2    0    0  0.66885494311E+03 -0.66553842417E+03 -0.14738917822E+04  0.17500472321E+04  0.00000000000E+00 0.  1.
<mgrwt>
<rscale>  0 0.30563757E+04</rscale>
<asrwt>0</asrwt>
<pdfrwt beam="1">  1        2 0.19888913E+00 0.30563757E+04</pdfrwt>
<pdfrwt beam="2">  1       -2 0.27791738E+00 0.30563757E+04</pdfrwt>
<totfact> 0.61674125E-01</totfact>
</mgrwt>
</event>
<event>
 6    1  0.1780144E-005  0.2301906E+04  0.7818608E-02  0.8477170E-01
         -1   -1    0    0    0  501 -0.00000000000E+00  0.00000000000E+00  0.86742798606E+03  0.86742798606E+03  0.00000000000E+00 0.  1.
          1   -1    0    0  501    0  0.00000000000E+00 -0.00000000000E+00 -0.15271501970E+04  0.15271501970E+04  0.00000000000E+00 0. -1.
         23    2    1    2    0    0 -0.78011162189E+03 -0.55249641930E+03 -0.99367134448E+03  0.13819832692E+04  0.93105206634E+02 0.  0.
         11    1    3    3    0    0 -0.64720411330E+03 -0.49616749910E+03 -0.86134303636E+03  0.11861564727E+04  0.00000000000E+00 0.  1.
        -11    1    3    3    0    0 -0.13290750858E+03 -0.56328920196E+02 -0.13232830812E+03  0.19582679648E+03  0.00000000000E+00 0. -1.
         22    1    1    2    0    0  0.78011162189E+03  0.55249641930E+03  0.33394913350E+03  0.10125949139E+04  0.00000000000E+00 0.  1.
<mgrwt>
<rscale>  0 0.23019060E+04</rscale>
<asrwt>0</asrwt>
<pdfrwt beam="1">  1        1 0.23494618E+00 0.23019060E+04</pdfrwt>
<pdfrwt beam="2">  1       -1 0.13345046E+00 0.23019060E+04</pdfrwt>
<totfact> 0.26861361E+00</totfact>
</mgrwt>
</event>
<event>
 6    1  0.1780144E-005  0.3612731E+04  0.7818608E-02  0.8087582E-01
         -2   -1    0    0    0  501 -0.00000000000E+00  0.00000000000E+00  0.11106199131E+04  0.11106199131E+04  0.00000000000E+00 0.  1.
          2   -1    0    0  501    0  0.00000000000E+00 -0.00000000000E+00 -0.29379590259E+04  0.29379590259E+04  0.00000000000E+00 0. -1.
         23    2    1    2    0    0 -0.15423379280E+04  0.93700466727E+03 -0.96453846831E+03  0.20482767161E+04  0.91208652772E+02 0.  0.
         11    1    3    3    0    0 -0.48741032102E+03  0.33851680695E+03 -0.34289032786E+03  0.68537305649E+03  0.00000000000E+00 0.  1.
        -11    1    3    3    0    0 -0.10549276070E+04  0.59848786033E+03 -0.62164814045E+03  0.13629036597E+04  0.00000000000E+00 0. -1.
         22    1    1    2    0    0  0.15423379280E+04 -0.93700466727E+03 -0.86280064444E+03  0.20003022228E+04  0.00000000000E+00 0.  1.
<mgrwt>
<rscale>  0 0.36127307E+04</rscale>
<asrwt>0</asrwt>
<pdfrwt beam="1">  1        2 0.45199369E+00 0.36127307E+04</pdfrwt>
<pdfrwt beam="2">  1       -2 0.17086460E+00 0.36127307E+04</pdfrwt>
<totfact> 0.32546473E-01</totfact>
</mgrwt>
</event>
<event>
 6    1  0.1780144E-005  0.4550381E+04  0.7818608E-02  0.7901875E-01
         -2   -1    0    0    0  501 -0.00000000000E+00  0.00000000000E+00  0.12419280821E+04  0.12419280821E+04  0.00000000000E+00 0.  1.
          2   -1    0    0  501    0  0.00000000000E+00 -0.00000000000E+00 -0.41681098109E+04  0.41681098109E+04  0.00000000000E+00 0. -1.
         23    2    1    2    0    0 -0.73754966933E+03  0.20990453440E+04 -0.20243145593E+04  0.30093431472E+04  0.91246214368E+02 0.  0.
         13    1    3    3    0    0 -0.48237882169E+03  0.12478916128E+04 -0.12390171441E+04  0.18234819134E+04  0.00000000000E+00 0.  1.
        -13    1    3    3    0    0 -0.25517084764E+03  0.85115373116E+03 -0.78529741520E+03  0.11858612338E+04  0.00000000000E+00 0. -1.
         22    1    1    2    0    0  0.73754966933E+03 -0.20990453440E+04 -0.90186716953E+03  0.24006947458E+04  0.00000000000E+00 0. -1.
<mgrwt>
<rscale>  0 0.45503814E+04</rscale>
<asrwt>0</asrwt>
<pdfrwt beam="1">  1        2 0.64124766E+00 0.45503814E+04</pdfrwt>
<pdfrwt beam="2">  1       -2 0.19106586E+00 0.45503814E+04</pdfrwt>
<totfact> 0.28349998E-02</totfact>
</mgrwt>
</event>
<event>
 6    1  0.1780144E-005  0.1059937E+04  0.7818608E-02  0.9245144E-01
          1   -1    0    0  501    0  0.00000000000E+00  0.00000000000E+00  0.74545792007E+03  0.74545792007E+03  0.00000000000E+00 0. -1.
         -1   -1    0    0    0  501 -0.00000000000E+00 -0.00000000000E+00 -0.37677080444E+03  0.37677080444E+03  0.00000000000E+00 0.  1.
         23    2    1    2    0    0  0.27795391376E+03 -0.24498139586E+03  0.58097164733E+03  0.69521703276E+03  0.92327705208E+02 0.  0.
         11    1    3    3    0    0  0.57469454664E+02 -0.28226827026E+02  0.16450576042E+03  0.17652659061E+03  0.00000000000E+00 0. -1.
        -11    1    3    3    0    0  0.22048445910E+03 -0.21675456884E+03  0.41646588691E+03  0.51869044215E+03  0.00000000000E+00 0.  1.
         22    1    1    2    0    0 -0.27795391376E+03  0.24498139586E+03 -0.21228453170E+03  0.42701169175E+03  0.00000000000E+00 0.  1.
<mgrwt>
<rscale>  0 0.10599373E+04</rscale>
<asrwt>0</asrwt>
<pdfrwt beam="1">  1        1 0.11468583E+00 0.10599373E+04</pdfrwt>
<pdfrwt beam="2">  1       -1 0.57964739E-01 0.10599373E+04</pdfrwt>
<totfact> 0.74482835E+01</totfact>
</mgrwt>
</event>
<event>
 6    1  0.1780144E-005  0.1492983E+04  0.7818608E-02  0.8889133E-01
          1   -1    0    0  501    0  0.00000000000E+00  0.00000000000E+00  0.61470633258E+03  0.61470633258E+03  0.00000000000E+00 0. -1.
         -1   -1    0    0    0  501 -0.00000000000E+00 -0.00000000000E+00 -0.90652951134E+03  0.90652951134E+03  0.00000000000E+00 0.  1.
         23    2    1    2    0    0  0.12346388896E+03  0.43704188407E+03 -0.74701273020E+03  0.87823781279E+03  0.83813462012E+02 0.  0.
         11    1    3    3    0    0  0.38753975091E+02  0.28322746455E+03 -0.47924593582E+03  0.55802897260E+03  0.00000000000E+00 0.  1.
        -11    1    3    3    0    0  0.84709913865E+02  0.15381441952E+03 -0.26776679438E+03  0.32020884018E+03  0.00000000000E+00 0. -1.
         22    1    1    2    0    0 -0.12346388896E+03 -0.43704188407E+03  0.45518955144E+03  0.64299803113E+03  0.00000000000E+00 0. -1.
<mgrwt>
<rscale>  0 0.14929828E+04</rscale>
<asrwt>0</asrwt>
<pdfrwt beam="1">  1        1 0.94570206E-01 0.14929828E+04</pdfrwt>
<pdfrwt beam="2">  1       -1 0.13946608E+00 0.14929828E+04</pdfrwt>
<totfact> 0.13551281E+01</totfact>
</mgrwt>
</event>
<event>
 6    1  0.1780144E-005  0.2840821E+04  0.7818608E-02  0.8290706E-01
         -1   -1    0    0    0  501 -0.00000000000E+00  0.00000000000E+00  0.18476595547E+04  0.18476595547E+04  0.00000000000E+00 0.  1.
          1   -1    0    0  501    0  0.00000000000E+00 -0.00000000000E+00 -0.10919575743E+04  0.10919575743E+04  0.00000000000E+00 0. -1.
         23    2    1    2    0    0 -0.10962935434E+04  0.32801153839E+03  0.12464000353E+04  0.16945325199E+04  0.92066878999E+02 0.  0.
         11    1    3    3    0    0 -0.31592856101E+03  0.57644162149E+02  0.31781861055E+03  0.45182117514E+03  0.00000000000E+00 0.  1.
        -11    1    3    3    0    0 -0.78036498237E+03  0.27036737624E+03  0.92858142479E+03  0.12427113447E+04  0.00000000000E+00 0. -1.
         22    1    1    2    0    0  0.10962935434E+04 -0.32801153839E+03 -0.49069805494E+03  0.12450846091E+04  0.00000000000E+00 0. -1.
<mgrwt>
<rscale>  0 0.28408209E+04</rscale>
<asrwt>0</asrwt>
<pdfrwt beam="1">  1        1 0.16799347E+00 0.28408209E+04</pdfrwt>
<pdfrwt beam="2">  1       -1 0.28425532E+00 0.28408209E+04</pdfrwt>
<totfact> 0.46329891E-01</totfact>
</mgrwt>
</event>
<event>
 6    1  0.1780144E-005  0.8281910E+03  0.7818608E-02  0.9520085E-01
         -2   -1    0    0    0  501 -0.00000000000E+00  0.00000000000E+00  0.17780574618E+03  0.17780574618E+03  0.00000000000E+00 0.  1.
          2   -1    0    0  501    0  0.00000000000E+00 -0.00000000000E+00 -0.96439569743E+03  0.96439569743E+03  0.00000000000E+00 0. -1.
         23    2    1    2    0    0 -0.27932185260E+03 -0.23086042484E+03 -0.65967032045E+03  0.75824073497E+03  0.91906732025E+02 0.  0.
         13    1    3    3    0    0 -0.85832148467E+02 -0.81058338499E+02 -0.13517520205E+03  0.17947129910E+03  0.00000000000E+00 0. -1.
        -13    1    3    3    0    0 -0.19348970413E+03 -0.14980208634E+03 -0.52449511839E+03  0.57876943587E+03  0.00000000000E+00 0.  1.
         22    1    1    2    0    0  0.27932185260E+03  0.23086042484E+03 -0.12691963080E+03  0.38396070864E+03  0.00000000000E+00 0.  1.
<mgrwt>
<rscale>  0 0.82819103E+03</rscale>
<asrwt>0</asrwt>
<pdfrwt beam="1">  1        2 0.14836857E+00 0.82819103E+03</pdfrwt>
<pdfrwt beam="2">  1       -2 0.27354730E-01 0.82819103E+03</pdfrwt>
<totfact> 0.32432473E+02</totfact>
</mgrwt>
</event>
<event>
 6    1  0.1780144E-005  0.1607817E+04  0.7818608E-02  0.8815760E-01
         -1   -1    0    0    0  501 -0.00000000000E+00  0.00000000000E+00  0.44560215799E+03  0.44560215799E+03  0.00000000000E+00 0.  1.
          1   -1    0    0  501    0  0.00000000000E+00 -0.00000000000E+00 -0.14503275088E+04  0.14503275088E+04  0.00000000000E+00 0. -1.
         23    2    1    2    0    0 -0.63328028313E+02  0.21901100394E+03 -0.14101721069E+04  0.14307809475E+04  0.81070891783E+02 0.  0.
         11    1    3    3    0    0  0.41445555326E-02  0.14309436226E+03 -0.84005050766E+03  0.85215072138E+03  0.00000000000E+00 0.  1.
        -11    1    3    3    0    0 -0.63332172868E+02  0.75916641680E+02 -0.57012159929E+03  0.57863022612E+03  0.00000000000E+00 0. -1.
         22    1    1    2    0    0  0.63328028313E+02 -0.21901100394E+03  0.40544675613E+03  0.46514871930E+03  0.00000000000E+00 0.  1.
<mgrwt>
<rscale>  0 0.16078172E+04</rscale>
<asrwt>0</asrwt>
<pdfrwt beam="1">  1        1 0.22312731E+00 0.16078172E+04</pdfrwt>
<pdfrwt beam="2">  1       -1 0.68554178E-01 0.16078172E+04</pdfrwt>
<totfact> 0.14627597E+01</totfact>
</mgrwt>
</event>
<event>
 6    1  0.1780144E-005  0.3474129E+04  0.7818608E-02  0.8119949E-01
          2   -1    0    0  501    0  0.00000000000E+00  0.00000000000E+00  0.14347145461E+04  0.14347145461E+04  0.00000000000E+00 0. -1.
         -2   -1    0    0    0  501 -0.00000000000E+00 -0.00000000000E+00 -0.21031313710E+04  0.21031313710E+04  0.00000000000E+00 0.  1.
         23    2    1    2    0    0  0.17262192120E+04 -0.53558716845E+02 -0.51224311683E+03  0.18037491691E+04  0.91742848864E+02 0.  0.
         13    1    3    3    0    0  0.99295317107E+03  0.10752748921E+02 -0.31316555541E+03  0.10412224962E+04  0.00000000000E+00 0.  1.
        -13    1    3    3    0    0  0.73326604096E+03 -0.64311465767E+02 -0.19907756142E+03  0.76252667292E+03  0.00000000000E+00 0. -1.
         22    1    1    2    0    0 -0.17262192120E+04  0.53558716845E+02 -0.15617370800E+03  0.17340967479E+04  0.00000000000E+00 0. -1.
<mgrwt>
<rscale>  0 0.34741291E+04</rscale>
<asrwt>0</asrwt>
<pdfrwt beam="1">  1        2 0.22072532E+00 0.34741291E+04</pdfrwt>
<pdfrwt beam="2">  1       -2 0.32355867E+00 0.34741291E+04</pdfrwt>
<totfact> 0.25903541E-01</totfact>
</mgrwt>
</event>
<event>
 6    1  0.1780144E-005  0.3464509E+04  0.7818608E-02  0.8122253E-01
         -2   -1    0    0    0  501 -0.00000000000E+00  0.00000000000E+00  0.15643086249E+04  0.15643086249E+04  0.00000000000E+00 0.  1.
          2   -1    0    0  501    0  0.00000000000E+00 -0.00000000000E+00 -0.19182311157E+04  0.19182311157E+04  0.00000000000E+00 0. -1.
         23    2    1    2    0    0 -0.12560038540E+04 -0.37627451839E+03 -0.13132279613E+04  0.18579181908E+04  0.90355582167E+02 0.  0.
         13    1    3    3    0    0 -0.11582736641E+04 -0.32279525095E+03 -0.11879893900E+04  0.16902998094E+04  0.00000000000E+00 0. -1.
        -13    1    3    3    0    0 -0.97730189908E+02 -0.53479267436E+02 -0.12523857125E+03  0.16761838143E+03  0.00000000000E+00 0.  1.
         22    1    1    2    0    0  0.12560038540E+04  0.37627451839E+03  0.95930547047E+03  0.16246215498E+04  0.00000000000E+00 0.  1.
<mgrwt>
<rscale>  0 0.34645089E+04</rscale>
<asrwt>0</asrwt>
<pdfrwt beam="1">  1        2 0.29511248E+00 0.34645089E+04</pdfrwt>
<pdfrwt beam="2">  1       -2 0.24066287E+00 0.34645089E+04</pdfrwt>
<totfact> 0.44863006E-01</totfact>
</mgrwt>
</event>
<event>
 6    1  0.1780144E-005  0.2059825E+04  0.7818608E-02  0.8579150E-01
          2   -1    0    0  501    0  0.00000000000E+00  0.00000000000E+00  0.12042029348E+04  0.12042029348E+04  0.00000000000E+00 0. -1.
         -2   -1    0    0    0  501 -0.00000000000E+00 -0.00000000000E+00 -0.88084798814E+03  0.88084798814E+03  0.00000000000E+00 0.  1.
         23    2    1    2    0    0 -0.62700289542E+03  0.77138443338E+03 -0.10208602271E+03  0.10037708513E+04  0.94698421150E+02 0.  0.
         11    1    3    3    0    0 -0.13315490665E+03  0.15490224922E+03 -0.59372569224E+02  0.21272056308E+03  0.00000000000E+00 0. -1.
        -11    1    3    3    0    0 -0.49384798877E+03  0.61648218416E+03 -0.42713453485E+02  0.79105028823E+03  0.00000000000E+00 0.  1.
         22    1    1    2    0    0  0.62700289542E+03 -0.77138443338E+03  0.42544096941E+03  0.10812800717E+04  0.00000000000E+00 0. -1.
<mgrwt>
<rscale>  0 0.20598250E+04</rscale>
<asrwt>0</asrwt>
<pdfrwt beam="1">  1        2 0.18526199E+00 0.20598250E+04</pdfrwt>
<pdfrwt beam="2">  1       -2 0.13551508E+00 0.20598250E+04</pdfrwt>
<totfact> 0.68031137E+00</totfact>
</mgrwt>
</event>
<event>
 6    1  0.1780144E-005  0.7133481E+03  0.7818608E-02  0.9694674E-01
          1   -1    0    0  501    0  0.00000000000E+00  0.00000000000E+00  0.91481665683E+02  0.91481665683E+02  0.00000000000E+00 0.  1.
         -1   -1    0    0    0  501 -0.00000000000E+00 -0.00000000000E+00 -0.13906215188E+04  0.13906215188E+04  0.00000000000E+00 0. -1.
         23    2    1    2    0    0  0.14626685538E+03 -0.89960624295E+02 -0.12959310767E+04  0.13103556862E+04  0.90043112116E+02 0.  0.
         11    1    3    3    0    0 -0.49484971822E+01  0.10302458096E+02 -0.50431025525E+02  0.51709927506E+02  0.00000000000E+00 0. -1.
        -11    1    3    3    0    0  0.15121535256E+03 -0.10026308239E+03 -0.12455000512E+04  0.12586457587E+04  0.00000000000E+00 0.  1.
         22    1    1    2    0    0 -0.14626685538E+03  0.89960624295E+02 -0.32087764337E+01  0.17174749824E+03  0.00000000000E+00 0.  1.
<mgrwt>
<rscale>  0 0.71334809E+03</rscale>
<asrwt>0</asrwt>
<pdfrwt beam="1">  1        1 0.14074103E-01 0.71334809E+03</pdfrwt>
<pdfrwt beam="2">  1       -1 0.21394177E+00 0.71334809E+03</pdfrwt>
<totfact> 0.52224087E+01</totfact>
</mgrwt>
</event>
<event>
 6    1  0.1780144E-005  0.5238562E+04  0.7818608E-02  0.7792725E-01
          2   -1    0    0  501    0  0.00000000000E+00  0.00000000000E+00  0.31827907039E+04  0.31827907039E+04  0.00000000000E+00 0.  1.
         -2   -1    0    0    0  501 -0.00000000000E+00 -0.00000000000E+00 -0.21555400995E+04  0.21555400995E+04  0.00000000000E+00 0. -1.
         23    2    1    2    0    0 -0.10691830186E+03  0.15090459221E+04  0.26917033295E+04  0.30890967132E+04  0.92739266712E+02 0.  0.
         13    1    3    3    0    0 -0.10596556798E+03  0.10748641752E+04  0.18585635452E+04  0.21496093013E+04  0.00000000000E+00 0. -1.
        -13    1    3    3    0    0 -0.95273388481E+00  0.43418174689E+03  0.83313978428E+03  0.93948741193E+03  0.00000000000E+00 0.  1.
         22    1    1    2    0    0  0.10691830186E+03 -0.15090459221E+04 -0.16644527251E+04  0.22492340902E+04  0.00000000000E+00 0. -1.
<mgrwt>
<rscale>  0 0.52385620E+04</rscale>
<asrwt>0</asrwt>
<pdfrwt beam="1">  1        2 0.48966011E+00 0.52385620E+04</pdfrwt>
<pdfrwt beam="2">  1       -2 0.33162155E+00 0.52385620E+04</pdfrwt>
<totfact> 0.19264312E-02</totfact>
</mgrwt>
</event>
<event>
 6    1  0.1780144E-005  0.2994967E+04  0.7818608E-02  0.8245169E-01
         -2   -1    0    0    0  501 -0.00000000000E+00  0.00000000000E+00  0.20856364993E+04  0.20856364993E+04  0.00000000000E+00 0. -1.
          2   -1    0    0  501    0  0.00000000000E+00 -0.00000000000E+00 -0.10751909195E+04  0.10751909195E+04  0.00000000000E+00 0.  1.
         23    2    1    2    0    0  0.52644263885E+03  0.84632913027E+02 -0.96987836245E+03  0.11099769859E+04  0.84144454719E+02 0.  0.
         13    1    3    3    0    0  0.24749196000E+03  0.71478859555E+01 -0.50267324245E+03  0.56034253026E+03  0.00000000000E+00 0. -1.
        -13    1    3    3    0    0  0.27895067885E+03  0.77485027071E+02 -0.46720512000E+03  0.54963445562E+03  0.00000000000E+00 0.  1.
         22    1    1    2    0    0 -0.52644263885E+03 -0.84632913027E+02  0.19803239423E+04  0.20508504330E+04  0.00000000000E+00 0. -1.
<mgrwt>
<rscale>  0 0.29949674E+04</rscale>
<asrwt>0</asrwt>
<pdfrwt beam="1">  1        2 0.16541399E+00 0.29949674E+04</pdfrwt>
<pdfrwt beam="2">  1       -2 0.32086715E+00 0.29949674E+04</pdfrwt>
<totfact> 0.45711885E-01</totfact>
</mgrwt>
</event>
<event>
 6    1  0.1780144E-005  0.2165706E+04  0.7818608E-02  0.8532839E-01
         -1   -1    0    0    0  501 -0.00000000000E+00  0.00000000000E+00  0.11035265611E+04  0.11035265611E+04  0.00000000000E+00 0.  1.
          1   -1    0    0  501    0  0.00000000000E+00 -0.00000000000E+00 -0.10625662561E+04  0.10625662561E+04  0.00000000000E+00 0. -1.
         23    2    1    2    0    0  0.10742256768E+03 -0.78998031177E+03  0.75051649036E+03  0.10988166200E+04  0.92273836786E+02 0.  0.
         13    1    3    3    0    0  0.73669328907E+02 -0.30896361741E+03  0.34303376507E+03  0.46750171217E+03  0.00000000000E+00 0.  1.
        -13    1    3    3    0    0  0.33753238777E+02 -0.48101669436E+03  0.40748272530E+03  0.63131490779E+03  0.00000000000E+00 0. -1.
         22    1    1    2    0    0 -0.10742256768E+03  0.78998031177E+03 -0.70955618533E+03  0.10672761972E+04  0.00000000000E+00 0. -1.
<mgrwt>
<rscale>  0 0.21657055E+04</rscale>
<asrwt>0</asrwt>
<pdfrwt beam="1">  1        1 0.16347173E+00 0.21657055E+04</pdfrwt>
<pdfrwt beam="2">  1       -1 0.16977332E+00 0.21657055E+04</pdfrwt>
<totfact> 0.30576196E+00</totfact>
</mgrwt>
</event>
<event>
 6    1  0.1780144E-005  0.3779961E+04  0.7818608E-02  0.8050469E-01
          2   -1    0    0  501    0  0.00000000000E+00  0.00000000000E+00  0.24608401921E+04  0.24608401921E+04  0.00000000000E+00 0. -1.
         -2   -1    0    0    0  501 -0.00000000000E+00 -0.00000000000E+00 -0.14515471176E+04  0.14515471176E+04  0.00000000000E+00 0.  1.
         23    2    1    2    0    0 -0.70056470755E+03  0.15834901076E+04 -0.27611911250E+03  0.17558817287E+04  0.92989518499E+02 0.  0.
         13    1    3    3    0    0 -0.42247943910E+03  0.85861438655E+03 -0.17763440266E+03  0.97327361120E+03  0.00000000000E+00 0. -1.
        -13    1    3    3    0    0 -0.27808526845E+03  0.72487572105E+03 -0.98484709844E+02  0.78260811749E+03  0.00000000000E+00 0.  1.
         22    1    1    2    0    0  0.70056470755E+03 -0.15834901076E+04  0.12854121871E+04  0.21565055810E+04  0.00000000000E+00 0. -1.
<mgrwt>
<rscale>  0 0.37799606E+04</rscale>
<asrwt>0</asrwt>
<pdfrwt beam="1">  1        2 0.37859080E+00 0.37799606E+04</pdfrwt>
<pdfrwt beam="2">  1       -2 0.22331494E+00 0.37799606E+04</pdfrwt>
<totfact> 0.27740248E-01</totfact>
</mgrwt>
</event>
<event>
 6    1  0.1780144E-005  0.9787375E+03  0.7818608E-02  0.9332178E-01
          1   -1    0    0  501    0  0.00000000000E+00  0.00000000000E+00  0.62374010499E+03  0.62374010499E+03  0.00000000000E+00 0. -1.
         -1   -1    0    0    0  501 -0.00000000000E+00 -0.00000000000E+00 -0.38394478547E+03  0.38394478547E+03  0.00000000000E+00 0.  1.
         23    2    1    2    0    0 -0.10729571735E+02 -0.11053455946E+03 -0.36505530301E+03  0.39272368182E+03  0.92916647925E+02 0.  0.
         13    1    3    3    0    0  0.20699708093E+02 -0.64360043246E+02 -0.92902140493E+02  0.11489778409E+03  0.00000000000E+00 0. -1.
        -13    1    3    3    0    0 -0.31429279828E+02 -0.46174516210E+02 -0.27215316252E+03  0.27782589772E+03  0.00000000000E+00 0.  1.
         22    1    1    2    0    0  0.10729571735E+02  0.11053455946E+03  0.60485062254E+03  0.61496120864E+03  0.00000000000E+00 0. -1.
<mgrwt>
<rscale>  0 0.97873747E+03</rscale>
<asrwt>0</asrwt>
<pdfrwt beam="1">  1        1 0.95960017E-01 0.97873747E+03</pdfrwt>
<pdfrwt beam="2">  1       -1 0.59068428E-01 0.97873747E+03</pdfrwt>
<totfact> 0.94398688E+01</totfact>
</mgrwt>
</event>
<event>
 6    1  0.2584905E-005  0.4218910E+04  0.7818608E-02  0.7961785E-01
         -1   -1    0    0    0  501 -0.00000000000E+00  0.00000000000E+00  0.18715721969E+04  0.18715721969E+04  0.00000000000E+00 0.  1.
          1   -1    0    0  501    0  0.00000000000E+00 -0.00000000000E+00 -0.23775729065E+04  0.23775729065E+04  0.00000000000E+00 0. -1.
         23    2    1    2    0    0 -0.11383045820E+04 -0.13298563233E+04 -0.14369621635E+04  0.22664841666E+04  0.88515852677E+02 0.  0.
         11    1    3    3    0    0 -0.51694651904E+03 -0.63122979078E+03 -0.61744006277E+03  0.10231896127E+04  0.00000000000E+00 0. -1.
        -11    1    3    3    0    0 -0.62135806291E+03 -0.69862653249E+03 -0.81952210072E+03  0.12432945539E+04  0.00000000000E+00 0.  1.
         22    1    1    2    0    0  0.11383045820E+04  0.13298563233E+04  0.93096145392E+03  0.19826609369E+04  0.00000000000E+00 0.  1.
<mgrwt>
<rscale>  0 0.42189095E+04</rscale>
<asrwt>0</asrwt>
<pdfrwt beam="1">  1        1 0.36578045E+00 0.42189095E+04</pdfrwt>
<pdfrwt beam="2">  1       -1 0.28793419E+00 0.42189095E+04</pdfrwt>
<totfact> 0.50046579E-02</totfact>
</mgrwt>
</event>
<event>
 6    1  0.1780144E-005  0.4819175E+04  0.7818608E-02  0.7857023E-01
         -1   -1    0    0    0  501 -0.00000000000E+00  0.00000000000E+00  0.14586443220E+04  0.14586443220E+04  0.00000000000E+00 0.  1.
          1   -1    0    0  501    0  0.00000000000E+00 -0.00000000000E+00 -0.39804846160E+04  0.39804846160E+04  0.00000000000E+00 0. -1.
         23    2    1    2    0    0  0.58628794531E+03  0.85065134469E+03  0.11944774405E+04  0.15818813742E+04  0.90725194826E+02 0.  0.
         13    1    3    3    0    0  0.22262960542E+03  0.32087510684E+03  0.51974460723E+03  0.65012247473E+03  0.00000000000E+00 0. -1.
        -13    1    3    3    0    0  0.36365833989E+03  0.52977623784E+03  0.67473283328E+03  0.93175889943E+03  0.00000000000E+00 0.  1.
         22    1    1    2    0    0 -0.58628794531E+03 -0.85065134469E+03 -0.37163177345E+04  0.38572475639E+04  0.00000000000E+00 0. -1.
<mgrwt>
<rscale>  0 0.48191747E+04</rscale>
<asrwt>0</asrwt>
<pdfrwt beam="1">  1        1 0.61238225E+00 0.48191747E+04</pdfrwt>
<pdfrwt beam="2">  1       -1 0.22440682E+00 0.48191747E+04</pdfrwt>
<totfact> 0.74919122E-03</totfact>
</mgrwt>
</event>
<event>
 6    1  0.1780144E-005  0.4179631E+04  0.7818608E-02  0.7969258E-01
          2   -1    0    0  501    0  0.00000000000E+00  0.00000000000E+00  0.21095000689E+04  0.21095000689E+04  0.00000000000E+00 0. -1.
         -2   -1    0    0    0  501 -0.00000000000E+00 -0.00000000000E+00 -0.20703143309E+04  0.20703143309E+04  0.00000000000E+00 0.  1.
         23    2    1    2    0    0 -0.16276199876E+04  0.68952323373E+03 -0.10933857404E+04  0.20804556245E+04  0.90631751642E+02 0.  0.
         13    1    3    3    0    0 -0.65319027678E+03  0.28804103631E+03 -0.49261719316E+03  0.86735049160E+03  0.00000000000E+00 0.  1.
        -13    1    3    3    0    0 -0.97442971080E+03  0.40148219742E+03 -0.60076854723E+03  0.12131051329E+04  0.00000000000E+00 0. -1.
         22    1    1    2    0    0  0.16276199876E+04 -0.68952323373E+03  0.11325714784E+04  0.20993587753E+04  0.00000000000E+00 0. -1.
<mgrwt>
<rscale>  0 0.41796307E+04</rscale>
<asrwt>0</asrwt>
<pdfrwt beam="1">  1        2 0.32453847E+00 0.41796307E+04</pdfrwt>
<pdfrwt beam="2">  1       -2 0.31850990E+00 0.41796307E+04</pdfrwt>
<totfact> 0.11037673E-01</totfact>
</mgrwt>
</event>
<event>
 6    1  0.1780144E-005  0.3175829E+04  0.7818608E-02  0.8195230E-01
         -2   -1    0    0    0  501 -0.00000000000E+00  0.00000000000E+00  0.18399914105E+04  0.18399914105E+04  0.00000000000E+00 0.  1.
          2   -1    0    0  501    0  0.00000000000E+00 -0.00000000000E+00 -0.13703718739E+04  0.13703718739E+04  0.00000000000E+00 0. -1.
         23    2    1    2    0    0 -0.40900049631E+03  0.56117986500E+03  0.16770130204E+04  0.18175232821E+04  0.93882712025E+02 0.  0.
         11    1    3    3    0    0 -0.47269486175E+02  0.11863673819E+03  0.26327315743E+03  0.29261209031E+03  0.00000000000E+00 0.  1.
        -11    1    3    3    0    0 -0.36173101013E+03  0.44254312681E+03  0.14137398630E+04  0.15249111918E+04  0.00000000000E+00 0. -1.
         22    1    1    2    0    0  0.40900049631E+03 -0.56117986500E+03 -0.12073934839E+04  0.13928400022E+04  0.00000000000E+00 0. -1.
<mgrwt>
<rscale>  0 0.31758290E+04</rscale>
<asrwt>0</asrwt>
<pdfrwt beam="1">  1        2 0.21082644E+00 0.31758290E+04</pdfrwt>
<pdfrwt beam="2">  1       -2 0.28307560E+00 0.31758290E+04</pdfrwt>
<totfact> 0.51208625E-01</totfact>
</mgrwt>
</event>
<event>
 6    1  0.1780144E-005  0.1133545E+04  0.7818608E-02  0.9173099E-01
         -2   -1    0    0    0  501 -0.00000000000E+00  0.00000000000E+00  0.33154989488E+03  0.33154989488E+03  0.00000000000E+00 0.  1.
          2   -1    0    0  501    0  0.00000000000E+00 -0.00000000000E+00 -0.96887762112E+03  0.96887762112E+03  0.00000000000E+00 0. -1.
         23    2    1    2    0    0 -0.41791423715E+02 -0.33395093396E+03 -0.83856554117E+03  0.90829691589E+03  0.92419538992E+02 0.  0.
         13    1    3    3    0    0 -0.24080796915E+02 -0.12627378941E+02 -0.63296920553E+02  0.68890025623E+02  0.00000000000E+00 0. -1.
        -13    1    3    3    0    0 -0.17710626800E+02 -0.32132355502E+03 -0.77526862062E+03  0.83940689026E+03  0.00000000000E+00 0.  1.
         22    1    1    2    0    0  0.41791423715E+02  0.33395093396E+03  0.20123781492E+03  0.39213060011E+03  0.00000000000E+00 0.  1.
<mgrwt>
<rscale>  0 0.11335454E+04</rscale>
<asrwt>0</asrwt>
<pdfrwt beam="1">  1        2 0.14905809E+00 0.11335454E+04</pdfrwt>
<pdfrwt beam="2">  1       -2 0.51007676E-01 0.11335454E+04</pdfrwt>
<totfact> 0.94968942E+01</totfact>
</mgrwt>
</event>
<event>
 6    1  0.1780144E-005  0.1883763E+04  0.7818608E-02  0.8662981E-01
          2   -1    0    0  501    0  0.00000000000E+00  0.00000000000E+00  0.10532756280E+04  0.10532756280E+04  0.00000000000E+00 0.  1.
         -2   -1    0    0    0  501 -0.00000000000E+00 -0.00000000000E+00 -0.84226835448E+03  0.84226835448E+03  0.00000000000E+00 0. -1.
         23    2    1    2    0    0  0.16822819870E+02  0.53468235484E+03 -0.67170891331E+03  0.86338309660E+03  0.89829167978E+02 0.  0.
         11    1    3    3    0    0  0.39353074961E+02  0.14852867873E+03 -0.22522972176E+03  0.27264970288E+03  0.00000000000E+00 0. -1.
        -11    1    3    3    0    0 -0.22530255091E+02  0.38615367611E+03 -0.44647919155E+03  0.59073339372E+03  0.00000000000E+00 0.  1.
         22    1    1    2    0    0 -0.16822819870E+02 -0.53468235484E+03  0.88271618688E+03  0.10321608859E+04  0.00000000000E+00 0.  1.
<mgrwt>
<rscale>  0 0.18837630E+04</rscale>
<asrwt>0</asrwt>
<pdfrwt beam="1">  1        2 0.16204240E+00 0.18837630E+04</pdfrwt>
<pdfrwt beam="2">  1       -2 0.12957975E+00 0.18837630E+04</pdfrwt>
<totfact> 0.95672524E+00</totfact>
</mgrwt>
</event>
<event>
 6    1  0.1780144E-005  0.1459303E+04  0.7818608E-02  0.8911976E-01
         -2   -1    0    0    0  501 -0.00000000000E+00  0.00000000000E+00  0.64356019900E+03  0.64356019900E+03  0.00000000000E+00 0.  1.
          2   -1    0    0  501    0  0.00000000000E+00 -0.00000000000E+00 -0.82725985973E+03  0.82725985973E+03  0.00000000000E+00 0. -1.
         23    2    1    2    0    0 -0.20317047020E+03  0.36818539595E+03  0.50577422916E+03  0.66322302395E+03  0.84961655274E+02 0.  0.
         11    1    3    3    0    0 -0.12584941691E+03  0.15426791053E+03  0.27169001028E+03  0.33682655127E+03  0.00000000000E+00 0. -1.
        -11    1    3    3    0    0 -0.77321053288E+02  0.21391748541E+03  0.23408421888E+03  0.32639647267E+03  0.00000000000E+00 0.  1.
         22    1    1    2    0    0  0.20317047020E+03 -0.36818539595E+03 -0.68947388989E+03  0.80759703478E+03  0.00000000000E+00 0. -1.
<mgrwt>
<rscale>  0 0.14593033E+04</rscale>
<asrwt>0</asrwt>
<pdfrwt beam="1">  1        2 0.12727075E+00 0.14593033E+04</pdfrwt>
<pdfrwt beam="2">  1       -2 0.99009262E-01 0.14593033E+04</pdfrwt>
<totfact> 0.26995863E+01</totfact>
</mgrwt>
</event>
<event>
 6    1  0.1780144E-005  0.7236048E+03  0.7818608E-02  0.9677695E-01
         -1   -1    0    0    0  501 -0.00000000000E+00  0.00000000000E+00  0.59802396065E+03  0.59802396065E+03  0.00000000000E+00 0.  1.
          1   -1    0    0  501    0  0.00000000000E+00 -0.00000000000E+00 -0.21888916329E+03  0.21888916329E+03  0.00000000000E+00 0. -1.
         23    2    1    2    0    0  0.35971414035E+02  0.12379509132E+03 -0.18442389014E+03  0.23879759784E+03  0.79955951715E+02 0.  0.
         11    1    3    3    0    0  0.16528587371E+02  0.38491874733E+02 -0.12802429626E+03  0.13470352279E+03  0.00000000000E+00 0.  1.
        -11    1    3    3    0    0  0.19442826664E+02  0.85303216587E+02 -0.56399593888E+02  0.10409407505E+03  0.00000000000E+00 0. -1.
         22    1    1    2    0    0 -0.35971414035E+02 -0.12379509132E+03  0.56355868750E+03  0.57811552610E+03  0.00000000000E+00 0.  1.
<mgrwt>
<rscale>  0 0.72360477E+03</rscale>
<asrwt>0</asrwt>
<pdfrwt beam="1">  1        1 0.33675256E-01 0.72360477E+03</pdfrwt>
<pdfrwt beam="2">  1       -1 0.92003686E-01 0.72360477E+03</pdfrwt>
<totfact> 0.15438906E+02</totfact>
</mgrwt>
</event>
<event>
 6    1  0.1780144E-005  0.8389298E+03  0.7818608E-02  0.9505317E-01
         -2   -1    0    0    0  501 -0.00000000000E+00  0.00000000000E+00  0.10896512040E+03  0.10896512040E+03  0.00000000000E+00 0.  1.
          2   -1    0    0  501    0  0.00000000000E+00 -0.00000000000E+00 -0.16147440722E+04  0.16147440722E+04  0.00000000000E+00 0. -1.
         23    2    1    2    0    0 -0.31842573792E+03 -0.24353480928E+03 -0.54102917238E+03  0.67898612365E+03  0.87209155699E+02 0.  0.
         11    1    3    3    0    0 -0.30303343653E+03 -0.20264410323E+03 -0.46008337285E+03  0.58700136814E+03  0.00000000000E+00 0.  1.
        -11    1    3    3    0    0 -0.15392301389E+02 -0.40890706055E+02 -0.80945799531E+02  0.91984755506E+02  0.00000000000E+00 0. -1.
         22    1    1    2    0    0  0.31842573792E+03  0.24353480928E+03 -0.96474977938E+03  0.10447230689E+04  0.00000000000E+00 0. -1.
<mgrwt>
<rscale>  0 0.83892975E+03</rscale>
<asrwt>0</asrwt>
<pdfrwt beam="1">  1        2 0.24842216E+00 0.83892975E+03</pdfrwt>
<pdfrwt beam="2">  1       -2 0.16763865E-01 0.83892975E+03</pdfrwt>
<totfact> 0.32012921E+02</totfact>
</mgrwt>
</event>
<event>
 6    1  0.1874399E-005  0.4509439E+04  0.7818608E-02  0.7908986E-01
         -2   -1    0    0    0  501 -0.00000000000E+00  0.00000000000E+00  0.23199501279E+04  0.23199501279E+04  0.00000000000E+00 0. -1.
          2   -1    0    0  501    0  0.00000000000E+00 -0.00000000000E+00 -0.21913233770E+04  0.21913233770E+04  0.00000000000E+00 0.  1.
         23    2    1    2    0    0  0.51510842199E+03  0.15956165518E+04  0.15709387740E+04  0.22995789421E+04  0.94264588282E+02 0.  0.
         13    1    3    3    0    0  0.23415672575E+03  0.58942753405E+03  0.56810509331E+03  0.85146790142E+03  0.00000000000E+00 0. -1.
        -13    1    3    3    0    0  0.28095169624E+03  0.10061890178E+04  0.10028336807E+04  0.14481110407E+04  0.00000000000E+00 0.  1.
         22    1    1    2    0    0 -0.51510842199E+03 -0.15956165518E+04 -0.14423120231E+04  0.22116945628E+04  0.00000000000E+00 0.  1.
<mgrwt>
<rscale>  0 0.45094394E+04</rscale>
<asrwt>0</asrwt>
<pdfrwt beam="1">  1        2 0.33712667E+00 0.45094394E+04</pdfrwt>
<pdfrwt beam="2">  1       -2 0.35691540E+00 0.45094394E+04</pdfrwt>
<totfact> 0.55622115E-02</totfact>
</mgrwt>
</event>
<event>
 6    1  0.1780144E-005  0.1692617E+04  0.7818608E-02  0.8765587E-01
          2   -1    0    0  501    0  0.00000000000E+00  0.00000000000E+00  0.45748101321E+03  0.45748101321E+03  0.00000000000E+00 0. -1.
         -2   -1    0    0    0  501 -0.00000000000E+00 -0.00000000000E+00 -0.15656121637E+04  0.15656121637E+04  0.00000000000E+00 0.  1.
         23    2    1    2    0    0 -0.27957143682E+03 -0.64678290881E+03 -0.37694568529E+00  0.71023077069E+03  0.89102671848E+02 0.  0.
         13    1    3    3    0    0 -0.22736760240E+03 -0.49207559873E+03 -0.35470833877E+02  0.54322426450E+03  0.00000000000E+00 0. -1.
        -13    1    3    3    0    0 -0.52203834414E+02 -0.15470731008E+03  0.35093888192E+02  0.16700650619E+03  0.00000000000E+00 0.  1.
         22    1    1    2    0    0  0.27957143682E+03  0.64678290881E+03 -0.11077542048E+04  0.13128624062E+04  0.00000000000E+00 0.  1.
<mgrwt>
<rscale>  0 0.16926167E+04</rscale>
<asrwt>0</asrwt>
<pdfrwt beam="1">  1        2 0.70381695E-01 0.16926167E+04</pdfrwt>
<pdfrwt beam="2">  1       -2 0.24086341E+00 0.16926167E+04</pdfrwt>
<totfact> 0.47532543E+00</totfact>
</mgrwt>
</event>
<event>
 6    1  0.1780144E-005  0.2585677E+04  0.7818608E-02  0.8373083E-01
         -2   -1    0    0    0  501 -0.00000000000E+00  0.00000000000E+00  0.48101707762E+03  0.48101707762E+03  0.00000000000E+00 0.  1.
          2   -1    0    0  501    0  0.00000000000E+00 -0.00000000000E+00 -0.34747863277E+04  0.34747863277E+04  0.00000000000E+00 0. -1.
         23    2    1    2    0    0  0.11268471641E+04  0.22408717173E+03 -0.59710821426E+03  0.12979878149E+04  0.90744456550E+02 0.  0.
         11    1    3    3    0    0  0.99242536529E+03  0.18458165043E+03 -0.55359207073E+03  0.11512787117E+04  0.00000000000E+00 0. -1.
        -11    1    3    3    0    0  0.13442179883E+03  0.39505521306E+02 -0.43516143530E+02  0.14670910320E+03  0.00000000000E+00 0.  1.
         22    1    1    2    0    0 -0.11268471641E+04 -0.22408717173E+03 -0.23966610358E+04  0.26578155903E+04  0.00000000000E+00 0. -1.
<mgrwt>
<rscale>  0 0.25856771E+04</rscale>
<asrwt>0</asrwt>
<pdfrwt beam="1">  1        2 0.53458249E+00 0.25856771E+04</pdfrwt>
<pdfrwt beam="2">  1       -2 0.74002630E-01 0.25856771E+04</pdfrwt>
<totfact> 0.12342024E+00</totfact>
</mgrwt>
</event>
<event>
 6    1  0.1780144E-005  0.1359971E+04  0.7818608E-02  0.8983314E-01
         -1   -1    0    0    0  501 -0.00000000000E+00  0.00000000000E+00  0.95588459929E+03  0.95588459929E+03  0.00000000000E+00 0.  1.
          1   -1    0    0  501    0  0.00000000000E+00 -0.00000000000E+00 -0.48371963256E+03  0.48371963256E+03  0.00000000000E+00 0. -1.
         23    2    1    2    0    0  0.16163403938E+03 -0.47371447719E+03 -0.24536754025E+03  0.56474203289E+03  0.90539302648E+02 0.  0.
         13    1    3    3    0    0  0.70648379778E+02 -0.29755752260E+03 -0.18525599093E+03  0.35756321818E+03  0.00000000000E+00 0.  1.
        -13    1    3    3    0    0  0.90985659607E+02 -0.17615695459E+03 -0.60111549318E+02  0.20717881471E+03  0.00000000000E+00 0. -1.
         22    1    1    2    0    0 -0.16163403938E+03  0.47371447719E+03  0.71753250699E+03  0.87486219896E+03  0.00000000000E+00 0.  1.
<mgrwt>
<rscale>  0 0.13599708E+04</rscale>
<asrwt>0</asrwt>
<pdfrwt beam="1">  1        1 0.74418405E-01 0.13599708E+04</pdfrwt>
<pdfrwt beam="2">  1       -1 0.14705917E+00 0.13599708E+04</pdfrwt>
<totfact> 0.16698789E+01</totfact>
</mgrwt>
</event>
<event>
 6    1  0.1780144E-005  0.1378927E+04  0.7818608E-02  0.8969215E-01
         -2   -1    0    0    0  501 -0.00000000000E+00  0.00000000000E+00  0.20153442304E+03  0.20153442304E+03  0.00000000000E+00 0.  1.
          2   -1    0    0  501    0  0.00000000000E+00 -0.00000000000E+00 -0.23587039167E+04  0.23587039167E+04  0.00000000000E+00 0. -1.
         23    2    1    2    0    0  0.46249920856E+03  0.28259521499E+03 -0.18680803904E+04  0.19459598336E+04  0.57181777234E+02 0.  0.
         13    1    3    3    0    0  0.11549878931E+03  0.85657490343E+02 -0.42089882678E+03  0.44478421551E+03  0.00000000000E+00 0.  1.
        -13    1    3    3    0    0  0.34700041926E+03  0.19693772465E+03 -0.14471815636E+04  0.15011756181E+04  0.00000000000E+00 0. -1.
         22    1    1    2    0    0 -0.46249920856E+03 -0.28259521499E+03 -0.28908910330E+03  0.61427850614E+03  0.00000000000E+00 0.  1.
<mgrwt>
<rscale>  0 0.13789272E+04</rscale>
<asrwt>0</asrwt>
<pdfrwt beam="1">  1        2 0.36287754E+00 0.13789272E+04</pdfrwt>
<pdfrwt beam="2">  1       -2 0.31005295E-01 0.13789272E+04</pdfrwt>
<totfact> 0.39555729E+01</totfact>
</mgrwt>
</event>
<event>
 6    1  0.2307614E-005  0.3715131E+04  0.7818608E-02  0.8064617E-01
          2   -1    0    0  501    0  0.00000000000E+00  0.00000000000E+00  0.27422120481E+04  0.27422120481E+04  0.00000000000E+00 0. -1.
         -2   -1    0    0    0  501 -0.00000000000E+00 -0.00000000000E+00 -0.12583085863E+04  0.12583085863E+04  0.00000000000E+00 0.  1.
         23    2    1    2    0    0 -0.51120219131E+03 -0.65117699748E+03 -0.10458938065E+04  0.13387104644E+04  0.11354598444E+03 0.  0.
         11    1    3    3    0    0 -0.32707988999E+03 -0.37696760572E+03 -0.70775375961E+03  0.86602610494E+03  0.00000000000E+00 0.  1.
        -11    1    3    3    0    0 -0.18412230131E+03 -0.27420939175E+03 -0.33814004693E+03  0.47268435949E+03  0.00000000000E+00 0. -1.
         22    1    1    2    0    0  0.51120219131E+03  0.65117699748E+03  0.25297972683E+04  0.26618101700E+04  0.00000000000E+00 0. -1.
<mgrwt>
<rscale>  0 0.37151307E+04</rscale>
<asrwt>0</asrwt>
<pdfrwt beam="1">  1        2 0.42187878E+00 0.37151307E+04</pdfrwt>
<pdfrwt beam="2">  1       -2 0.19358594E+00 0.37151307E+04</pdfrwt>
<totfact> 0.29661524E-01</totfact>
</mgrwt>
</event>
<event>
 6    1  0.1780144E-005  0.3333941E+04  0.7818608E-02  0.8154312E-01
         -1   -1    0    0    0  501 -0.00000000000E+00  0.00000000000E+00  0.22425650336E+04  0.22425650336E+04  0.00000000000E+00 0.  1.
          1   -1    0    0  501    0  0.00000000000E+00 -0.00000000000E+00 -0.12391128861E+04  0.12391128861E+04  0.00000000000E+00 0. -1.
         23    2    1    2    0    0 -0.58843276532E+03 -0.29129799258E+03 -0.10965151097E+04  0.12814574486E+04  0.93167414637E+02 0.  0.
         11    1    3    3    0    0 -0.11485519342E+03 -0.88816566079E+02 -0.19392185932E+03  0.24225149202E+03  0.00000000000E+00 0. -1.
        -11    1    3    3    0    0 -0.47357757191E+03 -0.20248142650E+03 -0.90259325033E+03  0.10392059566E+04  0.00000000000E+00 0.  1.
         22    1    1    2    0    0  0.58843276532E+03  0.29129799258E+03  0.20999672572E+04  0.22002204710E+04  0.00000000000E+00 0.  1.
<mgrwt>
<rscale>  0 0.33339413E+04</rscale>
<asrwt>0</asrwt>
<pdfrwt beam="1">  1        1 0.19063275E+00 0.33339413E+04</pdfrwt>
<pdfrwt beam="2">  1       -1 0.34501001E+00 0.33339413E+04</pdfrwt>
<totfact> 0.13874092E-01</totfact>
</mgrwt>
</event>
<event>
 6    1  0.1780144E-005  0.2447703E+04  0.7818608E-02  0.8421857E-01
         -2   -1    0    0    0  501 -0.00000000000E+00  0.00000000000E+00  0.11340134810E+04  0.11340134810E+04  0.00000000000E+00 0.  1.
          2   -1    0    0  501    0  0.00000000000E+00 -0.00000000000E+00 -0.13208062424E+04  0.13208062424E+04  0.00000000000E+00 0. -1.
         23    2    1    2    0    0 -0.44104956056E+03  0.98087537501E+02 -0.12325040193E+04  0.13156718336E+04  0.88206214089E+02 0.  0.
         13    1    3    3    0    0 -0.13169683793E+03  0.65700725493E+02 -0.33876461926E+03  0.36935363775E+03  0.00000000000E+00 0. -1.
        -13    1    3    3    0    0 -0.30935272262E+03  0.32386812008E+02 -0.89373940008E+03  0.94631819588E+03  0.00000000000E+00 0.  1.
         22    1    1    2    0    0  0.44104956056E+03 -0.98087537501E+02  0.10457112579E+04  0.11391478898E+04  0.00000000000E+00 0.  1.
<mgrwt>
<rscale>  0 0.24477027E+04</rscale>
<asrwt>0</asrwt>
<pdfrwt beam="1">  1        2 0.20320096E+00 0.24477027E+04</pdfrwt>
<pdfrwt beam="2">  1       -2 0.17446361E+00 0.24477027E+04</pdfrwt>
<totfact> 0.28542052E+00</totfact>
</mgrwt>
</event>
<event>
 6    1  0.1780144E-005  0.2231667E+04  0.7818608E-02  0.8505362E-01
          2   -1    0    0  501    0  0.00000000000E+00  0.00000000000E+00  0.69909253122E+03  0.69909253122E+03  0.00000000000E+00 0. -1.
         -2   -1    0    0    0  501 -0.00000000000E+00 -0.00000000000E+00 -0.17810009147E+04  0.17810009147E+04  0.00000000000E+00 0.  1.
         23    2    1    2    0    0  0.62287140759E+03 -0.14631611750E+03 -0.15551939511E+04  0.16842439468E+04  0.93124915739E+02 0.  0.
         11    1    3    3    0    0  0.17238828239E+03 -0.82564971625E+02 -0.43167790291E+03  0.47210222019E+03  0.00000000000E+00 0. -1.
        -11    1    3    3    0    0  0.45048312519E+03 -0.63751145878E+02 -0.11235160482E+04  0.12121417266E+04  0.00000000000E+00 0.  1.
         22    1    1    2    0    0 -0.62287140759E+03  0.14631611750E+03  0.47328556771E+03  0.79584949911E+03  0.00000000000E+00 0. -1.
<mgrwt>
<rscale>  0 0.22316670E+04</rscale>
<asrwt>0</asrwt>
<pdfrwt beam="1">  1        2 0.10755270E+00 0.22316670E+04</pdfrwt>
<pdfrwt beam="2">  1       -2 0.27400014E+00 0.22316670E+04</pdfrwt>
<totfact> 0.17143794E+00</totfact>
</mgrwt>
</event>
<event>
 6    1  0.1780144E-005  0.3524892E+04  0.7818608E-02  0.8107916E-01
          2   -1    0    0  501    0  0.00000000000E+00  0.00000000000E+00  0.30840041678E+04  0.30840041678E+04  0.00000000000E+00 0.  1.
         -2   -1    0    0    0  501 -0.00000000000E+00 -0.00000000000E+00 -0.10072024521E+04  0.10072024521E+04  0.00000000000E+00 0. -1.
         23    2    1    2    0    0  0.11097577025E+04  0.12063320145E+04  0.17870498248E+04  0.24266480461E+04  0.90964693414E+02 0.  0.
         11    1    3    3    0    0  0.84674328862E+03  0.97250035064E+03  0.14217844655E+04  0.19194275696E+04  0.00000000000E+00 0.  1.
        -11    1    3    3    0    0  0.26301441393E+03  0.23383166389E+03  0.36526535932E+03  0.50722047641E+03  0.00000000000E+00 0. -1.
         22    1    1    2    0    0 -0.11097577025E+04 -0.12063320145E+04  0.28975189085E+03  0.16645585739E+04  0.00000000000E+00 0.  1.
<mgrwt>
<rscale>  0 0.35248924E+04</rscale>
<asrwt>0</asrwt>
<pdfrwt beam="1">  1        2 0.47446218E+00 0.35248924E+04</pdfrwt>
<pdfrwt beam="2">  1       -2 0.15495422E+00 0.35248924E+04</pdfrwt>
<totfact> 0.34682218E-01</totfact>
</mgrwt>
</event>
<event>
 6    1  0.1780144E-005  0.1137079E+04  0.7818608E-02  0.9169787E-01
         -2   -1    0    0    0  501 -0.00000000000E+00  0.00000000000E+00  0.25083529470E+03  0.25083529470E+03  0.00000000000E+00 0.  1.
          2   -1    0    0  501    0  0.00000000000E+00 -0.00000000000E+00 -0.12886428764E+04  0.12886428764E+04  0.00000000000E+00 0. -1.
         23    2    1    2    0    0  0.52934945882E+03  0.18658170190E+03 -0.43634061248E+03  0.71680806947E+03  0.91635677087E+02 0.  0.
         11    1    3    3    0    0  0.25979800089E+03  0.13983118230E+03 -0.23265686805E+03  0.37573525129E+03  0.00000000000E+00 0.  1.
        -11    1    3    3    0    0  0.26955145793E+03  0.46750519603E+02 -0.20368374442E+03  0.34107281817E+03  0.00000000000E+00 0. -1.
         22    1    1    2    0    0 -0.52934945882E+03 -0.18658170190E+03 -0.60146696920E+03  0.82267010160E+03  0.00000000000E+00 0. -1.
<mgrwt>
<rscale>  0 0.11370789E+04</rscale>
<asrwt>0</asrwt>
<pdfrwt beam="1">  1        2 0.19825275E+00 0.11370789E+04</pdfrwt>
<pdfrwt beam="2">  1       -2 0.38590046E-01 0.11370789E+04</pdfrwt>
<totfact> 0.10541206E+02</totfact>
</mgrwt>
</event>
<event>
 6    1  0.1780144E-005  0.5162414E+04  0.7818608E-02  0.7803930E-01
         -2   -1    0    0    0  501 -0.00000000000E+00  0.00000000000E+00  0.16555792330E+04  0.16555792330E+04  0.00000000000E+00 0.  1.
          2   -1    0    0  501    0  0.00000000000E+00 -0.00000000000E+00 -0.40243496584E+04  0.40243496584E+04  0.00000000000E+00 0. -1.
         23    2    1    2    0    0  0.12814630666E+04 -0.48016093164E+02 -0.36484408648E+04  0.38682971491E+04  0.90271553838E+02 0.  0.
         13    1    3    3    0    0  0.21303353883E+03 -0.12805184531E+02 -0.51272054002E+03  0.55536439711E+03  0.00000000000E+00 0. -1.
        -13    1    3    3    0    0  0.10684295278E+04 -0.35210908633E+02 -0.31357203248E+04  0.33129327520E+04  0.00000000000E+00 0.  1.
         22    1    1    2    0    0 -0.12814630666E+04  0.48016093164E+02  0.12796704394E+04  0.18116317423E+04  0.00000000000E+00 0.  1.
<mgrwt>
<rscale>  0 0.51624141E+04</rscale>
<asrwt>0</asrwt>
<pdfrwt beam="1">  1        2 0.61913071E+00 0.51624141E+04</pdfrwt>
<pdfrwt beam="2">  1       -2 0.25470450E+00 0.51624141E+04</pdfrwt>
<totfact> 0.14054130E-02</totfact>
</mgrwt>
</event>
<event>
 6    1  0.1823980E-005  0.2604984E+04  0.7818608E-02  0.8366510E-01
         -2   -1    0    0    0  501 -0.00000000000E+00  0.00000000000E+00  0.83939422342E+03  0.83939422342E+03  0.00000000000E+00 0.  1.
          2   -1    0    0  501    0  0.00000000000E+00 -0.00000000000E+00 -0.20210832596E+04  0.20210832596E+04  0.00000000000E+00 0. -1.
         23    2    1    2    0    0  0.15592384561E+03  0.94688565276E+03  0.37285403433E+03  0.10335924721E+04  0.91589205047E+02 0.  0.
         13    1    3    3    0    0  0.84895814205E+02  0.49278442581E+03  0.24310579496E+03  0.55600738947E+03  0.00000000000E+00 0. -1.
        -13    1    3    3    0    0  0.71028031408E+02  0.45410122694E+03  0.12974823936E+03  0.47758508265E+03  0.00000000000E+00 0.  1.
         22    1    1    2    0    0 -0.15592384561E+03 -0.94688565276E+03 -0.15545430705E+04  0.18268850109E+04  0.00000000000E+00 0. -1.
<mgrwt>
<rscale>  0 0.26049842E+04</rscale>
<asrwt>0</asrwt>
<pdfrwt beam="1">  1        2 0.31093589E+00 0.26049842E+04</pdfrwt>
<pdfrwt beam="2">  1       -2 0.12913757E+00 0.26049842E+04</pdfrwt>
<totfact> 0.25397149E+00</totfact>
</mgrwt>
</event>
<event>
 6    1  0.1780144E-005  0.5569553E+03  0.7818608E-02  0.9998967E-01
         -2   -1    0    0    0  501 -0.00000000000E+00  0.00000000000E+00  0.33232531155E+02  0.33232531155E+02  0.00000000000E+00 0.  1.
          2   -1    0    0  501    0  0.00000000000E+00 -0.00000000000E+00 -0.23335512386E+04  0.23335512386E+04  0.00000000000E+00 0. -1.
         23    2    1    2    0    0  0.14926619054E+03 -0.22329146436E+03 -0.12773235341E+04  0.13091171879E+04  0.10046356147E+03 0.  0.
         13    1    3    3    0    0  0.28524214433E+02 -0.24776802785E+01 -0.66274159267E+02  0.72194417340E+02  0.00000000000E+00 0. -1.
        -13    1    3    3    0    0  0.12074197611E+03 -0.22081378408E+03 -0.12110493749E+04  0.12369227706E+04  0.00000000000E+00 0.  1.
         22    1    1    2    0    0 -0.14926619054E+03  0.22329146436E+03 -0.10229951733E+04  0.10576665818E+04  0.00000000000E+00 0.  1.
<mgrwt>
<rscale>  0 0.55695535E+03</rscale>
<asrwt>0</asrwt>
<pdfrwt beam="1">  1        2 0.35900814E+00 0.55695535E+03</pdfrwt>
<pdfrwt beam="2">  1       -2 0.51126935E-02 0.55695535E+03</pdfrwt>
<totfact> 0.90639948E+02</totfact>
</mgrwt>
</event>
<event>
 6    1  0.1780144E-005  0.1928775E+04  0.7818608E-02  0.8640664E-01
         -2   -1    0    0    0  501 -0.00000000000E+00  0.00000000000E+00  0.24113826086E+03  0.24113826086E+03  0.00000000000E+00 0.  1.
          2   -1    0    0  501    0  0.00000000000E+00 -0.00000000000E+00 -0.38568871755E+04  0.38568871755E+04  0.00000000000E+00 0. -1.
         23    2    1    2    0    0 -0.81096594131E+03 -0.19012721042E+03 -0.79098563727E+03  0.11530124165E+04  0.99826049146E+02 0.  0.
         11    1    3    3    0    0 -0.44109443583E+03 -0.57035712026E+02 -0.39089728069E+03  0.59213010210E+03  0.00000000000E+00 0. -1.
        -11    1    3    3    0    0 -0.36987150547E+03 -0.13309149840E+03 -0.40008835659E+03  0.56088231438E+03  0.00000000000E+00 0.  1.
         22    1    1    2    0    0  0.81096594131E+03  0.19012721042E+03 -0.28247632773E+04  0.29450130198E+04  0.00000000000E+00 0. -1.
<mgrwt>
<rscale>  0 0.19287748E+04</rscale>
<asrwt>0</asrwt>
<pdfrwt beam="1">  1        2 0.59336724E+00 0.19287748E+04</pdfrwt>
<pdfrwt beam="2">  1       -2 0.37098195E-01 0.19287748E+04</pdfrwt>
<totfact> 0.28712172E+00</totfact>
</mgrwt>
</event>
<event>
 6    1  0.1780144E-005  0.2322120E+04  0.7818608E-02  0.8469250E-01
         -1   -1    0    0    0  501 -0.00000000000E+00  0.00000000000E+00  0.17839512890E+04  0.17839512890E+04  0.00000000000E+00 0. -1.
          1   -1    0    0  501    0  0.00000000000E+00 -0.00000000000E+00 -0.75565993401E+03  0.75565993401E+03  0.00000000000E+00 0.  1.
         23    2    1    2    0    0 -0.69834734103E+03  0.52857744464E+03 -0.31570887464E+03  0.93542303550E+03  0.90890253063E+02 0.  0.
         13    1    3    3    0    0 -0.99427242379E+02  0.87526762727E+02 -0.15654266739E+02  0.13338578181E+03  0.00000000000E+00 0. -1.
        -13    1    3    3    0    0 -0.59892009865E+03  0.44105068192E+03 -0.30005460790E+03  0.80203725369E+03  0.00000000000E+00 0.  1.
         22    1    1    2    0    0  0.69834734103E+03 -0.52857744464E+03  0.13440002296E+04  0.16041881875E+04  0.00000000000E+00 0. -1.
<mgrwt>
<rscale>  0 0.23221202E+04</rscale>
<asrwt>0</asrwt>
<pdfrwt beam="1">  1        1 0.11625537E+00 0.23221202E+04</pdfrwt>
<pdfrwt beam="2">  1       -1 0.27445404E+00 0.23221202E+04</pdfrwt>
<totfact> 0.10557951E+00</totfact>
</mgrwt>
</event>
<event>
 6    1  0.1780144E-005  0.2615752E+04  0.7818608E-02  0.8362870E-01
          2   -1    0    0  501    0  0.00000000000E+00  0.00000000000E+00  0.16983960552E+04  0.16983960552E+04  0.00000000000E+00 0. -1.
         -2   -1    0    0    0  501 -0.00000000000E+00 -0.00000000000E+00 -0.10071500736E+04  0.10071500736E+04  0.00000000000E+00 0.  1.
         23    2    1    2    0    0  0.25469290695E+03  0.69767572749E+03 -0.76572363971E+03  0.10701928412E+04  0.85791184821E+02 0.  0.
         13    1    3    3    0    0  0.49338068666E+02  0.17161866779E+03 -0.23569455694E+03  0.29570109287E+03  0.00000000000E+00 0.  1.
        -13    1    3    3    0    0  0.20535483829E+03  0.52605705971E+03 -0.53002908277E+03  0.77449174834E+03  0.00000000000E+00 0. -1.
         22    1    1    2    0    0 -0.25469290695E+03 -0.69767572749E+03  0.14569696213E+04  0.16353532875E+04  0.00000000000E+00 0. -1.
<mgrwt>
<rscale>  0 0.26157521E+04</rscale>
<asrwt>0</asrwt>
<pdfrwt beam="1">  1        2 0.26129170E+00 0.26157521E+04</pdfrwt>
<pdfrwt beam="2">  1       -2 0.15494616E+00 0.26157521E+04</pdfrwt>
<totfact> 0.23858564E+00</totfact>
</mgrwt>
</event>
<event>
 6    1  0.1780144E-005  0.1905175E+04  0.7818608E-02  0.8652285E-01
         -1   -1    0    0    0  501 -0.00000000000E+00  0.00000000000E+00  0.96756905492E+03  0.96756905492E+03  0.00000000000E+00 0.  1.
          1   -1    0    0  501    0  0.00000000000E+00 -0.00000000000E+00 -0.93783762273E+03  0.93783762273E+03  0.00000000000E+00 0. -1.
         23    2    1    2    0    0 -0.10960726419E+03  0.75243844751E+03 -0.55557292765E+03  0.94584502602E+03  0.88227918738E+02 0.  0.
         11    1    3    3    0    0 -0.54850902470E+02  0.42599821382E+03 -0.25997232304E+03  0.50206444649E+03  0.00000000000E+00 0. -1.
        -11    1    3    3    0    0 -0.54756361717E+02  0.32644023369E+03 -0.29560060461E+03  0.44378057953E+03  0.00000000000E+00 0.  1.
         22    1    1    2    0    0  0.10960726419E+03 -0.75243844751E+03  0.58530435984E+03  0.95956165164E+03  0.00000000000E+00 0.  1.
<mgrwt>
<rscale>  0 0.19051747E+04</rscale>
<asrwt>0</asrwt>
<pdfrwt beam="1">  1        1 0.14428271E+00 0.19051747E+04</pdfrwt>
<pdfrwt beam="2">  1       -1 0.14885678E+00 0.19051747E+04</pdfrwt>
<totfact> 0.56469897E+00</totfact>
</mgrwt>
</event>
<event>
 6    1  0.1780144E-005  0.2259985E+04  0.7818608E-02  0.8493868E-01
         -2   -1    0    0    0  501 -0.00000000000E+00  0.00000000000E+00  0.88232736298E+03  0.88232736298E+03  0.00000000000E+00 0.  1.
          2   -1    0    0  501    0  0.00000000000E+00 -0.00000000000E+00 -0.14471758461E+04  0.14471758461E+04  0.00000000000E+00 0. -1.
         23    2    1    2    0    0 -0.71773195754E+03  0.86154148918E+03 -0.15590273356E+03  0.11359247548E+04  0.92878877069E+02 0.  0.
         13    1    3    3    0    0 -0.31358186984E+03  0.32146884933E+03 -0.91487921688E+02  0.45830759321E+03  0.00000000000E+00 0. -1.
        -13    1    3    3    0    0 -0.40415008770E+03  0.54007263985E+03 -0.64414811877E+02  0.67761716160E+03  0.00000000000E+00 0.  1.
         22    1    1    2    0    0  0.71773195754E+03 -0.86154148918E+03 -0.40894574957E+03  0.11935784543E+04  0.00000000000E+00 0. -1.
<mgrwt>
<rscale>  0 0.22599848E+04</rscale>
<asrwt>0</asrwt>
<pdfrwt beam="1">  1        2 0.22264244E+00 0.22599848E+04</pdfrwt>
<pdfrwt beam="2">  1       -2 0.13574267E+00 0.22599848E+04</pdfrwt>
<totfact> 0.48131597E+00</totfact>
</mgrwt>
</event>
<event>
 6    1  0.1780144E-005  0.2801799E+04  0.7818608E-02  0.8302710E-01
          2   -1    0    0  501    0  0.00000000000E+00  0.00000000000E+00  0.20116619814E+04  0.20116619814E+04  0.00000000000E+00 0.  1.
         -2   -1    0    0    0  501 -0.00000000000E+00 -0.00000000000E+00 -0.97557101593E+03  0.97557101593E+03  0.00000000000E+00 0. -1.
         23    2    1    2    0    0 -0.59815016500E+02  0.13615455295E+04  0.85743594763E+03  0.16127142887E+04  0.90922535465E+02 0.  0.
         11    1    3    3    0    0 -0.17122120856E+02  0.11317752282E+04  0.69826892859E+03  0.13299578305E+04  0.00000000000E+00 0. -1.
        -11    1    3    3    0    0 -0.42692895645E+02  0.22977030128E+03  0.15916701903E+03  0.28275645817E+03  0.00000000000E+00 0.  1.
         22    1    1    2    0    0  0.59815016500E+02 -0.13615455295E+04  0.17865501785E+03  0.13745187087E+04  0.00000000000E+00 0. -1.
<mgrwt>
<rscale>  0 0.28017988E+04</rscale>
<asrwt>0</asrwt>
<pdfrwt beam="1">  1        2 0.30948646E+00 0.28017988E+04</pdfrwt>
<pdfrwt beam="2">  1       -2 0.15008785E+00 0.28017988E+04</pdfrwt>
<totfact> 0.17132385E+00</totfact>
</mgrwt>
</event>
<event>
 6    1  0.1780144E-005  0.1701418E+04  0.7818608E-02  0.8760556E-01
          4   -1    0    0  501    0  0.00000000000E+00  0.00000000000E+00  0.14401346033E+04  0.14401346033E+04  0.00000000000E+00 0. -1.
         -4   -1    0    0    0  501 -0.00000000000E+00 -0.00000000000E+00 -0.50252655848E+03  0.50252655848E+03  0.00000000000E+00 0.  1.
         23    2    1    2    0    0  0.32199467027E+02  0.73960618765E+03 -0.28661534028E+01  0.74577109330E+03  0.90067698348E+02 0.  0.
         13    1    3    3    0    0  0.62241213616E+02  0.57192364069E+03  0.32327824699E+01  0.57530954306E+03  0.00000000000E+00 0. -1.
        -13    1    3    3    0    0 -0.30041746589E+02  0.16768254695E+03 -0.60989358727E+01  0.17046155024E+03  0.00000000000E+00 0.  1.
         22    1    1    2    0    0 -0.32199467027E+02 -0.73960618765E+03  0.94047419818E+03  0.11968900684E+04  0.00000000000E+00 0. -1.
<mgrwt>
<rscale>  0 0.17014181E+04</rscale>
<asrwt>0</asrwt>
<pdfrwt beam="1">  1        4 0.22155917E+00 0.17014181E+04</pdfrwt>
<pdfrwt beam="2">  1       -4 0.77311779E-01 0.17014181E+04</pdfrwt>
<totfact> 0.27220629E-01</totfact>
</mgrwt>
</event>
<event>
 6    1  0.1780144E-005  0.6544978E+04  0.7818608E-02  0.7626274E-01
         -1   -1    0    0    0  501 -0.00000000000E+00  0.00000000000E+00  0.42385775137E+04  0.42385775137E+04  0.00000000000E+00 0. -1.
          1   -1    0    0  501    0  0.00000000000E+00 -0.00000000000E+00 -0.25265985261E+04  0.25265985261E+04  0.00000000000E+00 0.  1.
         23    2    1    2    0    0 -0.11956204323E+04 -0.14538452898E+04  0.36223161964E+04  0.40832807032E+04  0.93980472983E+02 0.  0.
         13    1    3    3    0    0 -0.74865685642E+03 -0.93249062399E+03  0.22066980401E+04  0.25098888607E+04  0.00000000000E+00 0.  1.
        -13    1    3    3    0    0 -0.44696357587E+03 -0.52135466583E+03  0.14156181563E+04  0.15733918425E+04  0.00000000000E+00 0. -1.
         22    1    1    2    0    0  0.11956204323E+04  0.14538452898E+04 -0.19103372089E+04  0.26818953366E+04  0.00000000000E+00 0.  1.
<mgrwt>
<rscale>  0 0.65449778E+04</rscale>
<asrwt>0</asrwt>
<pdfrwt beam="1">  1        1 0.38870747E+00 0.65449778E+04</pdfrwt>
<pdfrwt beam="2">  1       -1 0.65208884E+00 0.65449778E+04</pdfrwt>
<totfact> 0.24620056E-04</totfact>
</mgrwt>
</event>
<event>
 6    1  0.1780144E-005  0.2023002E+04  0.7818608E-02  0.8595941E-01
         -2   -1    0    0    0  501 -0.00000000000E+00  0.00000000000E+00  0.10892934304E+04  0.10892934304E+04  0.00000000000E+00 0.  1.
          2   -1    0    0  501    0  0.00000000000E+00 -0.00000000000E+00 -0.93926399259E+03  0.93926399259E+03  0.00000000000E+00 0. -1.
         23    2    1    2    0    0 -0.96722477040E+03 -0.16566902032E+03  0.31277678404E+03  0.10338430522E+04  0.89622313993E+02 0.  0.
         13    1    3    3    0    0 -0.54517267657E+03 -0.85301682270E+02  0.22159750990E+03  0.59463861351E+03  0.00000000000E+00 0. -1.
        -13    1    3    3    0    0 -0.42205209383E+03 -0.80367338055E+02  0.91179274142E+02  0.43920443869E+03  0.00000000000E+00 0.  1.
         22    1    1    2    0    0  0.96722477040E+03  0.16566902032E+03 -0.16274734623E+03  0.99471437080E+03  0.00000000000E+00 0. -1.
<mgrwt>
<rscale>  0 0.20230018E+04</rscale>
<asrwt>0</asrwt>
<pdfrwt beam="1">  1        2 0.14450215E+00 0.20230018E+04</pdfrwt>
<pdfrwt beam="2">  1       -2 0.16758361E+00 0.20230018E+04</pdfrwt>
<totfact> 0.56744509E+00</totfact>
</mgrwt>
</event>
<event>
 6    1  0.1780144E-005  0.2865287E+04  0.7818608E-02  0.8283281E-01
          1   -1    0    0  501    0  0.00000000000E+00  0.00000000000E+00  0.16317013751E+04  0.16317013751E+04  0.00000000000E+00 0. -1.
         -1   -1    0    0    0  501 -0.00000000000E+00 -0.00000000000E+00 -0.12578691718E+04  0.12578691718E+04  0.00000000000E+00 0.  1.
         23    2    1    2    0    0 -0.63486800989E+02 -0.64661206623E+03 -0.10989554100E+04  0.12798373107E+04  0.90237523720E+02 0.  0.
         11    1    3    3    0    0  0.16753058115E+02 -0.28759426668E+03 -0.48173864225E+03  0.56130494976E+03  0.00000000000E+00 0. -1.
        -11    1    3    3    0    0 -0.80239859104E+02 -0.35901779955E+03 -0.61721676773E+03  0.71853236096E+03  0.00000000000E+00 0.  1.
         22    1    1    2    0    0  0.63486800989E+02  0.64661206623E+03  0.14727876133E+04  0.16097332363E+04  0.00000000000E+00 0. -1.
<mgrwt>
<rscale>  0 0.28652866E+04</rscale>
<asrwt>0</asrwt>
<pdfrwt beam="1">  1        1 0.25103098E+00 0.28652866E+04</pdfrwt>
<pdfrwt beam="2">  1       -1 0.19351833E+00 0.28652866E+04</pdfrwt>
<totfact> 0.76285234E-01</totfact>
</mgrwt>
</event>
<event>
 6    1  0.1780144E-005  0.1713965E+04  0.7818608E-02  0.8753439E-01
          2   -1    0    0  501    0  0.00000000000E+00  0.00000000000E+00  0.22019933038E+04  0.22019933038E+04  0.00000000000E+00 0. -1.
         -2   -1    0    0    0  501 -0.00000000000E+00 -0.00000000000E+00 -0.33352463305E+03  0.33352463305E+03  0.00000000000E+00 0.  1.
         23    2    1    2    0    0  0.40760625498E+03  0.63634223938E+03  0.34663652837E+03  0.83638657810E+03  0.91166444025E+02 0.  0.
         11    1    3    3    0    0  0.31486872068E+03  0.55145402633E+03  0.29973544439E+03  0.70220024996E+03  0.00000000000E+00 0. -1.
        -11    1    3    3    0    0  0.92737534295E+02  0.84888213043E+02  0.46901083972E+02  0.13418632814E+03  0.00000000000E+00 0.  1.
         22    1    1    2    0    0 -0.40760625498E+03 -0.63634223938E+03  0.15218321424E+04  0.16991313588E+04  0.00000000000E+00 0. -1.
<mgrwt>
<rscale>  0 0.17139650E+04</rscale>
<asrwt>0</asrwt>
<pdfrwt beam="1">  1        2 0.33876819E+00 0.17139650E+04</pdfrwt>
<pdfrwt beam="2">  1       -2 0.51311483E-01 0.17139650E+04</pdfrwt>
<totfact> 0.17577828E+01</totfact>
</mgrwt>
</event>
<event>
 6    1  0.1780144E-005  0.3118675E+04  0.7818608E-02  0.8210631E-01
         -2   -1    0    0    0  501 -0.00000000000E+00  0.00000000000E+00  0.20861404107E+04  0.20861404107E+04  0.00000000000E+00 0. -1.
          2   -1    0    0  501    0  0.00000000000E+00 -0.00000000000E+00 -0.11655654413E+04  0.11655654413E+04  0.00000000000E+00 0.  1.
         23    2    1    2    0    0  0.15060039322E+04 -0.39807316948E+03  0.49274814530E+03  0.16362969615E+04  0.90315665716E+02 0.  0.
         13    1    3    3    0    0  0.91806859361E+03 -0.26349057814E+03  0.34289943932E+03  0.10148188276E+04  0.00000000000E+00 0.  1.
        -13    1    3    3    0    0  0.58793533856E+03 -0.13458259134E+03  0.14984870598E+03  0.62147813389E+03  0.00000000000E+00 0. -1.
         22    1    1    2    0    0 -0.15060039322E+04  0.39807316948E+03  0.42782682412E+03  0.16154088905E+04  0.00000000000E+00 0. -1.
<mgrwt>
<rscale>  0 0.31186748E+04</rscale>
<asrwt>0</asrwt>
<pdfrwt beam="1">  1        2 0.17931776E+00 0.31186748E+04</pdfrwt>
<pdfrwt beam="2">  1       -2 0.32094468E+00 0.31186748E+04</pdfrwt>
<totfact> 0.39778200E-01</totfact>
</mgrwt>
</event>
<event>
 6    1  0.1780144E-005  0.2673718E+04  0.7818608E-02  0.8343583E-01
          2   -1    0    0  501    0  0.00000000000E+00  0.00000000000E+00  0.18342203623E+04  0.18342203623E+04  0.00000000000E+00 0. -1.
         -2   -1    0    0    0  501 -0.00000000000E+00 -0.00000000000E+00 -0.97436065391E+03  0.97436065391E+03  0.00000000000E+00 0.  1.
         23    2    1    2    0    0 -0.11423550881E+04  0.48019393124E+03  0.95260227477E+03  0.15659376472E+04  0.95646546801E+02 0.  0.
         13    1    3    3    0    0 -0.18183397607E+03  0.43135004911E+02  0.16249776460E+03  0.24764843428E+03  0.00000000000E+00 0. -1.
        -13    1    3    3    0    0 -0.96052111205E+03  0.43705892633E+03  0.79010451017E+03  0.13182892129E+04  0.00000000000E+00 0.  1.
         22    1    1    2    0    0  0.11423550881E+04 -0.48019393124E+03 -0.92742566418E+02  0.12426433690E+04  0.00000000000E+00 0.  1.
<mgrwt>
<rscale>  0 0.26737181E+04</rscale>
<asrwt>0</asrwt>
<pdfrwt beam="1">  1        2 0.28218775E+00 0.26737181E+04</pdfrwt>
<pdfrwt beam="2">  1       -2 0.14990164E+00 0.26737181E+04</pdfrwt>
<totfact> 0.21798009E+00</totfact>
</mgrwt>
</event>
<event>
 6    1  0.1780144E-005  0.9591985E+03  0.7818608E-02  0.9354463E-01
          1   -1    0    0  501    0  0.00000000000E+00  0.00000000000E+00  0.14578097005E+04  0.14578097005E+04  0.00000000000E+00 0. -1.
         -1   -1    0    0    0  501 -0.00000000000E+00 -0.00000000000E+00 -0.15778153523E+03  0.15778153523E+03  0.00000000000E+00 0.  1.
         23    2    1    2    0    0 -0.43612643474E+03  0.13715332983E+03  0.43278801187E+03  0.63522253638E+03  0.84763816278E+02 0.  0.
         13    1    3    3    0    0 -0.76435037965E+02 -0.29366106360E+00  0.10285910013E+03  0.12814989561E+03  0.00000000000E+00 0. -1.
        -13    1    3    3    0    0 -0.35969139678E+03  0.13744699089E+03  0.32992891174E+03  0.50707264078E+03  0.00000000000E+00 0.  1.
         22    1    1    2    0    0  0.43612643474E+03 -0.13715332983E+03  0.86724015338E+03  0.98036869931E+03  0.00000000000E+00 0. -1.
<mgrwt>
<rscale>  0 0.95919853E+03</rscale>
<asrwt>0</asrwt>
<pdfrwt beam="1">  1        1 0.22427841E+00 0.95919853E+03</pdfrwt>
<pdfrwt beam="2">  1       -1 0.24274083E-01 0.95919853E+03</pdfrwt>
<totfact> 0.10361854E+02</totfact>
</mgrwt>
</event>
<event>
 6    1  0.1780144E-005  0.1760102E+04  0.7818608E-02  0.8727809E-01
          1   -1    0    0  501    0  0.00000000000E+00  0.00000000000E+00  0.19737715960E+04  0.19737715960E+04  0.00000000000E+00 0. -1.
         -1   -1    0    0    0  501 -0.00000000000E+00 -0.00000000000E+00 -0.39239082490E+03  0.39239082490E+03  0.00000000000E+00 0.  1.
         23    2    1    2    0    0 -0.56514511460E+03 -0.48344392694E+03  0.16674480936E+03  0.76794405806E+03  0.93953253349E+02 0.  0.
         11    1    3    3    0    0 -0.44071635483E+03 -0.38949752999E+03  0.93005476283E+02  0.59547397080E+03  0.00000000000E+00 0. -1.
        -11    1    3    3    0    0 -0.12442875978E+03 -0.93946396950E+02  0.73739333075E+02  0.17247008727E+03  0.00000000000E+00 0.  1.
         22    1    1    2    0    0  0.56514511460E+03  0.48344392694E+03  0.14146359617E+04  0.15982183628E+04  0.00000000000E+00 0. -1.
<mgrwt>
<rscale>  0 0.17601021E+04</rscale>
<asrwt>0</asrwt>
<pdfrwt beam="1">  1        1 0.30365716E+00 0.17601021E+04</pdfrwt>
<pdfrwt beam="2">  1       -1 0.60367820E-01 0.17601021E+04</pdfrwt>
<totfact> 0.81807301E+00</totfact>
</mgrwt>
</event>
<event>
 6    1  0.1780144E-005  0.1257802E+04  0.7818608E-02  0.9063714E-01
          3   -1    0    0  501    0  0.00000000000E+00  0.00000000000E+00  0.44704437451E+03  0.44704437451E+03  0.00000000000E+00 0. -1.
         -3   -1    0    0    0  501 -0.00000000000E+00 -0.00000000000E+00 -0.88473716943E+03  0.88473716943E+03  0.00000000000E+00 0.  1.
         23    2    1    2    0    0  0.26064045275E+03  0.56444385908E+03 -0.14624896520E+03  0.64514494314E+03  0.91065482862E+02 0.  0.
         11    1    3    3    0    0  0.17705627015E+03  0.45833112393E+03 -0.93649344602E+02  0.50018650692E+03  0.00000000000E+00 0. -1.
        -11    1    3    3    0    0  0.83584182608E+02  0.10611273515E+03 -0.52599620602E+02  0.14495843622E+03  0.00000000000E+00 0.  1.
         22    1    1    2    0    0 -0.26064045275E+03 -0.56444385908E+03 -0.29144382972E+03  0.68663660079E+03  0.00000000000E+00 0.  1.
<mgrwt>
<rscale>  0 0.12578025E+04</rscale>
<asrwt>0</asrwt>
<pdfrwt beam="1">  1        3 0.68776058E-01 0.12578025E+04</pdfrwt>
<pdfrwt beam="2">  1       -3 0.13611341E+00 0.12578025E+04</pdfrwt>
<totfact> 0.21612653E+00</totfact>
</mgrwt>
</event>
<event>
 6    1  0.1780144E-005  0.1525811E+04  0.7818608E-02  0.8867468E-01
          1   -1    0    0  501    0  0.00000000000E+00  0.00000000000E+00  0.95519208237E+03  0.95519208237E+03  0.00000000000E+00 0. -1.
         -1   -1    0    0    0  501 -0.00000000000E+00 -0.00000000000E+00 -0.60932784513E+03  0.60932784513E+03  0.00000000000E+00 0.  1.
         23    2    1    2    0    0  0.86071740792E+02  0.32753690282E+03 -0.52424113124E+03  0.63083254968E+03  0.91826873956E+02 0.  0.
         11    1    3    3    0    0  0.37982629594E+02  0.28083777694E+03 -0.43622945249E+03  0.52020060777E+03  0.00000000000E+00 0. -1.
        -11    1    3    3    0    0  0.48089111198E+02  0.46699125881E+02 -0.88011678742E+02  0.11063194190E+03  0.00000000000E+00 0.  1.
         22    1    1    2    0    0 -0.86071740792E+02 -0.32753690282E+03  0.87010536847E+03  0.93368737783E+03  0.00000000000E+00 0. -1.
<mgrwt>
<rscale>  0 0.15258114E+04</rscale>
<asrwt>0</asrwt>
<pdfrwt beam="1">  1        1 0.14695263E+00 0.15258114E+04</pdfrwt>
<pdfrwt beam="2">  1       -1 0.93742745E-01 0.15258114E+04</pdfrwt>
<totfact> 0.17489178E+01</totfact>
</mgrwt>
</event>
<event>
 6    1  0.1780144E-005  0.7163840E+03  0.7818608E-02  0.9689616E-01
         -1   -1    0    0    0  501 -0.00000000000E+00  0.00000000000E+00  0.45988292259E+03  0.45988292259E+03  0.00000000000E+00 0.  1.
          1   -1    0    0  501    0  0.00000000000E+00 -0.00000000000E+00 -0.27898732931E+03  0.27898732931E+03  0.00000000000E+00 0. -1.
         23    2    1    2    0    0 -0.27516375712E+03  0.15589427822E+03 -0.67931835576E+02  0.33646099683E+03  0.92591300279E+02 0.  0.
         13    1    3    3    0    0 -0.21952511341E+02  0.10428452524E+02  0.20014742985E+02  0.31484207358E+02  0.00000000000E+00 0.  1.
        -13    1    3    3    0    0 -0.25321124578E+03  0.14546582570E+03 -0.87946578561E+02  0.30497678947E+03  0.00000000000E+00 0. -1.
         22    1    1    2    0    0  0.27516375712E+03 -0.15589427822E+03  0.24882742886E+03  0.40240925507E+03  0.00000000000E+00 0.  1.
<mgrwt>
<rscale>  0 0.71638400E+03</rscale>
<asrwt>0</asrwt>
<pdfrwt beam="1">  1        1 0.42921127E-01 0.71638400E+03</pdfrwt>
<pdfrwt beam="2">  1       -1 0.70751219E-01 0.71638400E+03</pdfrwt>
<totfact> 0.19736372E+02</totfact>
</mgrwt>
</event>
<event>
 6    1  0.1780144E-005  0.2095397E+04  0.7818608E-02  0.8563274E-01
         -2   -1    0    0    0  501 -0.00000000000E+00  0.00000000000E+00  0.12952439313E+04  0.12952439313E+04  0.00000000000E+00 0.  1.
          2   -1    0    0  501    0  0.00000000000E+00 -0.00000000000E+00 -0.84746351097E+03  0.84746351097E+03  0.00000000000E+00 0. -1.
         23    2    1    2    0    0  0.32646333432E+03  0.21626492513E+02  0.12401615472E+04  0.12854362692E+04  0.85438429393E+02 0.  0.
         11    1    3    3    0    0  0.25558715894E+03  0.49592027232E+01  0.81710388147E+03  0.85615894706E+03  0.00000000000E+00 0. -1.
        -11    1    3    3    0    0  0.70876175376E+02  0.16667289790E+02  0.42305766575E+03  0.42927732217E+03  0.00000000000E+00 0.  1.
         22    1    1    2    0    0 -0.32646333432E+03 -0.21626492513E+02 -0.79238112690E+03  0.85727117303E+03  0.00000000000E+00 0. -1.
<mgrwt>
<rscale>  0 0.20953968E+04</rscale>
<asrwt>0</asrwt>
<pdfrwt beam="1">  1        2 0.13037900E+00 0.20953968E+04</pdfrwt>
<pdfrwt beam="2">  1       -2 0.19926830E+00 0.20953968E+04</pdfrwt>
<totfact> 0.39493099E+00</totfact>
</mgrwt>
</event>
<event>
 6    1  0.1780144E-005  0.8518238E+03  0.7818608E-02  0.9487892E-01
         -2   -1    0    0    0  501 -0.00000000000E+00  0.00000000000E+00  0.11784617213E+03  0.11784617213E+03  0.00000000000E+00 0.  1.
          2   -1    0    0  501    0  0.00000000000E+00 -0.00000000000E+00 -0.15393028713E+04  0.15393028713E+04  0.00000000000E+00 0. -1.
         23    2    1    2    0    0 -0.20769722896E+03  0.19749122649E+03 -0.13188101667E+04  0.13527196853E+04  0.91920442283E+02 0.  0.
         11    1    3    3    0    0 -0.92663410567E+02  0.10524381921E+03 -0.84308583512E+03  0.85466747600E+03  0.00000000000E+00 0. -1.
        -11    1    3    3    0    0 -0.11503381839E+03  0.92247407274E+02 -0.47572433156E+03  0.49805220928E+03  0.00000000000E+00 0.  1.
         22    1    1    2    0    0  0.20769722896E+03 -0.19749122649E+03 -0.10264653245E+03  0.30442935811E+03  0.00000000000E+00 0.  1.
<mgrwt>
<rscale>  0 0.85182381E+03</rscale>
<asrwt>0</asrwt>
<pdfrwt beam="1">  1        2 0.23681581E+00 0.85182381E+03</pdfrwt>
<pdfrwt beam="2">  1       -2 0.18130182E-01 0.85182381E+03</pdfrwt>
<totfact> 0.30772954E+02</totfact>
</mgrwt>
</event>
<event>
 6    1  0.1780144E-005  0.2296682E+04  0.7818608E-02  0.8479230E-01
         -1   -1    0    0    0  501 -0.00000000000E+00  0.00000000000E+00  0.73681935719E+03  0.73681935719E+03  0.00000000000E+00 0.  1.
          1   -1    0    0  501    0  0.00000000000E+00 -0.00000000000E+00 -0.17897022253E+04  0.17897022253E+04  0.00000000000E+00 0. -1.
         23    2    1    2    0    0  0.10603707341E+04 -0.22022722401E+03 -0.11507792204E+03  0.10939140854E+04  0.10256205099E+03 0.  0.
         13    1    3    3    0    0  0.16068162120E+03  0.33398559149E+01 -0.12378917282E+02  0.16119235597E+03  0.00000000000E+00 0. -1.
        -13    1    3    3    0    0  0.89968911285E+03 -0.22356707993E+03 -0.10269900476E+03  0.93272172945E+03  0.00000000000E+00 0.  1.
         22    1    1    2    0    0 -0.10603707341E+04  0.22022722401E+03 -0.93780494611E+03  0.14326074971E+04  0.00000000000E+00 0. -1.
<mgrwt>
<rscale>  0 0.22966822E+04</rscale>
<asrwt>0</asrwt>
<pdfrwt beam="1">  1        1 0.27533880E+00 0.22966822E+04</pdfrwt>
<pdfrwt beam="2">  1       -1 0.11335683E+00 0.22966822E+04</pdfrwt>
<totfact> 0.26593585E+00</totfact>
</mgrwt>
</event>
<event>
 6    1  0.1780144E-005  0.4436197E+04  0.7818608E-02  0.7921903E-01
          1   -1    0    0  501    0  0.00000000000E+00  0.00000000000E+00  0.21575993244E+04  0.21575993244E+04  0.00000000000E+00 0.  1.
         -1   -1    0    0    0  501 -0.00000000000E+00 -0.00000000000E+00 -0.22802942550E+04  0.22802942550E+04  0.00000000000E+00 0. -1.
         23    2    1    2    0    0  0.20618579735E+04  0.67484718756E+03 -0.51915112032E+03  0.22324787568E+04  0.88127659885E+02 0.  0.
         11    1    3    3    0    0  0.14781957737E+04  0.44384445138E+03 -0.38174516136E+03  0.15899025161E+04  0.00000000000E+00 0. -1.
        -11    1    3    3    0    0  0.58366219979E+03  0.23100273618E+03 -0.13740595897E+03  0.64257624072E+03  0.00000000000E+00 0.  1.
         22    1    1    2    0    0 -0.20618579735E+04 -0.67484718756E+03  0.39645618980E+03  0.22054148226E+04  0.00000000000E+00 0.  1.
<mgrwt>
<rscale>  0 0.44361972E+04</rscale>
<asrwt>0</asrwt>
<pdfrwt beam="1">  1        1 0.33193836E+00 0.44361972E+04</pdfrwt>
<pdfrwt beam="2">  1       -1 0.35081450E+00 0.44361972E+04</pdfrwt>
<totfact> 0.26986514E-02</totfact>
</mgrwt>
</event>
<event>
 6    1  0.4882562E-005  0.5149938E+04  0.7818608E-02  0.7805785E-01
          2   -1    0    0  501    0  0.00000000000E+00  0.00000000000E+00  0.18206547694E+04  0.18206547694E+04  0.00000000000E+00 0. -1.
         -2   -1    0    0    0  501 -0.00000000000E+00 -0.00000000000E+00 -0.36418021795E+04  0.36418021795E+04  0.00000000000E+00 0.  1.
         23    2    1    2    0    0  0.32118285632E+03 -0.87663247858E+03 -0.34557273060E+04  0.35800397884E+04  0.54687694722E+02 0.  0.
         13    1    3    3    0    0  0.15108282979E+03 -0.48011202207E+03 -0.19147059095E+04  0.19797556150E+04  0.00000000000E+00 0. -1.
        -13    1    3    3    0    0  0.17010002654E+03 -0.39652045651E+03 -0.15410213964E+04  0.16002841734E+04  0.00000000000E+00 0.  1.
         22    1    1    2    0    0 -0.32118285632E+03  0.87663247858E+03  0.16345798959E+04  0.18824171604E+04  0.00000000000E+00 0. -1.
<mgrwt>
<rscale>  0 0.51499377E+04</rscale>
<asrwt>0</asrwt>
<pdfrwt beam="1">  1        2 0.28010073E+00 0.51499377E+04</pdfrwt>
<pdfrwt beam="2">  1       -2 0.56027726E+00 0.51499377E+04</pdfrwt>
<totfact> 0.46385695E-03</totfact>
</mgrwt>
</event>
<event>
 6    1  0.1780144E-005  0.4733203E+04  0.7818608E-02  0.7871035E-01
         -2   -1    0    0    0  501 -0.00000000000E+00  0.00000000000E+00  0.15569162520E+04  0.15569162520E+04  0.00000000000E+00 0.  1.
          2   -1    0    0  501    0  0.00000000000E+00 -0.00000000000E+00 -0.35973691861E+04  0.35973691861E+04  0.00000000000E+00 0. -1.
         23    2    1    2    0    0  0.39538946284E+03  0.17398191779E+04  0.67108200270E+03  0.19084072345E+04  0.91452277809E+02 0.  0.
         13    1    3    3    0    0  0.18898751090E+03  0.87305918042E+03  0.28811997380E+03  0.93859561638E+03  0.00000000000E+00 0.  1.
        -13    1    3    3    0    0  0.20640195194E+03  0.86675999748E+03  0.38296202890E+03  0.96981161808E+03  0.00000000000E+00 0. -1.
         22    1    1    2    0    0 -0.39538946284E+03 -0.17398191779E+04 -0.27115349368E+04  0.32458782036E+04  0.00000000000E+00 0. -1.
<mgrwt>
<rscale>  0 0.47332030E+04</rscale>
<asrwt>0</asrwt>
<pdfrwt beam="1">  1        2 0.55344140E+00 0.47332030E+04</pdfrwt>
<pdfrwt beam="2">  1       -2 0.23952558E+00 0.47332030E+04</pdfrwt>
<totfact> 0.38363938E-02</totfact>
</mgrwt>
</event>
<event>
 6    1  0.1780144E-005  0.1914382E+04  0.7818608E-02  0.8647730E-01
         -1   -1    0    0    0  501 -0.00000000000E+00  0.00000000000E+00  0.81308798504E+03  0.81308798504E+03  0.00000000000E+00 0.  1.
          1   -1    0    0  501    0  0.00000000000E+00 -0.00000000000E+00 -0.11268333201E+04  0.11268333201E+04  0.00000000000E+00 0. -1.
         23    2    1    2    0    0  0.22798505070E+03 -0.81662248425E+03  0.28817531311E+03  0.90013385962E+03  0.91359121179E+02 0.  0.
         13    1    3    3    0    0  0.97831813406E+02 -0.20298740213E+03  0.69021782904E+02  0.23566704405E+03  0.00000000000E+00 0.  1.
        -13    1    3    3    0    0  0.13015323729E+03 -0.61363508212E+03  0.21915353021E+03  0.66446681557E+03  0.00000000000E+00 0. -1.
         22    1    1    2    0    0 -0.22798505070E+03  0.81662248425E+03 -0.60192064815E+03  0.10397874455E+04  0.00000000000E+00 0. -1.
<mgrwt>
<rscale>  0 0.19143820E+04</rscale>
<asrwt>0</asrwt>
<pdfrwt beam="1">  1        1 0.17335897E+00 0.19143820E+04</pdfrwt>
<pdfrwt beam="2">  1       -1 0.12509046E+00 0.19143820E+04</pdfrwt>
<totfact> 0.63192072E+00</totfact>
</mgrwt>
</event>
<event>
 6    1  0.1780144E-005  0.3224797E+04  0.7818608E-02  0.8182299E-01
         -2   -1    0    0    0  501 -0.00000000000E+00  0.00000000000E+00  0.39471994550E+04  0.39471994550E+04  0.00000000000E+00 0.  1.
          2   -1    0    0  501    0  0.00000000000E+00 -0.00000000000E+00 -0.65865132471E+03  0.65865132471E+03  0.00000000000E+00 0. -1.
         23    2    1    2    0    0 -0.17584723177E+03  0.15234917243E+04  0.94024466183E+03  0.18011264683E+04  0.89706452620E+02 0.  0.
         13    1    3    3    0    0 -0.76917519067E+02  0.57164518108E+03  0.30463162619E+03  0.65229973591E+03  0.00000000000E+00 0. -1.
        -13    1    3    3    0    0 -0.98929712700E+02  0.95184654326E+03  0.63561303564E+03  0.11488267324E+04  0.00000000000E+00 0.  1.
         22    1    1    2    0    0  0.17584723177E+03 -0.15234917243E+04  0.23483034685E+04  0.28047243114E+04  0.00000000000E+00 0. -1.
<mgrwt>
<rscale>  0 0.32247965E+04</rscale>
<asrwt>0</asrwt>
<pdfrwt beam="1">  1        2 0.10133098E+00 0.32247965E+04</pdfrwt>
<pdfrwt beam="2">  1       -2 0.60726144E+00 0.32247965E+04</pdfrwt>
<totfact> 0.17500330E-02</totfact>
</mgrwt>
</event>
<event>
 6    1  0.1780144E-005  0.2463257E+04  0.7818608E-02  0.8416194E-01
         -2   -1    0    0    0  501 -0.00000000000E+00  0.00000000000E+00  0.12622752228E+04  0.12622752228E+04  0.00000000000E+00 0.  1.
          2   -1    0    0  501    0  0.00000000000E+00 -0.00000000000E+00 -0.12017258722E+04  0.12017258722E+04  0.00000000000E+00 0. -1.
         23    2    1    2    0    0 -0.78278444535E+03 -0.71881430353E+03  0.64961759628E+03  0.12489097862E+04  0.91253173674E+02 0.  0.
         13    1    3    3    0    0 -0.40442415969E+03 -0.31457791844E+03  0.33345815664E+03  0.61132030062E+03  0.00000000000E+00 0.  1.
        -13    1    3    3    0    0 -0.37836028566E+03 -0.40423638509E+03  0.31615943964E+03  0.63758948554E+03  0.00000000000E+00 0. -1.
         22    1    1    2    0    0  0.78278444535E+03  0.71881430353E+03 -0.58906824569E+03  0.12150913089E+04  0.00000000000E+00 0. -1.
<mgrwt>
<rscale>  0 0.24632570E+04</rscale>
<asrwt>0</asrwt>
<pdfrwt beam="1">  1        2 0.18488090E+00 0.24632570E+04</pdfrwt>
<pdfrwt beam="2">  1       -2 0.19419619E+00 0.24632570E+04</pdfrwt>
<totfact> 0.24560231E+00</totfact>
</mgrwt>
</event>
<event>
 6    1  0.1780144E-005  0.1906116E+04  0.7818608E-02  0.8651818E-01
          1   -1    0    0  501    0  0.00000000000E+00  0.00000000000E+00  0.58775553164E+03  0.58775553164E+03  0.00000000000E+00 0. -1.
         -1   -1    0    0    0  501 -0.00000000000E+00 -0.00000000000E+00 -0.15454032876E+04  0.15454032876E+04  0.00000000000E+00 0.  1.
         23    2    1    2    0    0 -0.44279562448E+03 -0.37880646066E+03 -0.13208826815E+04  0.14464988519E+04  0.89808521604E+02 0.  0.
         13    1    3    3    0    0 -0.13187280433E+01 -0.14092388958E+02 -0.60411104566E+02  0.62047046868E+02  0.00000000000E+00 0. -1.
        -13    1    3    3    0    0 -0.44147689644E+03 -0.36471407171E+03 -0.12604715769E+04  0.13844518050E+04  0.00000000000E+00 0.  1.
         22    1    1    2    0    0  0.44279562448E+03  0.37880646066E+03  0.36323492549E+03  0.68665996738E+03  0.00000000000E+00 0. -1.
<mgrwt>
<rscale>  0 0.19061158E+04</rscale>
<asrwt>0</asrwt>
<pdfrwt beam="1">  1        1 0.90423929E-01 0.19061158E+04</pdfrwt>
<pdfrwt beam="2">  1       -1 0.23775435E+00 0.19061158E+04</pdfrwt>
<totfact> 0.27674265E+00</totfact>
</mgrwt>
</event>
<event>
 6    1  0.1780144E-005  0.2015345E+04  0.7818608E-02  0.8599480E-01
         -2   -1    0    0    0  501 -0.00000000000E+00  0.00000000000E+00  0.39328268530E+03  0.39328268530E+03  0.00000000000E+00 0.  1.
          2   -1    0    0  501    0  0.00000000000E+00 -0.00000000000E+00 -0.25818686256E+04  0.25818686256E+04  0.00000000000E+00 0. -1.
         23    2    1    2    0    0  0.12019573230E+03  0.51037809270E+03  0.17044427010E+03  0.55855114845E+03  0.89416579334E+02 0.  0.
         13    1    3    3    0    0  0.10729896207E+03  0.40042501033E+03  0.97158640545E+02  0.42578522472E+03  0.00000000000E+00 0.  1.
        -13    1    3    3    0    0  0.12896770224E+02  0.10995308237E+03  0.73285629559E+02  0.13276592373E+03  0.00000000000E+00 0. -1.
         22    1    1    2    0    0 -0.12019573230E+03 -0.51037809270E+03 -0.23590302104E+04  0.24166001625E+04  0.00000000000E+00 0. -1.
<mgrwt>
<rscale>  0 0.20153454E+04</rscale>
<asrwt>0</asrwt>
<pdfrwt beam="1">  1        2 0.39721056E+00 0.20153454E+04</pdfrwt>
<pdfrwt beam="2">  1       -2 0.60505029E-01 0.20153454E+04</pdfrwt>
<totfact> 0.73683798E+00</totfact>
</mgrwt>
</event>
<event>
 6    1  0.1780144E-005  0.1249103E+04  0.7818608E-02  0.9070930E-01
         -1   -1    0    0    0  501 -0.00000000000E+00  0.00000000000E+00  0.14146946715E+04  0.14146946715E+04  0.00000000000E+00 0.  1.
          1   -1    0    0  501    0  0.00000000000E+00 -0.00000000000E+00 -0.27572342645E+03  0.27572342645E+03  0.00000000000E+00 0. -1.
         23    2    1    2    0    0  0.16442475890E+03 -0.48319959232E+03  0.93205005667E+02  0.52674100581E+03  0.90838134932E+02 0.  0.
         13    1    3    3    0    0  0.99444299506E+02 -0.22503918931E+03  0.85338167002E+02  0.26041199699E+03  0.00000000000E+00 0. -1.
        -13    1    3    3    0    0  0.64980459398E+02 -0.25816040302E+03  0.78668386650E+01  0.26632900882E+03  0.00000000000E+00 0.  1.
         22    1    1    2    0    0 -0.16442475890E+03  0.48319959232E+03  0.10457662394E+04  0.11636770922E+04  0.00000000000E+00 0.  1.
<mgrwt>
<rscale>  0 0.12491028E+04</rscale>
<asrwt>0</asrwt>
<pdfrwt beam="1">  1        1 0.42418989E-01 0.12491028E+04</pdfrwt>
<pdfrwt beam="2">  1       -1 0.21764533E+00 0.12491028E+04</pdfrwt>
<totfact> 0.11024125E+01</totfact>
</mgrwt>
</event>
<event>
 6    1  0.1780144E-005  0.3574635E+04  0.7818608E-02  0.8096327E-01
          2   -1    0    0  501    0  0.00000000000E+00  0.00000000000E+00  0.34494596345E+04  0.34494596345E+04  0.00000000000E+00 0. -1.
         -2   -1    0    0    0  501 -0.00000000000E+00 -0.00000000000E+00 -0.92608807633E+03  0.92608807633E+03  0.00000000000E+00 0.  1.
         23    2    1    2    0    0  0.10936958484E+04  0.11604592740E+04  0.22475013039E+04  0.27572335470E+04  0.90765557694E+02 0.  0.
         11    1    3    3    0    0  0.66424962459E+03  0.66393506493E+03  0.12624135794E+04  0.15734437962E+04  0.00000000000E+00 0.  1.
        -11    1    3    3    0    0  0.42944622385E+03  0.49652420906E+03  0.98508772445E+03  0.11837897509E+04  0.00000000000E+00 0. -1.
         22    1    1    2    0    0 -0.10936958484E+04 -0.11604592740E+04  0.27587025429E+03  0.16183141638E+04  0.00000000000E+00 0.  1.
<mgrwt>
<rscale>  0 0.35746348E+04</rscale>
<asrwt>0</asrwt>
<pdfrwt beam="1">  1        2 0.53068609E+00 0.35746348E+04</pdfrwt>
<pdfrwt beam="2">  1       -2 0.14247509E+00 0.35746348E+04</pdfrwt>
<totfact> 0.24666502E-01</totfact>
</mgrwt>
</event>
<event>
 6    1  0.3051801E-005  0.3594162E+04  0.7818608E-02  0.8091830E-01
          2   -1    0    0  501    0  0.00000000000E+00  0.00000000000E+00  0.20267276840E+04  0.20267276840E+04  0.00000000000E+00 0.  1.
         -2   -1    0    0    0  501 -0.00000000000E+00 -0.00000000000E+00 -0.15934554183E+04  0.15934554183E+04  0.00000000000E+00 0. -1.
         23    2    1    2    0    0  0.97801952687E+02 -0.46977885795E+03  0.19599448455E+04  0.20198748310E+04  0.90846783153E+02 0.  0.
         11    1    3    3    0    0  0.63419500260E+02 -0.27173256812E+03  0.13172360446E+04  0.13464662709E+04  0.00000000000E+00 0. -1.
        -11    1    3    3    0    0  0.34382452427E+02 -0.19804628983E+03  0.64270880096E+03  0.67340856007E+03  0.00000000000E+00 0.  1.
         22    1    1    2    0    0 -0.97801952687E+02  0.46977885795E+03 -0.15266725798E+04  0.16003082714E+04  0.00000000000E+00 0. -1.
<mgrwt>
<rscale>  0 0.35941620E+04</rscale>
<asrwt>0</asrwt>
<pdfrwt beam="1">  1        2 0.31180426E+00 0.35941620E+04</pdfrwt>
<pdfrwt beam="2">  1       -2 0.24514699E+00 0.35941620E+04</pdfrwt>
<totfact> 0.36244427E-01</totfact>
</mgrwt>
</event>
<event>
 6    1  0.1780144E-005  0.3162890E+04  0.7818608E-02  0.8198687E-01
         -2   -1    0    0    0  501 -0.00000000000E+00  0.00000000000E+00  0.10701683135E+04  0.10701683135E+04  0.00000000000E+00 0.  1.
          2   -1    0    0  501    0  0.00000000000E+00 -0.00000000000E+00 -0.23369865266E+04  0.23369865266E+04  0.00000000000E+00 0. -1.
         23    2    1    2    0    0 -0.84383024731E+03 -0.84207183847E+03 -0.17510211460E+04  0.21204587037E+04  0.95580294716E+02 0.  0.
         13    1    3    3    0    0 -0.48196873194E+03 -0.53811574959E+03 -0.10167729547E+04  0.12472728891E+04  0.00000000000E+00 0.  1.
        -13    1    3    3    0    0 -0.36186151536E+03 -0.30395608888E+03 -0.73424819131E+03  0.87318581454E+03  0.00000000000E+00 0. -1.
         22    1    1    2    0    0  0.84383024731E+03  0.84207183847E+03  0.48420293286E+03  0.12866961365E+04  0.00000000000E+00 0.  1.
<mgrwt>
<rscale>  0 0.31628904E+04</rscale>
<asrwt>0</asrwt>
<pdfrwt beam="1">  1        2 0.35953639E+00 0.31628904E+04</pdfrwt>
<pdfrwt beam="2">  1       -2 0.16464128E+00 0.31628904E+04</pdfrwt>
<totfact> 0.84963488E-01</totfact>
</mgrwt>
</event>
<event>
 6    1  0.1780144E-005  0.3503993E+04  0.7818608E-02  0.8112844E-01
         -2   -1    0    0    0  501 -0.00000000000E+00  0.00000000000E+00  0.12081464038E+04  0.12081464038E+04  0.00000000000E+00 0.  1.
          2   -1    0    0  501    0  0.00000000000E+00 -0.00000000000E+00 -0.25406619290E+04  0.25406619290E+04  0.00000000000E+00 0. -1.
         23    2    1    2    0    0 -0.47398154262E+03 -0.14657017646E+04 -0.15567096229E+04  0.21921442204E+04  0.95975348922E+02 0.  0.
         13    1    3    3    0    0 -0.31257145728E+03 -0.84289156491E+03 -0.94711824130E+03  0.13058330939E+04  0.00000000000E+00 0. -1.
        -13    1    3    3    0    0 -0.16141008534E+03 -0.62281019969E+03 -0.60959138160E+03  0.88631112653E+03  0.00000000000E+00 0.  1.
         22    1    1    2    0    0  0.47398154262E+03  0.14657017646E+04  0.22419409770E+03  0.15566641124E+04  0.00000000000E+00 0.  1.
<mgrwt>
<rscale>  0 0.35039929E+04</rscale>
<asrwt>0</asrwt>
<pdfrwt beam="1">  1        2 0.39087106E+00 0.35039929E+04</pdfrwt>
<pdfrwt beam="2">  1       -2 0.18586868E+00 0.35039929E+04</pdfrwt>
<totfact> 0.44753165E-01</totfact>
</mgrwt>
</event>
<event>
 6    1  0.1780144E-005  0.3264285E+04  0.7818608E-02  0.8172043E-01
          2   -1    0    0  501    0  0.00000000000E+00  0.00000000000E+00  0.21242780391E+04  0.21242780391E+04  0.00000000000E+00 0. -1.
         -2   -1    0    0    0  501 -0.00000000000E+00 -0.00000000000E+00 -0.12540207335E+04  0.12540207335E+04  0.00000000000E+00 0.  1.
         23    2    1    2    0    0  0.54498167861E+03 -0.83564187430E+03  0.17704319896E+04  0.20345663462E+04  0.98632728912E+02 0.  0.
         11    1    3    3    0    0  0.30504524691E+03 -0.38551816778E+03  0.91021234052E+03  0.10344870058E+04  0.00000000000E+00 0.  1.
        -11    1    3    3    0    0  0.23993643170E+03 -0.45012370652E+03  0.86021964907E+03  0.10000793404E+04  0.00000000000E+00 0. -1.
         22    1    1    2    0    0 -0.54498167861E+03  0.83564187430E+03 -0.90017468404E+03  0.13437324264E+04  0.00000000000E+00 0.  1.
<mgrwt>
<rscale>  0 0.32642847E+04</rscale>
<asrwt>0</asrwt>
<pdfrwt beam="1">  1        2 0.32681201E+00 0.32642847E+04</pdfrwt>
<pdfrwt beam="2">  1       -2 0.19292627E+00 0.32642847E+04</pdfrwt>
<totfact> 0.70679562E-01</totfact>
</mgrwt>
</event>
<event>
 6    1  0.1780144E-005  0.3264449E+04  0.7818608E-02  0.8172001E-01
          1   -1    0    0  501    0  0.00000000000E+00  0.00000000000E+00  0.19170049523E+04  0.19170049523E+04  0.00000000000E+00 0. -1.
         -1   -1    0    0    0  501 -0.00000000000E+00 -0.00000000000E+00 -0.13897499085E+04  0.13897499085E+04  0.00000000000E+00 0.  1.
         23    2    1    2    0    0  0.50796200662E+03  0.45897912602E+03  0.17641136205E+04  0.18930694725E+04  0.54110289455E+02 0.  0.
         11    1    3    3    0    0  0.35916621391E+03  0.33456626171E+03  0.13263540274E+04  0.14142665798E+04  0.00000000000E+00 0. -1.
        -11    1    3    3    0    0  0.14879579271E+03  0.12441286431E+03  0.43775959314E+03  0.47880289277E+03  0.00000000000E+00 0.  1.
         22    1    1    2    0    0 -0.50796200662E+03 -0.45897912602E+03 -0.12368585767E+04  0.14136853883E+04  0.00000000000E+00 0.  1.
<mgrwt>
<rscale>  0 0.32644494E+04</rscale>
<asrwt>0</asrwt>
<pdfrwt beam="1">  1        1 0.29492384E+00 0.32644494E+04</pdfrwt>
<pdfrwt beam="2">  1       -1 0.21380768E+00 0.32644494E+04</pdfrwt>
<totfact> 0.34201001E-01</totfact>
</mgrwt>
</event>
<event>
 6    1  0.1780144E-005  0.3277460E+03  0.7818608E-02  0.1072139E+00
          2   -1    0    0  501    0  0.00000000000E+00  0.00000000000E+00  0.72827403864E+03  0.72827403864E+03  0.00000000000E+00 0. -1.
         -2   -1    0    0    0  501 -0.00000000000E+00 -0.00000000000E+00 -0.36873971356E+02  0.36873971356E+02  0.00000000000E+00 0.  1.
         23    2    1    2    0    0  0.14608035691E+03  0.35455700844E+02  0.32957362304E+03  0.37333816690E+03  0.90366124509E+02 0.  0.
         13    1    3    3    0    0  0.15171327497E+03  0.15942268136E+02  0.26646450720E+03  0.30704137720E+03  0.00000000000E+00 0. -1.
        -13    1    3    3    0    0 -0.56329180566E+01  0.19513432708E+02  0.63109115840E+02  0.66296789696E+02  0.00000000000E+00 0.  1.
         22    1    1    2    0    0 -0.14608035691E+03 -0.35455700844E+02  0.36182644425E+03  0.39180984310E+03  0.00000000000E+00 0. -1.
<mgrwt>
<rscale>  0 0.32774598E+03</rscale>
<asrwt>0</asrwt>
<pdfrwt beam="1">  1        2 0.11204215E+00 0.32774598E+03</pdfrwt>
<pdfrwt beam="2">  1       -2 0.56729192E-02 0.32774598E+03</pdfrwt>
<totfact> 0.64625860E+03</totfact>
</mgrwt>
</event>
<event>
 6    1  0.1780144E-005  0.3032089E+04  0.7818608E-02  0.8234627E-01
          2   -1    0    0  501    0  0.00000000000E+00  0.00000000000E+00  0.11524239941E+04  0.11524239941E+04  0.00000000000E+00 0. -1.
         -2   -1    0    0    0  501 -0.00000000000E+00 -0.00000000000E+00 -0.19943966206E+04  0.19943966206E+04  0.00000000000E+00 0.  1.
         23    2    1    2    0    0 -0.10519564040E+04 -0.28127578484E+03 -0.15139414156E+04  0.18672619421E+04  0.94446851089E+02 0.  0.
         11    1    3    3    0    0 -0.52621763745E+03 -0.10475717333E+03 -0.79915841230E+03  0.96256596412E+03  0.00000000000E+00 0. -1.
        -11    1    3    3    0    0 -0.52573876652E+03 -0.17651861150E+03 -0.71478300326E+03  0.90469597798E+03  0.00000000000E+00 0.  1.
         22    1    1    2    0    0  0.10519564040E+04  0.28127578484E+03  0.67196878906E+03  0.12795586725E+04  0.00000000000E+00 0. -1.
<mgrwt>
<rscale>  0 0.30320887E+04</rscale>
<asrwt>0</asrwt>
<pdfrwt beam="1">  1        2 0.17729600E+00 0.30320887E+04</pdfrwt>
<pdfrwt beam="2">  1       -2 0.30683025E+00 0.30320887E+04</pdfrwt>
<totfact> 0.49852387E-01</totfact>
</mgrwt>
</event>
<event>
 6    1  0.1780144E-005  0.1725527E+04  0.7818608E-02  0.8746938E-01
          2   -1    0    0  501    0  0.00000000000E+00  0.00000000000E+00  0.13170125685E+04  0.13170125685E+04  0.00000000000E+00 0. -1.
         -2   -1    0    0    0  501 -0.00000000000E+00 -0.00000000000E+00 -0.56518892268E+03  0.56518892268E+03  0.00000000000E+00 0.  1.
         23    2    1    2    0    0  0.19722137514E+03 -0.48434863202E+03  0.11216023043E+04  0.12417125183E+04  0.10182524784E+03 0.  0.
         13    1    3    3    0    0  0.17852963878E+02 -0.72513143327E+02  0.25356412325E+03  0.26433245898E+03  0.00000000000E+00 0.  1.
        -13    1    3    3    0    0  0.17936841127E+03 -0.41183548870E+03  0.86803818102E+03  0.97738005935E+03  0.00000000000E+00 0. -1.
         22    1    1    2    0    0 -0.19722137514E+03  0.48434863202E+03 -0.36977865841E+03  0.64048897288E+03  0.00000000000E+00 0.  1.
<mgrwt>
<rscale>  0 0.17255271E+04</rscale>
<asrwt>0</asrwt>
<pdfrwt beam="1">  1        2 0.20261732E+00 0.17255271E+04</pdfrwt>
<pdfrwt beam="2">  1       -2 0.86952142E-01 0.17255271E+04</pdfrwt>
<totfact> 0.17555705E+01</totfact>
</mgrwt>
</event>
<event>
 6    1  0.1780144E-005  0.7465158E+03  0.7818608E-02  0.9640832E-01
          2   -1    0    0  501    0  0.00000000000E+00  0.00000000000E+00  0.14586412724E+04  0.14586412724E+04  0.00000000000E+00 0. -1.
         -2   -1    0    0    0  501 -0.00000000000E+00 -0.00000000000E+00 -0.95514543335E+02  0.95514543335E+02  0.00000000000E+00 0.  1.
         23    2    1    2    0    0  0.21886268932E+03 -0.28602133445E+03  0.53759982596E+03  0.65348731496E+03  0.91230572778E+02 0.  0.
         11    1    3    3    0    0  0.94673807617E+02 -0.56737843365E+02  0.14630560290E+03  0.18326931592E+03  0.00000000000E+00 0. -1.
        -11    1    3    3    0    0  0.12418888170E+03 -0.22928349109E+03  0.39129422306E+03  0.47021799905E+03  0.00000000000E+00 0.  1.
         22    1    1    2    0    0 -0.21886268932E+03  0.28602133445E+03  0.82552690314E+03  0.90066850081E+03  0.00000000000E+00 0. -1.
<mgrwt>
<rscale>  0 0.74651579E+03</rscale>
<asrwt>0</asrwt>
<pdfrwt beam="1">  1        2 0.22440633E+00 0.74651579E+03</pdfrwt>
<pdfrwt beam="2">  1       -2 0.14694546E-01 0.74651579E+03</pdfrwt>
<totfact> 0.49177477E+02</totfact>
</mgrwt>
</event>
<event>
 6    1  0.1780144E-005  0.2081362E+04  0.7818608E-02  0.8569498E-01
         -2   -1    0    0    0  501 -0.00000000000E+00  0.00000000000E+00  0.31704898238E+03  0.31704898238E+03  0.00000000000E+00 0.  1.
          2   -1    0    0  501    0  0.00000000000E+00 -0.00000000000E+00 -0.34159284520E+04  0.34159284520E+04  0.00000000000E+00 0. -1.
         23    2    1    2    0    0 -0.31772911426E+03  0.47817317740E+03  0.16961328273E+00  0.58119911161E+03  0.90504148709E+02 0.  0.
         11    1    3    3    0    0 -0.25641543994E+03  0.41591119341E+03  0.28242735299E+02  0.48941664330E+03  0.00000000000E+00 0.  1.
        -11    1    3    3    0    0 -0.61313674322E+02  0.62261983993E+02 -0.28073122016E+02  0.91782468312E+02  0.00000000000E+00 0. -1.
         22    1    1    2    0    0  0.31772911426E+03 -0.47817317740E+03 -0.30990490829E+04  0.31517783227E+04  0.00000000000E+00 0. -1.
<mgrwt>
<rscale>  0 0.20813617E+04</rscale>
<asrwt>0</asrwt>
<pdfrwt beam="1">  1        2 0.52552745E+00 0.20813617E+04</pdfrwt>
<pdfrwt beam="2">  1       -2 0.48776767E-01 0.20813617E+04</pdfrwt>
<totfact> 0.34297178E+00</totfact>
</mgrwt>
</event>
<event>
 6    1  0.1780144E-005  0.9646678E+03  0.7818608E-02  0.9348169E-01
         -1   -1    0    0    0  501 -0.00000000000E+00  0.00000000000E+00  0.79666476779E+03  0.79666476779E+03  0.00000000000E+00 0.  1.
          1   -1    0    0  501    0  0.00000000000E+00 -0.00000000000E+00 -0.29202495536E+03  0.29202495536E+03  0.00000000000E+00 0. -1.
         23    2    1    2    0    0  0.40500290510E+03  0.18474474787E+01  0.54123284313E+03  0.68203284555E+03  0.90581707446E+02 0.  0.
         11    1    3    3    0    0  0.16774336303E+03  0.45290652058E+02  0.22096882011E+03  0.28109837862E+03  0.00000000000E+00 0.  1.
        -11    1    3    3    0    0  0.23725954207E+03 -0.43443204579E+02  0.32026402303E+03  0.40093446693E+03  0.00000000000E+00 0. -1.
         22    1    1    2    0    0 -0.40500290510E+03 -0.18474474787E+01 -0.36593030704E+02  0.40665687760E+03  0.00000000000E+00 0. -1.
<mgrwt>
<rscale>  0 0.96466780E+03</rscale>
<asrwt>0</asrwt>
<pdfrwt beam="1">  1        1 0.44926916E-01 0.96466780E+03</pdfrwt>
<pdfrwt beam="2">  1       -1 0.12256381E+00 0.96466780E+03</pdfrwt>
<totfact> 0.53636129E+01</totfact>
</mgrwt>
</event>
<event>
 6    1  0.1780144E-005  0.1657065E+04  0.7818608E-02  0.8786238E-01
         -2   -1    0    0    0  501 -0.00000000000E+00  0.00000000000E+00  0.26086472225E+03  0.26086472225E+03  0.00000000000E+00 0. -1.
          2   -1    0    0  501    0  0.00000000000E+00 -0.00000000000E+00 -0.26315027641E+04  0.26315027641E+04  0.00000000000E+00 0.  1.
         23    2    1    2    0    0 -0.75534747270E+03  0.15992506298E+03 -0.67657330972E+03  0.10306529145E+04  0.91477628504E+02 0.  0.
         13    1    3    3    0    0 -0.28418673962E+03  0.49310420724E+02 -0.19679813576E+03  0.34917492294E+03  0.00000000000E+00 0. -1.
        -13    1    3    3    0    0 -0.47116073308E+03  0.11061464226E+03 -0.47977517396E+03  0.68147799159E+03  0.00000000000E+00 0.  1.
         22    1    1    2    0    0  0.75534747270E+03 -0.15992506298E+03 -0.16940647322E+04  0.18617145718E+04  0.00000000000E+00 0.  1.
<mgrwt>
<rscale>  0 0.16570652E+04</rscale>
<asrwt>0</asrwt>
<pdfrwt beam="1">  1        2 0.40484658E+00 0.16570652E+04</pdfrwt>
<pdfrwt beam="2">  1       -2 0.40133034E-01 0.16570652E+04</pdfrwt>
<totfact> 0.16400508E+01</totfact>
</mgrwt>
</event>
<event>
 6    1  0.1780144E-005  0.1093254E+04  0.7818608E-02  0.9211792E-01
         -2   -1    0    0    0  501 -0.00000000000E+00  0.00000000000E+00  0.37242209087E+03  0.37242209087E+03  0.00000000000E+00 0.  1.
          2   -1    0    0  501    0  0.00000000000E+00 -0.00000000000E+00 -0.80231848751E+03  0.80231848751E+03  0.00000000000E+00 0. -1.
         23    2    1    2    0    0  0.30313279595E+03 -0.20957370188E+03  0.21167997055E+03  0.43485486866E+03  0.92085386223E+02 0.  0.
         11    1    3    3    0    0  0.10283147707E+03 -0.30356874312E+02  0.89277382208E+02  0.13952169533E+03  0.00000000000E+00 0. -1.
        -11    1    3    3    0    0  0.20030131888E+03 -0.17921682757E+03  0.12240258834E+03  0.29533317332E+03  0.00000000000E+00 0.  1.
         22    1    1    2    0    0 -0.30313279595E+03  0.20957370188E+03 -0.64157636719E+03  0.73988570972E+03  0.00000000000E+00 0. -1.
<mgrwt>
<rscale>  0 0.10932541E+04</rscale>
<asrwt>0</asrwt>
<pdfrwt beam="1">  1        2 0.12343361E+00 0.10932541E+04</pdfrwt>
<pdfrwt beam="2">  1       -2 0.57295707E-01 0.10932541E+04</pdfrwt>
<totfact> 0.97306725E+01</totfact>
</mgrwt>
</event>
<event>
 6    1  0.1780144E-005  0.1457423E+04  0.7818608E-02  0.8913270E-01
          2   -1    0    0  501    0  0.00000000000E+00  0.00000000000E+00  0.37215400005E+03  0.37215400005E+03  0.00000000000E+00 0. -1.
         -2   -1    0    0    0  501 -0.00000000000E+00 -0.00000000000E+00 -0.14268837377E+04  0.14268837377E+04  0.00000000000E+00 0.  1.
         23    2    1    2    0    0 -0.59595255188E+03 -0.14402078012E+03 -0.10088875183E+04  0.11842183022E+04  0.92830671774E+02 0.  0.
         11    1    3    3    0    0 -0.41905671790E+03 -0.81012599663E+02 -0.62457837782E+03  0.75648511166E+03  0.00000000000E+00 0. -1.
        -11    1    3    3    0    0 -0.17689583398E+03 -0.63008180460E+02 -0.38430914045E+03  0.42773319057E+03  0.00000000000E+00 0.  1.
         22    1    1    2    0    0  0.59595255188E+03  0.14402078012E+03 -0.45842219355E+02  0.61481943550E+03  0.00000000000E+00 0. -1.
<mgrwt>
<rscale>  0 0.14574231E+04</rscale>
<asrwt>0</asrwt>
<pdfrwt beam="1">  1        2 0.57254461E-01 0.14574231E+04</pdfrwt>
<pdfrwt beam="2">  1       -2 0.21952058E+00 0.14574231E+04</pdfrwt>
<totfact> 0.83164858E+00</totfact>
</mgrwt>
</event>
<event>
 6    1  0.1780144E-005  0.9516942E+03  0.7818608E-02  0.9363173E-01
          2   -1    0    0  501    0  0.00000000000E+00  0.00000000000E+00  0.21322334517E+03  0.21322334517E+03  0.00000000000E+00 0. -1.
         -2   -1    0    0    0  501 -0.00000000000E+00 -0.00000000000E+00 -0.10619402392E+04  0.10619402392E+04  0.00000000000E+00 0.  1.
         23    2    1    2    0    0  0.35461304019E+03 -0.40327451993E+01 -0.84466203507E+03  0.92050443365E+03  0.90043253918E+02 0.  0.
         11    1    3    3    0    0  0.45362394618E+02 -0.10474997953E+01 -0.20554321235E+03  0.21049193866E+03  0.00000000000E+00 0.  1.
        -11    1    3    3    0    0  0.30925064557E+03 -0.29852454040E+01 -0.63911882272E+03  0.71001249499E+03  0.00000000000E+00 0. -1.
         22    1    1    2    0    0 -0.35461304019E+03  0.40327451993E+01 -0.40548589533E+01  0.35465915072E+03  0.00000000000E+00 0. -1.
<mgrwt>
<rscale>  0 0.95169417E+03</rscale>
<asrwt>0</asrwt>
<pdfrwt beam="1">  1        2 0.32803591E-01 0.95169417E+03</pdfrwt>
<pdfrwt beam="2">  1       -2 0.16337542E+00 0.95169417E+03</pdfrwt>
<totfact> 0.38303208E+01</totfact>
</mgrwt>
</event>
<event>
 6    1  0.1780144E-005  0.7323086E+04  0.7818608E-02  0.7545003E-01
         -2   -1    0    0    0  501 -0.00000000000E+00  0.00000000000E+00  0.39619138306E+04  0.39619138306E+04  0.00000000000E+00 0. -1.
          2   -1    0    0  501    0  0.00000000000E+00 -0.00000000000E+00 -0.33839444717E+04  0.33839444717E+04  0.00000000000E+00 0.  1.
         23    2    1    2    0    0  0.33423206122E+04  0.14939791699E+04  0.28184942729E+03  0.36728802397E+04  0.86771659563E+02 0.  0.
         13    1    3    3    0    0  0.56353830119E+03  0.22677459774E+03  0.24004145605E+02  0.60792954698E+03  0.00000000000E+00 0. -1.
        -13    1    3    3    0    0  0.27787823110E+04  0.12672045722E+04  0.25784528169E+03  0.30649506927E+04  0.00000000000E+00 0.  1.
         22    1    1    2    0    0 -0.33423206122E+04 -0.14939791699E+04  0.29611993158E+03  0.36729780626E+04  0.00000000000E+00 0.  1.
<mgrwt>
<rscale>  0 0.73230858E+04</rscale>
<asrwt>0</asrwt>
<pdfrwt beam="1">  1        2 0.52060684E+00 0.73230858E+04</pdfrwt>
<pdfrwt beam="2">  1       -2 0.60952520E+00 0.73230858E+04</pdfrwt>
<totfact> 0.28623844E-04</totfact>
</mgrwt>
</event>
<event>
 6    1  0.1780144E-005  0.1366787E+04  0.7818608E-02  0.8978217E-01
         -2   -1    0    0    0  501 -0.00000000000E+00  0.00000000000E+00  0.30271244897E+03  0.30271244897E+03  0.00000000000E+00 0.  1.
          2   -1    0    0  501    0  0.00000000000E+00 -0.00000000000E+00 -0.15428055745E+04  0.15428055745E+04  0.00000000000E+00 0. -1.
         23    2    1    2    0    0  0.16190542849E+03  0.21586667683E+03  0.22055313906E+03  0.36015635027E+03  0.90868694018E+02 0.  0.
         13    1    3    3    0    0  0.43913218205E+02  0.12470008231E+03  0.13154907964E+03  0.18650373084E+03  0.00000000000E+00 0. -1.
        -13    1    3    3    0    0  0.11799221029E+03  0.91166594520E+02  0.89004059421E+02  0.17365261944E+03  0.00000000000E+00 0.  1.
         22    1    1    2    0    0 -0.16190542849E+03 -0.21586667683E+03 -0.14606462646E+04  0.14853616732E+04  0.00000000000E+00 0. -1.
<mgrwt>
<rscale>  0 0.13667867E+04</rscale>
<asrwt>0</asrwt>
<pdfrwt beam="1">  1        2 0.23735470E+00 0.13667867E+04</pdfrwt>
<pdfrwt beam="2">  1       -2 0.46571146E-01 0.13667867E+04</pdfrwt>
<totfact> 0.51193025E+01</totfact>
</mgrwt>
</event>
<event>
 6    1  0.1780144E-005  0.1566762E+04  0.7818608E-02  0.8841232E-01
         -1   -1    0    0    0  501 -0.00000000000E+00  0.00000000000E+00  0.26913385207E+03  0.26913385207E+03  0.00000000000E+00 0.  1.
          1   -1    0    0  501    0  0.00000000000E+00 -0.00000000000E+00 -0.22802243310E+04  0.22802243310E+04  0.00000000000E+00 0. -1.
         23    2    1    2    0    0  0.30110981809E+03  0.64147390468E+03 -0.47551734953E+03  0.85816312376E+03  0.90395267283E+02 0.  0.
         11    1    3    3    0    0  0.13735281642E+03  0.20448249198E+03 -0.13926148182E+03  0.28297110457E+03  0.00000000000E+00 0. -1.
        -11    1    3    3    0    0  0.16375700167E+03  0.43699141270E+03 -0.33625586771E+03  0.57519201919E+03  0.00000000000E+00 0.  1.
         22    1    1    2    0    0 -0.30110981809E+03 -0.64147390468E+03 -0.15355731294E+04  0.16911950593E+04  0.00000000000E+00 0. -1.
<mgrwt>
<rscale>  0 0.15667617E+04</rscale>
<asrwt>0</asrwt>
<pdfrwt beam="1">  1        1 0.35080376E+00 0.15667617E+04</pdfrwt>
<pdfrwt beam="2">  1       -1 0.41405206E-01 0.15667617E+04</pdfrwt>
<totfact> 0.10574066E+01</totfact>
</mgrwt>
</event>
<event>
 6    1  0.1780144E-005  0.3147722E+04  0.7818608E-02  0.8202762E-01
          1   -1    0    0  501    0  0.00000000000E+00  0.00000000000E+00  0.15562165424E+04  0.15562165424E+04  0.00000000000E+00 0. -1.
         -1   -1    0    0    0  501 -0.00000000000E+00 -0.00000000000E+00 -0.15917059879E+04  0.15917059879E+04  0.00000000000E+00 0.  1.
         23    2    1    2    0    0 -0.12564153727E+04 -0.89364651130E+03  0.29119024643E+03  0.15718821448E+04  0.94010858662E+02 0.  0.
         11    1    3    3    0    0 -0.47386678167E+03 -0.39261042935E+03  0.12439337262E+03  0.62782671746E+03  0.00000000000E+00 0. -1.
        -11    1    3    3    0    0 -0.78254859103E+03 -0.50103608195E+03  0.16679687381E+03  0.94405542732E+03  0.00000000000E+00 0.  1.
         22    1    1    2    0    0  0.12564153727E+04  0.89364651130E+03 -0.32667969191E+03  0.15760403856E+04  0.00000000000E+00 0.  1.
<mgrwt>
<rscale>  0 0.31477225E+04</rscale>
<asrwt>0</asrwt>
<pdfrwt beam="1">  1        1 0.23941793E+00 0.31477225E+04</pdfrwt>
<pdfrwt beam="2">  1       -1 0.24487784E+00 0.31477225E+04</pdfrwt>
<totfact> 0.37857633E-01</totfact>
</mgrwt>
</event>
<event>
 6    1  0.1780144E-005  0.2493931E+04  0.7818608E-02  0.8405151E-01
         -1   -1    0    0    0  501 -0.00000000000E+00  0.00000000000E+00  0.89662458146E+03  0.89662458146E+03  0.00000000000E+00 0.  1.
          1   -1    0    0  501    0  0.00000000000E+00 -0.00000000000E+00 -0.17341957646E+04  0.17341957646E+04  0.00000000000E+00 0. -1.
         23    2    1    2    0    0  0.88511113258E+03  0.87523976348E+03 -0.45634401422E+03  0.13289753035E+04  0.91973568522E+02 0.  0.
         13    1    3    3    0    0  0.24693823502E+03  0.29560326479E+03 -0.16407920416E+03  0.41866665416E+03  0.00000000000E+00 0. -1.
        -13    1    3    3    0    0  0.63817289756E+03  0.57963649870E+03 -0.29226481006E+03  0.91030864931E+03  0.00000000000E+00 0.  1.
         22    1    1    2    0    0 -0.88511113258E+03 -0.87523976348E+03 -0.38122716893E+03  0.13018450426E+04  0.00000000000E+00 0. -1.
<mgrwt>
<rscale>  0 0.24939307E+04</rscale>
<asrwt>0</asrwt>
<pdfrwt beam="1">  1        1 0.26679935E+00 0.24939307E+04</pdfrwt>
<pdfrwt beam="2">  1       -1 0.13794224E+00 0.24939307E+04</pdfrwt>
<totfact> 0.17491044E+00</totfact>
</mgrwt>
</event>
<event>
 6    1  0.1780144E-005  0.4555669E+04  0.7818608E-02  0.7900963E-01
          2   -1    0    0  501    0  0.00000000000E+00  0.00000000000E+00  0.27566532343E+04  0.27566532343E+04  0.00000000000E+00 0.  1.
         -2   -1    0    0    0  501 -0.00000000000E+00 -0.00000000000E+00 -0.18821844034E+04  0.18821844034E+04  0.00000000000E+00 0. -1.
         23    2    1    2    0    0 -0.20134331143E+04 -0.36417902068E+03  0.14545060997E+04  0.25121071664E+04  0.92494089094E+02 0.  0.
         13    1    3    3    0    0 -0.11903876005E+04 -0.24582786725E+03  0.82171502631E+03  0.14671978613E+04  0.00000000000E+00 0.  1.
        -13    1    3    3    0    0 -0.82304551379E+03 -0.11835115343E+03  0.63279107344E+03  0.10449093051E+04  0.00000000000E+00 0. -1.
         22    1    1    2    0    0  0.20134331143E+04  0.36417902068E+03 -0.58003726885E+03  0.21267304714E+04  0.00000000000E+00 0. -1.
<mgrwt>
<rscale>  0 0.45556689E+04</rscale>
<asrwt>0</asrwt>
<pdfrwt beam="1">  1        2 0.42410050E+00 0.45556689E+04</pdfrwt>
<pdfrwt beam="2">  1       -2 0.28956683E+00 0.45556689E+04</pdfrwt>
<totfact> 0.68188538E-02</totfact>
</mgrwt>
</event>
<event>
 6    1  0.1780144E-005  0.3059260E+04  0.7818608E-02  0.8227008E-01
          2   -1    0    0  501    0  0.00000000000E+00  0.00000000000E+00  0.13162350104E+04  0.13162350104E+04  0.00000000000E+00 0. -1.
         -2   -1    0    0    0  501 -0.00000000000E+00 -0.00000000000E+00 -0.17776214922E+04  0.17776214922E+04  0.00000000000E+00 0.  1.
         23    2    1    2    0    0 -0.34305188181E+03 -0.71835953857E+02  0.12734577063E+04  0.13239612078E+04  0.91289385584E+02 0.  0.
         13    1    3    3    0    0 -0.28387080624E+03 -0.87470935132E+02  0.97298140725E+03  0.10173134315E+04  0.00000000000E+00 0. -1.
        -13    1    3    3    0    0 -0.59181075575E+02  0.15634981275E+02  0.30047629909E+03  0.30664777622E+03  0.00000000000E+00 0.  1.
         22    1    1    2    0    0  0.34305188181E+03  0.71835953857E+02 -0.17348441881E+04  0.17698952949E+04  0.00000000000E+00 0.  1.
<mgrwt>
<rscale>  0 0.30592598E+04</rscale>
<asrwt>0</asrwt>
<pdfrwt beam="1">  1        2 0.20249770E+00 0.30592598E+04</pdfrwt>
<pdfrwt beam="2">  1       -2 0.27348023E+00 0.30592598E+04</pdfrwt>
<totfact> 0.63591394E-01</totfact>
</mgrwt>
</event>
<event>
 6    1  0.1780144E-005  0.1889370E+04  0.7818608E-02  0.8660166E-01
          2   -1    0    0  501    0  0.00000000000E+00  0.00000000000E+00  0.51038777395E+03  0.51038777395E+03  0.00000000000E+00 0.  1.
         -2   -1    0    0    0  501 -0.00000000000E+00 -0.00000000000E+00 -0.17485321179E+04  0.17485321179E+04  0.00000000000E+00 0. -1.
         23    2    1    2    0    0  0.20863258727E+03  0.68411194422E+03  0.11020940667E+03  0.73261895641E+03  0.11422658745E+03 0.  0.
         11    1    3    3    0    0  0.13715058466E+03  0.38305231290E+03  0.11619395644E+03  0.42313164950E+03  0.00000000000E+00 0. -1.
        -11    1    3    3    0    0  0.71482002610E+02  0.30105963132E+03 -0.59845497671E+01  0.30948730691E+03  0.00000000000E+00 0.  1.
         22    1    1    2    0    0 -0.20863258727E+03 -0.68411194422E+03 -0.13483537506E+04  0.15263009354E+04  0.00000000000E+00 0. -1.
<mgrwt>
<rscale>  0 0.18893696E+04</rscale>
<asrwt>0</asrwt>
<pdfrwt beam="1">  1        2 0.78521195E-01 0.18893696E+04</pdfrwt>
<pdfrwt beam="2">  1       -2 0.26900494E+00 0.18893696E+04</pdfrwt>
<totfact> 0.27707600E+00</totfact>
</mgrwt>
</event>
<event>
 6    1  0.1780144E-005  0.1519435E+04  0.7818608E-02  0.8871631E-01
          1   -1    0    0  501    0  0.00000000000E+00  0.00000000000E+00  0.57573018264E+03  0.57573018264E+03  0.00000000000E+00 0. -1.
         -1   -1    0    0    0  501 -0.00000000000E+00 -0.00000000000E+00 -0.10025024545E+04  0.10025024545E+04  0.00000000000E+00 0.  1.
         23    2    1    2    0    0 -0.49053764922E+03  0.30495425500E+03 -0.72234176709E+03  0.92939859865E+03  0.91541486450E+02 0.  0.
         13    1    3    3    0    0 -0.33545356224E+03  0.22394004375E+03 -0.43699252392E+03  0.59467697247E+03  0.00000000000E+00 0. -1.
        -13    1    3    3    0    0 -0.15508408697E+03  0.81014211248E+02 -0.28534924317E+03  0.33472162618E+03  0.00000000000E+00 0.  1.
         22    1    1    2    0    0  0.49053764922E+03 -0.30495425500E+03  0.29556949527E+03  0.64883403847E+03  0.00000000000E+00 0. -1.
<mgrwt>
<rscale>  0 0.15194353E+04</rscale>
<asrwt>0</asrwt>
<pdfrwt beam="1">  1        1 0.88573874E-01 0.15194353E+04</pdfrwt>
<pdfrwt beam="2">  1       -1 0.15423115E+00 0.15194353E+04</pdfrwt>
<totfact> 0.11356778E+01</totfact>
</mgrwt>
</event>
<event>
 6    1  0.1780144E-005  0.1743544E+04  0.7818608E-02  0.8736912E-01
         -1   -1    0    0    0  501 -0.00000000000E+00  0.00000000000E+00  0.11042066361E+04  0.11042066361E+04  0.00000000000E+00 0.  1.
          1   -1    0    0  501    0  0.00000000000E+00 -0.00000000000E+00 -0.68826471459E+03  0.68826471459E+03  0.00000000000E+00 0. -1.
         23    2    1    2    0    0  0.84333017881E+03  0.12081311911E+03  0.38605895052E+03  0.94000751443E+03  0.93653690067E+02 0.  0.
         11    1    3    3    0    0  0.60705298956E+03  0.10194934044E+03  0.23473294506E+03  0.65879173920E+03  0.00000000000E+00 0. -1.
        -11    1    3    3    0    0  0.23627718926E+03  0.18863778671E+02  0.15132600546E+03  0.28121577523E+03  0.00000000000E+00 0.  1.
         22    1    1    2    0    0 -0.84333017881E+03 -0.12081311911E+03  0.29882971023E+02  0.85246383630E+03  0.00000000000E+00 0.  1.
<mgrwt>
<rscale>  0 0.17435441E+04</rscale>
<asrwt>0</asrwt>
<pdfrwt beam="1">  1        1 0.10588688E+00 0.17435441E+04</pdfrwt>
<pdfrwt beam="2">  1       -1 0.16987794E+00 0.17435441E+04</pdfrwt>
<totfact> 0.65345913E+00</totfact>
</mgrwt>
</event>
<event>
 6    1  0.1994170E-005  0.4394978E+04  0.7818608E-02  0.7929286E-01
          2   -1    0    0  501    0  0.00000000000E+00  0.00000000000E+00  0.31179536069E+04  0.31179536069E+04  0.00000000000E+00 0. -1.
         -2   -1    0    0    0  501 -0.00000000000E+00 -0.00000000000E+00 -0.15487584959E+04  0.15487584959E+04  0.00000000000E+00 0.  1.
         23    2    1    2    0    0 -0.18177704504E+03  0.55531537569E+03 -0.14633577517E+04  0.15783800407E+04  0.91921612949E+02 0.  0.
         11    1    3    3    0    0 -0.95087101354E+02  0.29217388612E+03 -0.89106356817E+03  0.94255048623E+03  0.00000000000E+00 0.  1.
        -11    1    3    3    0    0 -0.86689943687E+02  0.26314148957E+03 -0.57229418351E+03  0.63582955448E+03  0.00000000000E+00 0. -1.
         22    1    1    2    0    0  0.18177704504E+03 -0.55531537569E+03  0.30325528627E+04  0.30883320620E+04  0.00000000000E+00 0. -1.
<mgrwt>
<rscale>  0 0.43949777E+04</rscale>
<asrwt>0</asrwt>
<pdfrwt beam="1">  1        2 0.47968517E+00 0.43949777E+04</pdfrwt>
<pdfrwt beam="2">  1       -2 0.23827054E+00 0.43949777E+04</pdfrwt>
<totfact> 0.84962202E-02</totfact>
</mgrwt>
</event>
<event>
 6    1  0.1780144E-005  0.1048392E+04  0.7818608E-02  0.9257006E-01
         -1   -1    0    0    0  501 -0.00000000000E+00  0.00000000000E+00  0.77466796384E+02  0.77466796384E+02  0.00000000000E+00 0.  1.
          1   -1    0    0  501    0  0.00000000000E+00 -0.00000000000E+00 -0.35470848271E+04  0.35470848271E+04  0.00000000000E+00 0. -1.
         23    2    1    2    0    0 -0.35781773009E+03  0.27344946899E+03 -0.26503469400E+04  0.26896648602E+04  0.84557778086E+02 0.  0.
         13    1    3    3    0    0 -0.13603976394E+03  0.57743263468E+02 -0.94392538147E+03  0.95542463210E+03  0.00000000000E+00 0.  1.
        -13    1    3    3    0    0 -0.22177796614E+03  0.21570620553E+03 -0.17064215586E+04  0.17342402281E+04  0.00000000000E+00 0. -1.
         22    1    1    2    0    0  0.35781773009E+03 -0.27344946899E+03 -0.81927109071E+03  0.93488676327E+03  0.00000000000E+00 0.  1.
<mgrwt>
<rscale>  0 0.10483917E+04</rscale>
<asrwt>0</asrwt>
<pdfrwt beam="1">  1        1 0.54570544E+00 0.10483917E+04</pdfrwt>
<pdfrwt beam="2">  1       -1 0.11917967E-01 0.10483917E+04</pdfrwt>
<totfact> 0.11304385E+01</totfact>
</mgrwt>
</event>
<event>
 6    1  0.1780144E-005  0.1399631E+04  0.7818608E-02  0.8954086E-01
         -1   -1    0    0    0  501 -0.00000000000E+00  0.00000000000E+00  0.35157798845E+03  0.35157798845E+03  0.00000000000E+00 0.  1.
          1   -1    0    0  501    0  0.00000000000E+00 -0.00000000000E+00 -0.13929810594E+04  0.13929810594E+04  0.00000000000E+00 0. -1.
         23    2    1    2    0    0 -0.64300470330E+03  0.72362540934E+02 -0.20054617584E+03  0.68355400364E+03  0.91301267544E+02 0.  0.
         11    1    3    3    0    0 -0.52676195171E+03  0.37781885274E+02 -0.19215459285E+03  0.56198666548E+03  0.00000000000E+00 0. -1.
        -11    1    3    3    0    0 -0.11624275159E+03  0.34580655660E+02 -0.83915829953E+01  0.12156733816E+03  0.00000000000E+00 0.  1.
         22    1    1    2    0    0  0.64300470330E+03 -0.72362540934E+02 -0.84085689513E+03  0.10610050442E+04  0.00000000000E+00 0. -1.
<mgrwt>
<rscale>  0 0.13996306E+04</rscale>
<asrwt>0</asrwt>
<pdfrwt beam="1">  1        1 0.21430478E+00 0.13996306E+04</pdfrwt>
<pdfrwt beam="2">  1       -1 0.54088922E-01 0.13996306E+04</pdfrwt>
<totfact> 0.26147037E+01</totfact>
</mgrwt>
</event>
<event>
 6    1  0.1780144E-005  0.1525084E+04  0.7818608E-02  0.8867941E-01
         -1   -1    0    0    0  501 -0.00000000000E+00  0.00000000000E+00  0.40393494159E+03  0.40393494159E+03  0.00000000000E+00 0.  1.
          1   -1    0    0  501    0  0.00000000000E+00 -0.00000000000E+00 -0.14395152996E+04  0.14395152996E+04  0.00000000000E+00 0. -1.
         23    2    1    2    0    0 -0.75831486325E+01 -0.38154609110E+03 -0.13137936470E+04  0.13711817181E+04  0.91927326372E+02 0.  0.
         13    1    3    3    0    0 -0.35623627349E+02 -0.63427508527E+02 -0.21946561551E+03  0.23120823527E+03  0.00000000000E+00 0.  1.
        -13    1    3    3    0    0  0.28040478716E+02 -0.31811858258E+03 -0.10943280315E+04  0.11399734828E+04  0.00000000000E+00 0. -1.
         22    1    1    2    0    0  0.75831486325E+01  0.38154609110E+03  0.27821328897E+03  0.47226852313E+03  0.00000000000E+00 0.  1.
<mgrwt>
<rscale>  0 0.15250843E+04</rscale>
<asrwt>0</asrwt>
<pdfrwt beam="1">  1        1 0.22146389E+00 0.15250843E+04</pdfrwt>
<pdfrwt beam="2">  1       -1 0.62143836E-01 0.15250843E+04</pdfrwt>
<totfact> 0.18274953E+01</totfact>
</mgrwt>
</event>
<event>
 6    1  0.1780144E-005  0.5043173E+04  0.7818608E-02  0.7821882E-01
         -1   -1    0    0    0  501 -0.00000000000E+00  0.00000000000E+00  0.21728870487E+04  0.21728870487E+04  0.00000000000E+00 0.  1.
          1   -1    0    0  501    0  0.00000000000E+00 -0.00000000000E+00 -0.29262438377E+04  0.29262438377E+04  0.00000000000E+00 0. -1.
         23    2    1    2    0    0 -0.11146350602E+04  0.88914447220E+03  0.17250079752E+04  0.22398860361E+04  0.91911534222E+02 0.  0.
         11    1    3    3    0    0 -0.18611397909E+03  0.17727981422E+03  0.26939191720E+03  0.37234198098E+03  0.00000000000E+00 0.  1.
        -11    1    3    3    0    0 -0.92852108108E+03  0.71186465798E+03  0.14556160580E+04  0.18675440551E+04  0.00000000000E+00 0. -1.
         22    1    1    2    0    0  0.11146350602E+04 -0.88914447220E+03 -0.24783647642E+04  0.28592448504E+04  0.00000000000E+00 0. -1.
<mgrwt>
<rscale>  0 0.50431725E+04</rscale>
<asrwt>0</asrwt>
<pdfrwt beam="1">  1        1 0.45019136E+00 0.50431725E+04</pdfrwt>
<pdfrwt beam="2">  1       -1 0.33429031E+00 0.50431725E+04</pdfrwt>
<totfact> 0.96002192E-03</totfact>
</mgrwt>
</event>
<event>
 6    1  0.1780144E-005  0.1713612E+04  0.7818608E-02  0.8753639E-01
          2   -1    0    0  501    0  0.00000000000E+00  0.00000000000E+00  0.24889095897E+04  0.24889095897E+04  0.00000000000E+00 0.  1.
         -2   -1    0    0    0  501 -0.00000000000E+00 -0.00000000000E+00 -0.29495509216E+03  0.29495509216E+03  0.00000000000E+00 0. -1.
         23    2    1    2    0    0 -0.43936455371E+03  0.73156988003E+02 -0.84811312384E+02  0.46197605998E+03  0.88519858428E+02 0.  0.
         11    1    3    3    0    0 -0.28405480720E+03  0.47493787478E+01 -0.61497163694E+02  0.29067437320E+03  0.00000000000E+00 0.  1.
        -11    1    3    3    0    0 -0.15530974651E+03  0.68407609255E+02 -0.23314148690E+02  0.17130168678E+03  0.00000000000E+00 0. -1.
         22    1    1    2    0    0  0.43936455371E+03 -0.73156988003E+02  0.22787658100E+04  0.23218886219E+04  0.00000000000E+00 0.  1.
<mgrwt>
<rscale>  0 0.17136120E+04</rscale>
<asrwt>0</asrwt>
<pdfrwt beam="1">  1        2 0.38290915E+00 0.17136120E+04</pdfrwt>
<pdfrwt beam="2">  1       -2 0.45377708E-01 0.17136120E+04</pdfrwt>
<totfact> 0.15489643E+01</totfact>
</mgrwt>
</event>
<event>
 6    1  0.1780144E-005  0.3749559E+04  0.7818608E-02  0.8057067E-01
          1   -1    0    0  501    0  0.00000000000E+00  0.00000000000E+00  0.14444298431E+04  0.14444298431E+04  0.00000000000E+00 0. -1.
         -1   -1    0    0    0  501 -0.00000000000E+00 -0.00000000000E+00 -0.24333469874E+04  0.24333469874E+04  0.00000000000E+00 0.  1.
         23    2    1    2    0    0 -0.18259504862E+02  0.12034922536E+04 -0.19798137911E+04  0.23187376460E+04  0.90302877725E+02 0.  0.
         11    1    3    3    0    0  0.28141489021E+02  0.39845117718E+03 -0.60798999365E+03  0.72746623041E+03  0.00000000000E+00 0. -1.
        -11    1    3    3    0    0 -0.46400993883E+02  0.80504107640E+03 -0.13718237975E+04  0.15912714156E+04  0.00000000000E+00 0.  1.
         22    1    1    2    0    0  0.18259504862E+02 -0.12034922536E+04  0.99089664684E+03  0.15590391845E+04  0.00000000000E+00 0. -1.
<mgrwt>
<rscale>  0 0.37495594E+04</rscale>
<asrwt>0</asrwt>
<pdfrwt beam="1">  1        1 0.22221998E+00 0.37495594E+04</pdfrwt>
<pdfrwt beam="2">  1       -1 0.37436107E+00 0.37495594E+04</pdfrwt>
<totfact> 0.60986571E-02</totfact>
</mgrwt>
</event>
<event>
 6    1  0.1780144E-005  0.2937075E+04  0.7818608E-02  0.8261931E-01
         -2   -1    0    0    0  501 -0.00000000000E+00  0.00000000000E+00  0.70720041633E+03  0.70720041633E+03  0.00000000000E+00 0.  1.
          2   -1    0    0  501    0  0.00000000000E+00 -0.00000000000E+00 -0.30494917989E+04  0.30494917989E+04  0.00000000000E+00 0. -1.
         23    2    1    2    0    0 -0.23956430170E+03 -0.11729023622E+04 -0.87427611100E+02  0.12037524130E+04  0.91023506092E+02 0.  0.
         13    1    3    3    0    0 -0.91725786838E+02 -0.60147391694E+03 -0.10508395468E+02  0.60851862676E+03  0.00000000000E+00 0. -1.
        -13    1    3    3    0    0 -0.14783851486E+03 -0.57142844528E+03 -0.76919215631E+02  0.59523378625E+03  0.00000000000E+00 0.  1.
         22    1    1    2    0    0  0.23956430170E+03  0.11729023622E+04 -0.22548637715E+04  0.25529398022E+04  0.00000000000E+00 0. -1.
<mgrwt>
<rscale>  0 0.29370746E+04</rscale>
<asrwt>0</asrwt>
<pdfrwt beam="1">  1        2 0.46915259E+00 0.29370746E+04</pdfrwt>
<pdfrwt beam="2">  1       -2 0.10880006E+00 0.29370746E+04</pdfrwt>
<totfact> 0.94021052E-01</totfact>
</mgrwt>
</event>
<event>
 6    1  0.1780144E-005  0.7063977E+03  0.7818608E-02  0.9706353E-01
          2   -1    0    0  501    0  0.00000000000E+00  0.00000000000E+00  0.22967798028E+03  0.22967798028E+03  0.00000000000E+00 0. -1.
         -2   -1    0    0    0  501 -0.00000000000E+00 -0.00000000000E+00 -0.54314919968E+03  0.54314919968E+03  0.00000000000E+00 0.  1.
         23    2    1    2    0    0  0.36136047140E+02  0.23738986499E+03  0.11544389607E+03  0.28127053198E+03  0.90144645535E+02 0.  0.
         11    1    3    3    0    0  0.46040954689E+02  0.15412509261E+03  0.34066548219E+02  0.16442275813E+03  0.00000000000E+00 0. -1.
        -11    1    3    3    0    0 -0.99049075491E+01  0.83264772380E+02  0.81377347847E+02  0.11684777386E+03  0.00000000000E+00 0.  1.
         22    1    1    2    0    0 -0.36136047140E+02 -0.23738986499E+03 -0.42891511546E+03  0.49155664798E+03  0.00000000000E+00 0.  1.
<mgrwt>
<rscale>  0 0.70639765E+03</rscale>
<asrwt>0</asrwt>
<pdfrwt beam="1">  1        2 0.35335074E-01 0.70639765E+03</pdfrwt>
<pdfrwt beam="2">  1       -2 0.83561416E-01 0.70639765E+03</pdfrwt>
<totfact> 0.18720418E+02</totfact>
</mgrwt>
</event>
<event>
 6    1  0.1780144E-005  0.1937415E+04  0.7818608E-02  0.8636453E-01
         -2   -1    0    0    0  501 -0.00000000000E+00  0.00000000000E+00  0.12131426436E+04  0.12131426436E+04  0.00000000000E+00 0.  1.
          2   -1    0    0  501    0  0.00000000000E+00 -0.00000000000E+00 -0.77352335107E+03  0.77352335107E+03  0.00000000000E+00 0. -1.
         23    2    1    2    0    0  0.33111886477E+03 -0.84974070725E+03  0.54871491637E+03  0.10681885441E+04  0.90772981146E+02 0.  0.
         13    1    3    3    0    0  0.19119866296E+03 -0.55538307879E+03  0.39501429565E+03  0.70784432377E+03  0.00000000000E+00 0.  1.
        -13    1    3    3    0    0  0.13992020181E+03 -0.29435762845E+03  0.15370062072E+03  0.36034422032E+03  0.00000000000E+00 0. -1.
         22    1    1    2    0    0 -0.33111886477E+03  0.84974070725E+03 -0.10909562382E+03  0.91847745062E+03  0.00000000000E+00 0. -1.
<mgrwt>
<rscale>  0 0.19374149E+04</rscale>
<asrwt>0</asrwt>
<pdfrwt beam="1">  1        2 0.11900359E+00 0.19374149E+04</pdfrwt>
<pdfrwt beam="2">  1       -2 0.18663733E+00 0.19374149E+04</pdfrwt>
<totfact> 0.54891523E+00</totfact>
</mgrwt>
</event>
<event>
 6    1  0.1780144E-005  0.1334952E+04  0.7818608E-02  0.9002298E-01
          1   -1    0    0  501    0  0.00000000000E+00  0.00000000000E+00  0.14762489773E+04  0.14762489773E+04  0.00000000000E+00 0. -1.
         -1   -1    0    0    0  501 -0.00000000000E+00 -0.00000000000E+00 -0.30179472648E+03  0.30179472648E+03  0.00000000000E+00 0.  1.
         23    2    1    2    0    0 -0.26618914184E+03 -0.62746972447E+02 -0.21661143872E+03  0.36034923937E+03  0.90206524972E+02 0.  0.
         11    1    3    3    0    0 -0.95652493457E+02 -0.67031764657E+02 -0.76838183832E+02  0.13980974026E+03  0.00000000000E+00 0. -1.
        -11    1    3    3    0    0 -0.17053664838E+03  0.42847922099E+01 -0.13977325489E+03  0.22053949911E+03  0.00000000000E+00 0.  1.
         22    1    1    2    0    0  0.26618914184E+03  0.62746972447E+02  0.13910656895E+04  0.14176944644E+04  0.00000000000E+00 0. -1.
<mgrwt>
<rscale>  0 0.13349519E+04</rscale>
<asrwt>0</asrwt>
<pdfrwt beam="1">  1        1 0.22711522E+00 0.13349519E+04</pdfrwt>
<pdfrwt beam="2">  1       -1 0.46429959E-01 0.13349519E+04</pdfrwt>
<totfact> 0.30748600E+01</totfact>
</mgrwt>
</event>
<event>
 6    1  0.2303693E-005  0.3417047E+04  0.7818608E-02  0.8133735E-01
         -2   -1    0    0    0  501 -0.00000000000E+00  0.00000000000E+00  0.12301749638E+04  0.12301749638E+04  0.00000000000E+00 0.  1.
          2   -1    0    0  501    0  0.00000000000E+00 -0.00000000000E+00 -0.23728761806E+04  0.23728761806E+04  0.00000000000E+00 0. -1.
         23    2    1    2    0    0 -0.12600588012E+04 -0.69325338634E+03 -0.15419849977E+04  0.21104775355E+04  0.89717639737E+02 0.  0.
         11    1    3    3    0    0 -0.71806198767E+03 -0.43920849963E+03 -0.86966632417E+03  0.12103043583E+04  0.00000000000E+00 0.  1.
        -11    1    3    3    0    0 -0.54199681350E+03 -0.25404488672E+03 -0.67231867349E+03  0.90017317725E+03  0.00000000000E+00 0. -1.
         22    1    1    2    0    0  0.12600588012E+04  0.69325338634E+03  0.39928378083E+03  0.14925736088E+04  0.00000000000E+00 0.  1.
<mgrwt>
<rscale>  0 0.34170472E+04</rscale>
<asrwt>0</asrwt>
<pdfrwt beam="1">  1        2 0.36505787E+00 0.34170472E+04</pdfrwt>
<pdfrwt beam="2">  1       -2 0.18925769E+00 0.34170472E+04</pdfrwt>
<totfact> 0.53441825E-01</totfact>
</mgrwt>
</event>
<event>
 6    1  0.1780144E-005  0.4890985E+04  0.7818608E-02  0.7845547E-01
         -1   -1    0    0    0  501 -0.00000000000E+00  0.00000000000E+00  0.24718499967E+04  0.24718499967E+04  0.00000000000E+00 0.  1.
          1   -1    0    0  501    0  0.00000000000E+00 -0.00000000000E+00 -0.24194157379E+04  0.24194157379E+04  0.00000000000E+00 0. -1.
         23    2    1    2    0    0  0.18099736698E+04  0.97165484071E+03  0.13515356526E+04  0.24606727521E+04  0.90243878405E+02 0.  0.
         13    1    3    3    0    0  0.68926717590E+03  0.38954330155E+03  0.47269855005E+03  0.92210473525E+03  0.00000000000E+00 0.  1.
        -13    1    3    3    0    0  0.11207064939E+04  0.58211153916E+03  0.87883710259E+03  0.15385680168E+04  0.00000000000E+00 0. -1.
         22    1    1    2    0    0 -0.18099736698E+04 -0.97165484071E+03 -0.12991013939E+04  0.24305929825E+04  0.00000000000E+00 0. -1.
<mgrwt>
<rscale>  0 0.48909847E+04</rscale>
<asrwt>0</asrwt>
<pdfrwt beam="1">  1        1 0.37221781E+00 0.48909847E+04</pdfrwt>
<pdfrwt beam="2">  1       -1 0.38028462E+00 0.48909847E+04</pdfrwt>
<totfact> 0.10928856E-02</totfact>
</mgrwt>
</event>
<event>
 6    1  0.1780144E-005  0.3143993E+04  0.7818608E-02  0.8203767E-01
         -2   -1    0    0    0  501 -0.00000000000E+00  0.00000000000E+00  0.16875982991E+04  0.16875982991E+04  0.00000000000E+00 0.  1.
          2   -1    0    0  501    0  0.00000000000E+00 -0.00000000000E+00 -0.14643139063E+04  0.14643139063E+04  0.00000000000E+00 0. -1.
         23    2    1    2    0    0 -0.14779663146E+04  0.29850886089E+03  0.55274702018E+03  0.16085270980E+04  0.91313687239E+02 0.  0.
         13    1    3    3    0    0 -0.10931177264E+04  0.25546098996E+03  0.38866619449E+03  0.11879512161E+04  0.00000000000E+00 0.  1.
        -13    1    3    3    0    0 -0.38484858823E+03  0.43047870928E+02  0.16408082569E+03  0.42057588187E+03  0.00000000000E+00 0. -1.
         22    1    1    2    0    0  0.14779663146E+04 -0.29850886089E+03 -0.32946262729E+03  0.15433851074E+04  0.00000000000E+00 0. -1.
<mgrwt>
<rscale>  0 0.31439934E+04</rscale>
<asrwt>0</asrwt>
<pdfrwt beam="1">  1        2 0.22527906E+00 0.31439934E+04</pdfrwt>
<pdfrwt beam="2">  1       -2 0.25963051E+00 0.31439934E+04</pdfrwt>
<totfact> 0.63095191E-01</totfact>
</mgrwt>
</event>
<event>
 6    1  0.1780144E-005  0.3389968E+04  0.7818608E-02  0.8140373E-01
         -1   -1    0    0    0  501 -0.00000000000E+00  0.00000000000E+00  0.33215863439E+04  0.33215863439E+04  0.00000000000E+00 0.  1.
          1   -1    0    0  501    0  0.00000000000E+00 -0.00000000000E+00 -0.86493947846E+03  0.86493947846E+03  0.00000000000E+00 0. -1.
         23    2    1    2    0    0 -0.12255269870E+04  0.76875013061E+02 -0.21190554047E+03  0.12490101872E+04  0.85418535043E+02 0.  0.
         11    1    3    3    0    0 -0.36049948024E+03 -0.15376490937E+02 -0.53464366573E+02  0.36476670657E+03  0.00000000000E+00 0. -1.
        -11    1    3    3    0    0 -0.86502750679E+03  0.92251503999E+02 -0.15844117390E+03  0.88424348065E+03  0.00000000000E+00 0.  1.
         22    1    1    2    0    0  0.12255269870E+04 -0.76875013061E+02  0.26685524059E+04  0.29375156351E+04  0.00000000000E+00 0.  1.
<mgrwt>
<rscale>  0 0.33899682E+04</rscale>
<asrwt>0</asrwt>
<pdfrwt beam="1">  1        1 0.13306761E+00 0.33899682E+04</pdfrwt>
<pdfrwt beam="2">  1       -1 0.51101328E+00 0.33899682E+04</pdfrwt>
<totfact> 0.20274804E-02</totfact>
</mgrwt>
</event>
<event>
 6    1  0.1780144E-005  0.2148661E+04  0.7818608E-02  0.8540106E-01
          1   -1    0    0  501    0  0.00000000000E+00  0.00000000000E+00  0.16570163221E+04  0.16570163221E+04  0.00000000000E+00 0. -1.
         -1   -1    0    0    0  501 -0.00000000000E+00 -0.00000000000E+00 -0.69654463215E+03  0.69654463215E+03  0.00000000000E+00 0.  1.
         23    2    1    2    0    0  0.17604195042E+03 -0.87396194949E+03 -0.17175937442E+03  0.91246850733E+03  0.91089168974E+02 0.  0.
         11    1    3    3    0    0  0.13080131953E+03 -0.59234763583E+03 -0.74789974519E+02  0.61121047697E+03  0.00000000000E+00 0.  1.
        -11    1    3    3    0    0  0.45240630889E+02 -0.28161431366E+03 -0.96969399906E+02  0.30125803036E+03  0.00000000000E+00 0. -1.
         22    1    1    2    0    0 -0.17604195042E+03  0.87396194949E+03  0.11322310644E+04  0.14410924469E+04  0.00000000000E+00 0. -1.
<mgrwt>
<rscale>  0 0.21486608E+04</rscale>
<asrwt>0</asrwt>
<pdfrwt beam="1">  1        1 0.25492559E+00 0.21486608E+04</pdfrwt>
<pdfrwt beam="2">  1       -1 0.10716071E+00 0.21486608E+04</pdfrwt>
<totfact> 0.37906474E+00</totfact>
</mgrwt>
</event>
<event>
 6    1  0.1780144E-005  0.4945714E+04  0.7818608E-02  0.7836936E-01
         -2   -1    0    0    0  501 -0.00000000000E+00  0.00000000000E+00  0.25007739790E+04  0.25007739790E+04  0.00000000000E+00 0.  1.
          2   -1    0    0  501    0  0.00000000000E+00 -0.00000000000E+00 -0.24452516263E+04  0.24452516263E+04  0.00000000000E+00 0. -1.
         23    2    1    2    0    0 -0.72701744864E+03  0.12075738015E+04 -0.20032071462E+04  0.24509993518E+04  0.88148145292E+02 0.  0.
         13    1    3    3    0    0 -0.29905922630E+03  0.54629946072E+03 -0.94648778253E+03  0.11330130821E+04  0.00000000000E+00 0.  1.
        -13    1    3    3    0    0 -0.42795822234E+03  0.66127434075E+03 -0.10567193636E+04  0.13179862697E+04  0.00000000000E+00 0. -1.
         22    1    1    2    0    0  0.72701744864E+03 -0.12075738015E+04  0.20587294988E+04  0.24950262535E+04  0.00000000000E+00 0.  1.
<mgrwt>
<rscale>  0 0.49457140E+04</rscale>
<asrwt>0</asrwt>
<pdfrwt beam="1">  1        2 0.37619256E+00 0.49457140E+04</pdfrwt>
<pdfrwt beam="2">  1       -2 0.38473446E+00 0.49457140E+04</pdfrwt>
<totfact> 0.25555187E-02</totfact>
</mgrwt>
</event>
<event>
 6    1  0.1780144E-005  0.9054328E+03  0.7818608E-02  0.9418816E-01
          1   -1    0    0  501    0  0.00000000000E+00  0.00000000000E+00  0.95190671043E+03  0.95190671043E+03  0.00000000000E+00 0. -1.
         -1   -1    0    0    0  501 -0.00000000000E+00 -0.00000000000E+00 -0.21530696706E+03  0.21530696706E+03  0.00000000000E+00 0.  1.
         23    2    1    2    0    0 -0.65284217730E+02  0.23379820602E+03 -0.11421002940E+03  0.28245331464E+03  0.88387294954E+02 0.  0.
         13    1    3    3    0    0 -0.25894026834E+02  0.15712127303E+03 -0.11469998017E+03  0.19624902679E+03  0.00000000000E+00 0. -1.
        -13    1    3    3    0    0 -0.39390190896E+02  0.76676932991E+02  0.48995076544E+00  0.86204287849E+02  0.00000000000E+00 0.  1.
         22    1    1    2    0    0  0.65284217730E+02 -0.23379820602E+03  0.85080977278E+03  0.88476036286E+03  0.00000000000E+00 0. -1.
<mgrwt>
<rscale>  0 0.90543282E+03</rscale>
<asrwt>0</asrwt>
<pdfrwt beam="1">  1        1 0.14644718E+00 0.90543282E+03</pdfrwt>
<pdfrwt beam="2">  1       -1 0.33124149E-01 0.90543282E+03</pdfrwt>
<totfact> 0.14228922E+02</totfact>
</mgrwt>
</event>
<event>
 6    1  0.1780144E-005  0.6681049E+04  0.7818608E-02  0.7611254E-01
         -2   -1    0    0    0  501 -0.00000000000E+00  0.00000000000E+00  0.35430380047E+04  0.35430380047E+04  0.00000000000E+00 0.  1.
          2   -1    0    0  501    0  0.00000000000E+00 -0.00000000000E+00 -0.31495862860E+04  0.31495862860E+04  0.00000000000E+00 0. -1.
         23    2    1    2    0    0 -0.26529207177E+04  0.20013586891E+03  0.22193846537E+04  0.34658497738E+04  0.91671765221E+02 0.  0.
         13    1    3    3    0    0 -0.24018797581E+04  0.17192477160E+03  0.19748371742E+04  0.31142521357E+04  0.00000000000E+00 0.  1.
        -13    1    3    3    0    0 -0.25104095956E+03  0.28211097316E+02  0.24454747950E+03  0.35159763810E+03  0.00000000000E+00 0. -1.
         22    1    1    2    0    0  0.26529207177E+04 -0.20013586891E+03 -0.18259329350E+04  0.32267745170E+04  0.00000000000E+00 0. -1.
<mgrwt>
<rscale>  0 0.66810490E+04</rscale>
<asrwt>0</asrwt>
<pdfrwt beam="1">  1        2 0.48455174E+00 0.66810490E+04</pdfrwt>
<pdfrwt beam="2">  1       -2 0.54508277E+00 0.66810490E+04</pdfrwt>
<totfact> 0.82616533E-04</totfact>
</mgrwt>
</event>
<event>
 6    1  0.1780144E-005  0.4247287E+04  0.7818608E-02  0.7956438E-01
          2   -1    0    0  501    0  0.00000000000E+00  0.00000000000E+00  0.35519466803E+04  0.35519466803E+04  0.00000000000E+00 0. -1.
         -2   -1    0    0    0  501 -0.00000000000E+00 -0.00000000000E+00 -0.12696873134E+04  0.12696873134E+04  0.00000000000E+00 0.  1.
         23    2    1    2    0    0 -0.19861247253E+04 -0.50448778623E+03  0.17703087820E+04  0.27094567397E+04  0.89237264927E+02 0.  0.
         13    1    3    3    0    0 -0.13573404438E+04 -0.38677281873E+03  0.12276246886E+04  0.18705690765E+04  0.00000000000E+00 0. -1.
        -13    1    3    3    0    0 -0.62878428150E+03 -0.11771496749E+03  0.54268409338E+03  0.83888766318E+03  0.00000000000E+00 0.  1.
         22    1    1    2    0    0  0.19861247253E+04  0.50448778623E+03  0.51195058485E+03  0.21121772540E+04  0.00000000000E+00 0.  1.
<mgrwt>
<rscale>  0 0.42472870E+04</rscale>
<asrwt>0</asrwt>
<pdfrwt beam="1">  1        2 0.54645333E+00 0.42472870E+04</pdfrwt>
<pdfrwt beam="2">  1       -2 0.19533651E+00 0.42472870E+04</pdfrwt>
<totfact> 0.82333640E-02</totfact>
</mgrwt>
</event>
<event>
 6    1  0.1780144E-005  0.3353881E+04  0.7818608E-02  0.8149319E-01
         -2   -1    0    0    0  501 -0.00000000000E+00  0.00000000000E+00  0.22775528468E+04  0.22775528468E+04  0.00000000000E+00 0.  1.
          2   -1    0    0  501    0  0.00000000000E+00 -0.00000000000E+00 -0.12347154046E+04  0.12347154046E+04  0.00000000000E+00 0. -1.
         23    2    1    2    0    0  0.13370102797E+03 -0.16099230080E+04  0.55578349093E+02  0.16190148152E+04  0.91607654626E+02 0.  0.
         11    1    3    3    0    0  0.84563949113E+02 -0.86407149143E+03 -0.14023724566E+02  0.86831288637E+03  0.00000000000E+00 0.  1.
        -11    1    3    3    0    0  0.49137078853E+02 -0.74585151661E+03  0.69602073659E+02  0.75070192886E+03  0.00000000000E+00 0. -1.
         22    1    1    2    0    0 -0.13370102797E+03  0.16099230080E+04  0.98725909309E+03  0.18932534362E+04  0.00000000000E+00 0.  1.
<mgrwt>
<rscale>  0 0.33538811E+04</rscale>
<asrwt>0</asrwt>
<pdfrwt beam="1">  1        2 0.18995622E+00 0.33538811E+04</pdfrwt>
<pdfrwt beam="2">  1       -2 0.35039275E+00 0.33538811E+04</pdfrwt>
<totfact> 0.23222051E-01</totfact>
</mgrwt>
</event>
<event>
 6    1  0.1780144E-005  0.1873339E+04  0.7818608E-02  0.8668242E-01
         -2   -1    0    0    0  501 -0.00000000000E+00  0.00000000000E+00  0.70958762973E+03  0.70958762973E+03  0.00000000000E+00 0.  1.
          2   -1    0    0  501    0  0.00000000000E+00 -0.00000000000E+00 -0.12364225829E+04  0.12364225829E+04  0.00000000000E+00 0. -1.
         23    2    1    2    0    0  0.13790016555E+03  0.55453833936E+03 -0.10320828618E+04  0.11832489953E+04  0.91399813011E+02 0.  0.
         11    1    3    3    0    0  0.69469745372E+02  0.43850294822E+03 -0.79454772460E+03  0.91017414147E+03  0.00000000000E+00 0. -1.
        -11    1    3    3    0    0  0.68430420182E+02  0.11603539114E+03 -0.23753513717E+03  0.27307485383E+03  0.00000000000E+00 0.  1.
         22    1    1    2    0    0 -0.13790016555E+03 -0.55453833936E+03  0.50524790862E+03  0.76276121732E+03  0.00000000000E+00 0.  1.
<mgrwt>
<rscale>  0 0.18733394E+04</rscale>
<asrwt>0</asrwt>
<pdfrwt beam="1">  1        2 0.19021886E+00 0.18733394E+04</pdfrwt>
<pdfrwt beam="2">  1       -2 0.10916733E+00 0.18733394E+04</pdfrwt>
<totfact> 0.11319206E+01</totfact>
</mgrwt>
</event>
<event>
 6    1  0.1780144E-005  0.3379545E+04  0.7818608E-02  0.8142945E-01
         -3   -1    0    0    0  501 -0.00000000000E+00  0.00000000000E+00  0.12219977133E+04  0.12219977133E+04  0.00000000000E+00 0.  1.
          3   -1    0    0  501    0  0.00000000000E+00 -0.00000000000E+00 -0.23366098909E+04  0.23366098909E+04  0.00000000000E+00 0. -1.
         23    2    1    2    0    0 -0.10479306639E+04  0.21777868406E+02 -0.19517086965E+04  0.22172040355E+04  0.90520425624E+02 0.  0.
         11    1    3    3    0    0 -0.51779633247E+03 -0.34196022027E+02 -0.95159651022E+03  0.10838903672E+04  0.00000000000E+00 0. -1.
        -11    1    3    3    0    0 -0.53013433145E+03  0.55973890432E+02 -0.10001121862E+04  0.11333136683E+04  0.00000000000E+00 0.  1.
         22    1    1    2    0    0  0.10479306639E+04 -0.21777868406E+02  0.83709651887E+03  0.13414035686E+04  0.00000000000E+00 0.  1.
<mgrwt>
<rscale>  0 0.33795455E+04</rscale>
<asrwt>0</asrwt>
<pdfrwt beam="1">  1        3 0.35947844E+00 0.33795455E+04</pdfrwt>
<pdfrwt beam="2">  1       -3 0.18799965E+00 0.33795455E+04</pdfrwt>
<totfact> 0.68851621E-03</totfact>
</mgrwt>
</event>
<event>
 6    1  0.1780144E-005  0.2413548E+04  0.7818608E-02  0.8434449E-01
          1   -1    0    0  501    0  0.00000000000E+00  0.00000000000E+00  0.68104685952E+03  0.68104685952E+03  0.00000000000E+00 0. -1.
         -1   -1    0    0    0  501 -0.00000000000E+00 -0.00000000000E+00 -0.21383308357E+04  0.21383308357E+04  0.00000000000E+00 0.  1.
         23    2    1    2    0    0 -0.22004630810E+03 -0.11833928154E+04 -0.66420661956E+03  0.13779164134E+04  0.92974596736E+02 0.  0.
         13    1    3    3    0    0 -0.10227103263E+03 -0.41395391366E+03 -0.27753609787E+03  0.50876663842E+03  0.00000000000E+00 0. -1.
        -13    1    3    3    0    0 -0.11777527546E+03 -0.76943890177E+03 -0.38667052168E+03  0.86914977501E+03  0.00000000000E+00 0.  1.
         22    1    1    2    0    0  0.22004630810E+03  0.11833928154E+04 -0.79307735664E+03  0.14414612818E+04  0.00000000000E+00 0.  1.
<mgrwt>
<rscale>  0 0.24135480E+04</rscale>
<asrwt>0</asrwt>
<pdfrwt beam="1">  1        1 0.10477644E+00 0.24135480E+04</pdfrwt>
<pdfrwt beam="2">  1       -1 0.32897397E+00 0.24135480E+04</pdfrwt>
<totfact> 0.54370313E-01</totfact>
</mgrwt>
</event>
<event>
 6    1  0.1780144E-005  0.8974044E+03  0.7818608E-02  0.9428832E-01
          1   -1    0    0  501    0  0.00000000000E+00  0.00000000000E+00  0.11178799232E+04  0.11178799232E+04  0.00000000000E+00 0. -1.
         -1   -1    0    0    0  501 -0.00000000000E+00 -0.00000000000E+00 -0.18010311914E+03  0.18010311914E+03  0.00000000000E+00 0.  1.
         23    2    1    2    0    0 -0.30556393392E+03  0.28991021333E+03  0.68064287834E+03  0.80449028124E+03  0.80700900069E+02 0.  0.
         11    1    3    3    0    0 -0.12316440178E+03  0.17244931480E+03  0.33414065570E+03  0.39567437854E+03  0.00000000000E+00 0.  1.
        -11    1    3    3    0    0 -0.18239953214E+03  0.11746089853E+03  0.34650222264E+03  0.40881590271E+03  0.00000000000E+00 0. -1.
         22    1    1    2    0    0  0.30556393392E+03 -0.28991021333E+03  0.25713392572E+03  0.49349276110E+03  0.00000000000E+00 0. -1.
<mgrwt>
<rscale>  0 0.89740439E+03</rscale>
<asrwt>0</asrwt>
<pdfrwt beam="1">  1        1 0.17198152E+00 0.89740439E+03</pdfrwt>
<pdfrwt beam="2">  1       -1 0.27708173E-01 0.89740439E+03</pdfrwt>
<totfact> 0.14506371E+02</totfact>
</mgrwt>
</event>
<event>
 6    1  0.1780144E-005  0.2830325E+04  0.7818608E-02  0.8293915E-01
          2   -1    0    0  501    0  0.00000000000E+00  0.00000000000E+00  0.10164140829E+04  0.10164140829E+04  0.00000000000E+00 0.  1.
         -2   -1    0    0    0  501 -0.00000000000E+00 -0.00000000000E+00 -0.19703431601E+04  0.19703431601E+04  0.00000000000E+00 0. -1.
         23    2    1    2    0    0  0.26670143691E+03  0.10154502923E+04  0.52123299750E+03  0.11761297001E+04  0.96583028107E+02 0.  0.
         11    1    3    3    0    0 -0.83290414927E+01  0.38709427659E+02  0.20185838365E+02  0.44443906133E+02  0.00000000000E+00 0.  1.
        -11    1    3    3    0    0  0.27503047841E+03  0.97674086459E+03  0.50104715913E+03  0.11316857940E+04  0.00000000000E+00 0. -1.
         22    1    1    2    0    0 -0.26670143691E+03 -0.10154502923E+04 -0.14751620747E+04  0.18106275429E+04  0.00000000000E+00 0. -1.
<mgrwt>
<rscale>  0 0.28303247E+04</rscale>
<asrwt>0</asrwt>
<pdfrwt beam="1">  1        2 0.15637140E+00 0.28303247E+04</pdfrwt>
<pdfrwt beam="2">  1       -2 0.30312972E+00 0.28303247E+04</pdfrwt>
<totfact> 0.64895290E-01</totfact>
</mgrwt>
</event>
<event>
 6    1  0.1780144E-005  0.1918986E+04  0.7818608E-02  0.8645463E-01
         -2   -1    0    0    0  501 -0.00000000000E+00  0.00000000000E+00  0.30370832099E+03  0.30370832099E+03  0.00000000000E+00 0.  1.
          2   -1    0    0  501    0  0.00000000000E+00 -0.00000000000E+00 -0.30312855943E+04  0.30312855943E+04  0.00000000000E+00 0. -1.
         23    2    1    2    0    0 -0.51732796110E+03  0.38284006509E+03 -0.25984801880E+04  0.26785940431E+04  0.92585234304E+02 0.  0.
         13    1    3    3    0    0 -0.99976720621E+02  0.11007602332E+03 -0.49632488693E+03  0.51812205991E+03  0.00000000000E+00 0.  1.
        -13    1    3    3    0    0 -0.41735124048E+03  0.27276404176E+03 -0.21021553010E+04  0.21604719832E+04  0.00000000000E+00 0. -1.
         22    1    1    2    0    0  0.51732796110E+03 -0.38284006509E+03 -0.12909708533E+03  0.65639987219E+03  0.00000000000E+00 0.  1.
<mgrwt>
<rscale>  0 0.19189858E+04</rscale>
<asrwt>0</asrwt>
<pdfrwt beam="1">  1        2 0.46635161E+00 0.19189858E+04</pdfrwt>
<pdfrwt beam="2">  1       -2 0.46724359E-01 0.19189858E+04</pdfrwt>
<totfact> 0.67779512E+00</totfact>
</mgrwt>
</event>
<event>
 6    1  0.2037458E-005  0.3285446E+04  0.7818608E-02  0.8166608E-01
         -2   -1    0    0    0  501 -0.00000000000E+00  0.00000000000E+00  0.99893820320E+03  0.99893820320E+03  0.00000000000E+00 0.  1.
          2   -1    0    0  501    0  0.00000000000E+00 -0.00000000000E+00 -0.27014079694E+04  0.27014079694E+04  0.00000000000E+00 0. -1.
         23    2    1    2    0    0  0.12391047050E+04 -0.26730421732E+03  0.32255238439E+03  0.13112989305E+04  0.92913023052E+02 0.  0.
         13    1    3    3    0    0  0.72805039494E+03 -0.12193411404E+03  0.15616594131E+03  0.75452840037E+03  0.00000000000E+00 0.  1.
        -13    1    3    3    0    0  0.51105431007E+03 -0.14537010329E+03  0.16638644308E+03  0.55677053012E+03  0.00000000000E+00 0. -1.
         22    1    1    2    0    0 -0.12391047050E+04  0.26730421732E+03 -0.20250221505E+04  0.23890472421E+04  0.00000000000E+00 0. -1.
<mgrwt>
<rscale>  0 0.32854465E+04</rscale>
<asrwt>0</asrwt>
<pdfrwt beam="1">  1        2 0.41560122E+00 0.32854465E+04</pdfrwt>
<pdfrwt beam="2">  1       -2 0.15368280E+00 0.32854465E+04</pdfrwt>
<totfact> 0.62225043E-01</totfact>
</mgrwt>
</event>
<event>
 6    1  0.1780144E-005  0.1048626E+04  0.7818608E-02  0.9256764E-01
         -2   -1    0    0    0  501 -0.00000000000E+00  0.00000000000E+00  0.36095210385E+03  0.36095210385E+03  0.00000000000E+00 0.  1.
          2   -1    0    0  501    0  0.00000000000E+00 -0.00000000000E+00 -0.76160784898E+03  0.76160784898E+03  0.00000000000E+00 0. -1.
         23    2    1    2    0    0 -0.32652848450E+03  0.30645852891E+03 -0.48555247123E+03  0.66676928242E+03  0.91007650913E+02 0.  0.
         13    1    3    3    0    0 -0.24501826054E+03  0.17089330981E+03 -0.32245913285E+03  0.43956610844E+03  0.00000000000E+00 0. -1.
        -13    1    3    3    0    0 -0.81510223968E+02  0.13556521909E+03 -0.16309333838E+03  0.22720317397E+03  0.00000000000E+00 0.  1.
         22    1    1    2    0    0  0.32652848450E+03 -0.30645852891E+03  0.84896726096E+02  0.45579067041E+03  0.00000000000E+00 0.  1.
<mgrwt>
<rscale>  0 0.10486257E+04</rscale>
<asrwt>0</asrwt>
<pdfrwt beam="1">  1        2 0.11717044E+00 0.10486257E+04</pdfrwt>
<pdfrwt beam="2">  1       -2 0.55531094E-01 0.10486257E+04</pdfrwt>
<totfact> 0.11156962E+02</totfact>
</mgrwt>
</event>
<event>
 6    1  0.1780144E-005  0.4269238E+03  0.7818608E-02  0.1034836E+00
         -1   -1    0    0    0  501 -0.00000000000E+00  0.00000000000E+00  0.17310555288E+02  0.17310555288E+02  0.00000000000E+00 0.  1.
          1   -1    0    0  501    0  0.00000000000E+00 -0.00000000000E+00 -0.26322658911E+04  0.26322658911E+04  0.00000000000E+00 0. -1.
         23    2    1    2    0    0  0.10645432560E+03 -0.17046423201E+03 -0.15688411493E+04  0.15843321227E+04  0.91951865596E+02 0.  0.
         13    1    3    3    0    0  0.29462266858E+02 -0.56858244459E+02 -0.85656006880E+03  0.85895054374E+03  0.00000000000E+00 0. -1.
        -13    1    3    3    0    0  0.76992058745E+02 -0.11360598755E+03 -0.71228108048E+03  0.72538157898E+03  0.00000000000E+00 0.  1.
         22    1    1    2    0    0 -0.10645432560E+03  0.17046423201E+03 -0.10461141865E+04  0.10652443236E+04  0.00000000000E+00 0. -1.
<mgrwt>
<rscale>  0 0.42692381E+03</rscale>
<asrwt>0</asrwt>
<pdfrwt beam="1">  1        1 0.40496372E+00 0.42692381E+03</pdfrwt>
<pdfrwt beam="2">  1       -1 0.26631641E-02 0.42692381E+03</pdfrwt>
<totfact> 0.56992550E+02</totfact>
</mgrwt>
</event>
<event>
 6    1  0.1780144E-005  0.3778835E+04  0.7818608E-02  0.8050712E-01
         -2   -1    0    0    0  501 -0.00000000000E+00  0.00000000000E+00  0.19582668509E+04  0.19582668509E+04  0.00000000000E+00 0. -1.
          2   -1    0    0  501    0  0.00000000000E+00 -0.00000000000E+00 -0.18229889601E+04  0.18229889601E+04  0.00000000000E+00 0.  1.
         23    2    1    2    0    0 -0.52161257527E+03  0.28512929684E+03  0.18611352250E+04  0.19558895649E+04  0.91111304161E+02 0.  0.
         11    1    3    3    0    0 -0.29750398373E+03  0.11199738610E+03  0.10158861749E+04  0.10644607814E+04  0.00000000000E+00 0. -1.
        -11    1    3    3    0    0 -0.22410859154E+03  0.17313191074E+03  0.84524905016E+03  0.89142878353E+03  0.00000000000E+00 0.  1.
         22    1    1    2    0    0  0.52161257527E+03 -0.28512929684E+03 -0.17258573341E+04  0.18253662461E+04  0.00000000000E+00 0.  1.
<mgrwt>
<rscale>  0 0.37788352E+04</rscale>
<asrwt>0</asrwt>
<pdfrwt beam="1">  1        2 0.28045984E+00 0.37788352E+04</pdfrwt>
<pdfrwt beam="2">  1       -2 0.30127182E+00 0.37788352E+04</pdfrwt>
<totfact> 0.21009473E-01</totfact>
</mgrwt>
</event>
<event>
 6    1  0.1780144E-005  0.1020360E+04  0.7818608E-02  0.9286492E-01
         -2   -1    0    0    0  501 -0.00000000000E+00  0.00000000000E+00  0.72994529778E+03  0.72994529778E+03  0.00000000000E+00 0.  1.
          2   -1    0    0  501    0  0.00000000000E+00 -0.00000000000E+00 -0.35657960790E+03  0.35657960790E+03  0.00000000000E+00 0. -1.
         23    2    1    2    0    0 -0.27053239429E+03  0.40369281831E+03  0.33952969443E+03  0.59938987049E+03  0.88499353281E+02 0.  0.
         11    1    3    3    0    0 -0.54164610709E+02  0.15064282838E+03  0.93283037786E+02  0.18528030638E+03  0.00000000000E+00 0. -1.
        -11    1    3    3    0    0 -0.21636778358E+03  0.25304998993E+03  0.24624665665E+03  0.41410956411E+03  0.00000000000E+00 0.  1.
         22    1    1    2    0    0  0.27053239429E+03 -0.40369281831E+03  0.33835995442E+02  0.48713503518E+03  0.00000000000E+00 0. -1.
<mgrwt>
<rscale>  0 0.10203600E+04</rscale>
<asrwt>0</asrwt>
<pdfrwt beam="1">  1        2 0.54858401E-01 0.10203600E+04</pdfrwt>
<pdfrwt beam="2">  1       -2 0.11229928E+00 0.10203600E+04</pdfrwt>
<totfact> 0.56386712E+01</totfact>
</mgrwt>
</event>
<event>
 6    1  0.1780144E-005  0.1037377E+04  0.7818608E-02  0.9268475E-01
          1   -1    0    0  501    0  0.00000000000E+00  0.00000000000E+00  0.32702731468E+03  0.32702731468E+03  0.00000000000E+00 0. -1.
         -1   -1    0    0    0  501 -0.00000000000E+00 -0.00000000000E+00 -0.82267629974E+03  0.82267629974E+03  0.00000000000E+00 0.  1.
         23    2    1    2    0    0  0.10578926886E+03  0.25394025414E+03 -0.73148859526E+03  0.78735386098E+03  0.95778470011E+02 0.  0.
         13    1    3    3    0    0 -0.84758526652E+00  0.11619634137E+03 -0.26294094818E+03  0.28747217322E+03  0.00000000000E+00 0. -1.
        -13    1    3    3    0    0  0.10663685413E+03  0.13774391277E+03 -0.46854764708E+03  0.49988168775E+03  0.00000000000E+00 0.  1.
         22    1    1    2    0    0 -0.10578926886E+03 -0.25394025414E+03  0.23583961020E+03  0.36234975344E+03  0.00000000000E+00 0. -1.
<mgrwt>
<rscale>  0 0.10373767E+04</rscale>
<asrwt>0</asrwt>
<pdfrwt beam="1">  1        1 0.50311896E-01 0.10373767E+04</pdfrwt>
<pdfrwt beam="2">  1       -1 0.12656558E+00 0.10373767E+04</pdfrwt>
<totfact> 0.42513303E+01</totfact>
</mgrwt>
</event>
<event>
 6    1  0.1780144E-005  0.3582579E+04  0.7818608E-02  0.8094494E-01
         -2   -1    0    0    0  501 -0.00000000000E+00  0.00000000000E+00  0.15704604717E+04  0.15704604717E+04  0.00000000000E+00 0.  1.
          2   -1    0    0  501    0  0.00000000000E+00 -0.00000000000E+00 -0.20431702793E+04  0.20431702793E+04  0.00000000000E+00 0. -1.
         23    2    1    2    0    0 -0.13851282823E+04 -0.99291286443E+03 -0.78904024057E+03  0.18802752603E+04  0.91620077199E+02 0.  0.
         11    1    3    3    0    0 -0.11587269166E+04 -0.86995459153E+03 -0.67776854776E+03  0.15996372285E+04  0.00000000000E+00 0. -1.
        -11    1    3    3    0    0 -0.22640136564E+03 -0.12295827290E+03 -0.11127169281E+03  0.28063803174E+03  0.00000000000E+00 0.  1.
         22    1    1    2    0    0  0.13851282823E+04  0.99291286443E+03  0.31633043296E+03  0.17333554908E+04  0.00000000000E+00 0.  1.
<mgrwt>
<rscale>  0 0.35825790E+04</rscale>
<asrwt>0</asrwt>
<pdfrwt beam="1">  1        2 0.31433389E+00 0.35825790E+04</pdfrwt>
<pdfrwt beam="2">  1       -2 0.24160930E+00 0.35825790E+04</pdfrwt>
<totfact> 0.37354071E-01</totfact>
</mgrwt>
</event>
<event>
 6    1  0.1780144E-005  0.3394460E+04  0.7818608E-02  0.8139267E-01
         -1   -1    0    0    0  501 -0.00000000000E+00  0.00000000000E+00  0.23372282439E+04  0.23372282439E+04  0.00000000000E+00 0.  1.
          1   -1    0    0  501    0  0.00000000000E+00 -0.00000000000E+00 -0.12324811886E+04  0.12324811886E+04  0.00000000000E+00 0. -1.
         23    2    1    2    0    0 -0.78995670682E+02  0.98689945415E+03 -0.89532067674E+03  0.13380101289E+04  0.91984467976E+02 0.  0.
         13    1    3    3    0    0  0.15726208024E+02  0.19385265448E+03 -0.15044400543E+03  0.24588526601E+03  0.00000000000E+00 0.  1.
        -13    1    3    3    0    0 -0.94721878706E+02  0.79304679967E+03 -0.74487667131E+03  0.10921248629E+04  0.00000000000E+00 0. -1.
         22    1    1    2    0    0  0.78995670682E+02 -0.98689945415E+03  0.20000677320E+04  0.22316993035E+04  0.00000000000E+00 0.  1.
<mgrwt>
<rscale>  0 0.33944601E+04</rscale>
<asrwt>0</asrwt>
<pdfrwt beam="1">  1        1 0.18961249E+00 0.33944601E+04</pdfrwt>
<pdfrwt beam="2">  1       -1 0.35957358E+00 0.33944601E+04</pdfrwt>
<totfact> 0.11169461E-01</totfact>
</mgrwt>
</event>
<event>
 6    1  0.1780144E-005  0.2219508E+04  0.7818608E-02  0.8510352E-01
         -2   -1    0    0    0  501 -0.00000000000E+00  0.00000000000E+00  0.47121683021E+03  0.47121683021E+03  0.00000000000E+00 0.  1.
          2   -1    0    0  501    0  0.00000000000E+00 -0.00000000000E+00 -0.26135611292E+04  0.26135611292E+04  0.00000000000E+00 0. -1.
         23    2    1    2    0    0  0.98444987273E+03 -0.41084511776E+03 -0.14886107165E+04  0.18336573179E+04  0.91662596421E+02 0.  0.
         13    1    3    3    0    0  0.56928983250E+03 -0.23572096559E+03 -0.93648030337E+03  0.11210043022E+04  0.00000000000E+00 0. -1.
        -13    1    3    3    0    0  0.41516004023E+03 -0.17512415217E+03 -0.55213041311E+03  0.71265301568E+03  0.00000000000E+00 0.  1.
         22    1    1    2    0    0 -0.98444987273E+03  0.41084511776E+03 -0.65373358250E+03  0.12511206415E+04  0.00000000000E+00 0. -1.
<mgrwt>
<rscale>  0 0.22195080E+04</rscale>
<asrwt>0</asrwt>
<pdfrwt beam="1">  1        2 0.40208632E+00 0.22195080E+04</pdfrwt>
<pdfrwt beam="2">  1       -2 0.72494898E-01 0.22195080E+04</pdfrwt>
<totfact> 0.46946297E+00</totfact>
</mgrwt>
</event>
<event>
 6    1  0.1780144E-005  0.2973657E+04  0.7818608E-02  0.8251293E-01
          2   -1    0    0  501    0  0.00000000000E+00  0.00000000000E+00  0.10017541737E+04  0.10017541737E+04  0.00000000000E+00 0.  1.
         -2   -1    0    0    0  501 -0.00000000000E+00 -0.00000000000E+00 -0.22067883227E+04  0.22067883227E+04  0.00000000000E+00 0. -1.
         23    2    1    2    0    0 -0.11952556610E+04 -0.40648061285E+03  0.24139729962E+03  0.12886397595E+04  0.91962981075E+02 0.  0.
         13    1    3    3    0    0 -0.67256543056E+03 -0.23494202202E+03  0.90098695501E+02  0.71809455298E+03  0.00000000000E+00 0. -1.
        -13    1    3    3    0    0 -0.52269023040E+03 -0.17153859082E+03  0.15129860411E+03  0.57054520654E+03  0.00000000000E+00 0.  1.
         22    1    1    2    0    0  0.11952556610E+04  0.40648061285E+03 -0.14464314486E+04  0.19199027369E+04  0.00000000000E+00 0. -1.
<mgrwt>
<rscale>  0 0.29736573E+04</rscale>
<asrwt>0</asrwt>
<pdfrwt beam="1">  1        2 0.15411603E+00 0.29736573E+04</pdfrwt>
<pdfrwt beam="2">  1       -2 0.33950589E+00 0.29736573E+04</pdfrwt>
<totfact> 0.39022843E-01</totfact>
</mgrwt>
</event>
<event>
 6    1  0.1780144E-005  0.9120343E+03  0.7818608E-02  0.9410662E-01
         -1   -1    0    0    0  501 -0.00000000000E+00  0.00000000000E+00  0.35716284574E+03  0.35716284574E+03  0.00000000000E+00 0. -1.
          1   -1    0    0  501    0  0.00000000000E+00 -0.00000000000E+00 -0.58223205619E+03  0.58223205619E+03  0.00000000000E+00 0.  1.
         23    2    1    2    0    0 -0.33558011417E+02  0.14488920388E+03  0.32511502160E+03  0.36946358086E+03  0.93190872809E+02 0.  0.
         13    1    3    3    0    0 -0.62439815578E+02  0.12637556950E+03  0.26893601022E+03  0.30363809499E+03  0.00000000000E+00 0. -1.
        -13    1    3    3    0    0  0.28881804161E+02  0.18513634388E+02  0.56179011386E+02  0.65825485871E+02  0.00000000000E+00 0.  1.
         22    1    1    2    0    0  0.33558011417E+02 -0.14488920388E+03 -0.55018423206E+03  0.56993132107E+03  0.00000000000E+00 0.  1.
<mgrwt>
<rscale>  0 0.91203434E+03</rscale>
<asrwt>0</asrwt>
<pdfrwt beam="1">  1        1 0.89574162E-01 0.91203434E+03</pdfrwt>
<pdfrwt beam="2">  1       -1 0.54948131E-01 0.91203434E+03</pdfrwt>
<totfact> 0.12058484E+02</totfact>
</mgrwt>
</event>
<event>
 6    1  0.1780144E-005  0.1994643E+04  0.7818608E-02  0.8609129E-01
          2   -1    0    0  501    0  0.00000000000E+00  0.00000000000E+00  0.24488994281E+04  0.24488994281E+04  0.00000000000E+00 0. -1.
         -2   -1    0    0    0  501 -0.00000000000E+00 -0.00000000000E+00 -0.40616200764E+03  0.40616200764E+03  0.00000000000E+00 0.  1.
         23    2    1    2    0    0  0.72141882270E+03  0.61815992127E+03  0.14483674186E+04  0.17344176453E+04  0.88710670442E+02 0.  0.
         13    1    3    3    0    0  0.61104167109E+03  0.55824481096E+03  0.12823605600E+04  0.15262561379E+04  0.00000000000E+00 0. -1.
        -13    1    3    3    0    0  0.11037715162E+03  0.59915110311E+02  0.16600685860E+03  0.20816150736E+03  0.00000000000E+00 0.  1.
         22    1    1    2    0    0 -0.72141882270E+03 -0.61815992127E+03  0.59437000192E+03  0.11206437905E+04  0.00000000000E+00 0.  1.
<mgrwt>
<rscale>  0 0.19946427E+04</rscale>
<asrwt>0</asrwt>
<pdfrwt beam="1">  1        2 0.37675375E+00 0.19946427E+04</pdfrwt>
<pdfrwt beam="2">  1       -2 0.62486464E-01 0.19946427E+04</pdfrwt>
<totfact> 0.82318244E+00</totfact>
</mgrwt>
</event>
<event>
 6    1  0.2996504E-005  0.2973133E+04  0.7818608E-02  0.8251445E-01
          2   -1    0    0  501    0  0.00000000000E+00  0.00000000000E+00  0.16669098926E+04  0.16669098926E+04  0.00000000000E+00 0. -1.
         -2   -1    0    0    0  501 -0.00000000000E+00 -0.00000000000E+00 -0.13257348237E+04  0.13257348237E+04  0.00000000000E+00 0.  1.
         23    2    1    2    0    0  0.47204233443E+03  0.44596734251E+03 -0.11737052529E+04  0.13444416870E+04  0.90711591761E+02 0.  0.
         11    1    3    3    0    0  0.23623020052E+03  0.21517665961E+03 -0.48540004216E+03  0.58113587345E+03  0.00000000000E+00 0.  1.
        -11    1    3    3    0    0  0.23581213391E+03  0.23079068290E+03 -0.68830521078E+03  0.76330581355E+03  0.00000000000E+00 0. -1.
         22    1    1    2    0    0 -0.47204233443E+03 -0.44596734251E+03  0.15148803218E+04  0.16482030292E+04  0.00000000000E+00 0. -1.
<mgrwt>
<rscale>  0 0.29731334E+04</rscale>
<asrwt>0</asrwt>
<pdfrwt beam="1">  1        2 0.25644768E+00 0.29731334E+04</pdfrwt>
<pdfrwt beam="2">  1       -2 0.20395920E+00 0.29731334E+04</pdfrwt>
<totfact> 0.11000221E+00</totfact>
</mgrwt>
</event>
<event>
 6    1  0.1780144E-005  0.2298615E+04  0.7818608E-02  0.8478467E-01
          1   -1    0    0  501    0  0.00000000000E+00  0.00000000000E+00  0.20996164531E+04  0.20996164531E+04  0.00000000000E+00 0. -1.
         -1   -1    0    0    0  501 -0.00000000000E+00 -0.00000000000E+00 -0.62911858989E+03  0.62911858989E+03  0.00000000000E+00 0.  1.
         23    2    1    2    0    0  0.60586843272E+03  0.46507673420E+03 -0.28028719200E+03  0.81859859865E+03  0.90387107818E+02 0.  0.
         13    1    3    3    0    0  0.43364568779E+03  0.29700938170E+03 -0.22469436696E+03  0.57162112793E+03  0.00000000000E+00 0. -1.
        -13    1    3    3    0    0  0.17222274493E+03  0.16806735250E+03 -0.55592825035E+02  0.24697747072E+03  0.00000000000E+00 0.  1.
         22    1    1    2    0    0 -0.60586843272E+03 -0.46507673420E+03  0.17507850552E+04  0.19101364443E+04  0.00000000000E+00 0. -1.
<mgrwt>
<rscale>  0 0.22986150E+04</rscale>
<asrwt>0</asrwt>
<pdfrwt beam="1">  1        1 0.32301791E+00 0.22986150E+04</pdfrwt>
<pdfrwt beam="2">  1       -1 0.96787477E-01 0.22986150E+04</pdfrwt>
<totfact> 0.23661407E+00</totfact>
</mgrwt>
</event>
<event>
 6    1  0.1780144E-005  0.6162881E+03  0.7818608E-02  0.9872178E-01
         -4   -1    0    0    0  501 -0.00000000000E+00  0.00000000000E+00  0.33237060320E+03  0.33237060320E+03  0.00000000000E+00 0.  1.
          4   -1    0    0  501    0  0.00000000000E+00 -0.00000000000E+00 -0.28568338501E+03  0.28568338501E+03  0.00000000000E+00 0. -1.
         23    2    1    2    0    0  0.22791806496E+03  0.14938290174E+03  0.15280530967E+03  0.32561092536E+03  0.91712138653E+02 0.  0.
         13    1    3    3    0    0  0.19972013588E+03  0.96990167550E+02  0.14599163222E+03  0.26572313026E+03  0.00000000000E+00 0.  1.
        -13    1    3    3    0    0  0.28197929087E+02  0.52392734193E+02  0.68136774510E+01  0.59887795096E+02  0.00000000000E+00 0. -1.
         22    1    1    2    0    0 -0.22791806496E+03 -0.14938290174E+03 -0.10611809149E+03  0.29244306285E+03  0.00000000000E+00 0. -1.
<mgrwt>
<rscale>  0 0.61628811E+03</rscale>
<asrwt>0</asrwt>
<pdfrwt beam="1">  1        4 0.43951290E-01 0.61628811E+03</pdfrwt>
<pdfrwt beam="2">  1       -4 0.51133939E-01 0.61628811E+03</pdfrwt>
<totfact> 0.36591690E+01</totfact>
</mgrwt>
</event>
<event>
 6    1  0.1780144E-005  0.1368314E+04  0.7818608E-02  0.8977079E-01
         -2   -1    0    0    0  501 -0.00000000000E+00  0.00000000000E+00  0.59945196418E+03  0.59945196418E+03  0.00000000000E+00 0.  1.
          2   -1    0    0  501    0  0.00000000000E+00 -0.00000000000E+00 -0.78083101935E+03  0.78083101935E+03  0.00000000000E+00 0. -1.
         23    2    1    2    0    0  0.41244125483E+03  0.54259924649E+03 -0.85677040507E+02  0.69203840013E+03  0.83993220054E+02 0.  0.
         11    1    3    3    0    0  0.35299740858E+02  0.50489930271E+02 -0.32769355928E+02  0.69779190675E+02  0.00000000000E+00 0.  1.
        -11    1    3    3    0    0  0.37714151397E+03  0.49210931622E+03 -0.52907684580E+02  0.62225920946E+03  0.00000000000E+00 0. -1.
         22    1    1    2    0    0 -0.41244125483E+03 -0.54259924649E+03 -0.95702014655E+02  0.68824458340E+03  0.00000000000E+00 0. -1.
<mgrwt>
<rscale>  0 0.13683138E+04</rscale>
<asrwt>0</asrwt>
<pdfrwt beam="1">  1        2 0.12012785E+00 0.13683138E+04</pdfrwt>
<pdfrwt beam="2">  1       -2 0.92223379E-01 0.13683138E+04</pdfrwt>
<totfact> 0.34668663E+01</totfact>
</mgrwt>
</event>
<event>
 6    1  0.1780144E-005  0.2692808E+04  0.7818608E-02  0.8337342E-01
          2   -1    0    0  501    0  0.00000000000E+00  0.00000000000E+00  0.13875868596E+04  0.13875868596E+04  0.00000000000E+00 0. -1.
         -2   -1    0    0    0  501 -0.00000000000E+00 -0.00000000000E+00 -0.13064434708E+04  0.13064434708E+04  0.00000000000E+00 0.  1.
         23    2    1    2    0    0 -0.12750510303E+04 -0.52647998477E+02 -0.38360342840E+03  0.13359005334E+04  0.94613441777E+02 0.  0.
         11    1    3    3    0    0 -0.71317460980E+03 -0.18735236120E+02 -0.16655066731E+03  0.73260368407E+03  0.00000000000E+00 0.  1.
        -11    1    3    3    0    0 -0.56187642048E+03 -0.33912762357E+02 -0.21705276109E+03  0.60329684936E+03  0.00000000000E+00 0. -1.
         22    1    1    2    0    0  0.12750510303E+04  0.52647998477E+02  0.46474681720E+03  0.13581297971E+04  0.00000000000E+00 0.  1.
<mgrwt>
<rscale>  0 0.26928080E+04</rscale>
<asrwt>0</asrwt>
<pdfrwt beam="1">  1        2 0.21347490E+00 0.26928080E+04</pdfrwt>
<pdfrwt beam="2">  1       -2 0.20099130E+00 0.26928080E+04</pdfrwt>
<totfact> 0.16919527E+00</totfact>
</mgrwt>
</event>
<event>
 6    1  0.1780144E-005  0.9280264E+03  0.7818608E-02  0.9391210E-01
          2   -1    0    0  501    0  0.00000000000E+00  0.00000000000E+00  0.30221626719E+04  0.30221626719E+04  0.00000000000E+00 0. -1.
         -2   -1    0    0    0  501 -0.00000000000E+00 -0.00000000000E+00 -0.71243111368E+02  0.71243111368E+02  0.00000000000E+00 0.  1.
         23    2    1    2    0    0  0.23391896047E+03 -0.41395130502E+02  0.28009387591E+04  0.28124682854E+04  0.91040032034E+02 0.  0.
         13    1    3    3    0    0  0.33965622887E+02  0.25853444650E+02  0.55815542859E+03  0.55978526829E+03  0.00000000000E+00 0. -1.
        -13    1    3    3    0    0  0.19995333758E+03 -0.67248575152E+02  0.22427833305E+04  0.22526830171E+04  0.00000000000E+00 0.  1.
         22    1    1    2    0    0 -0.23391896047E+03  0.41395130502E+02  0.14998080145E+03  0.28093749785E+03  0.00000000000E+00 0.  1.
<mgrwt>
<rscale>  0 0.92802645E+03</rscale>
<asrwt>0</asrwt>
<pdfrwt beam="1">  1        2 0.46494800E+00 0.92802645E+03</pdfrwt>
<pdfrwt beam="2">  1       -2 0.10960481E-01 0.92802645E+03</pdfrwt>
<totfact> 0.10308188E+02</totfact>
</mgrwt>
</event>
<event>
 6    1  0.1780144E-005  0.2234736E+04  0.7818608E-02  0.8504108E-01
          2   -1    0    0  501    0  0.00000000000E+00  0.00000000000E+00  0.20098311021E+04  0.20098311021E+04  0.00000000000E+00 0. -1.
         -2   -1    0    0    0  501 -0.00000000000E+00 -0.00000000000E+00 -0.62120222339E+03  0.62120222339E+03  0.00000000000E+00 0.  1.
         23    2    1    2    0    0 -0.83372742418E+03 -0.21419859461E+03 -0.13976453161E+03  0.87690423318E+03  0.91893710930E+02 0.  0.
         11    1    3    3    0    0 -0.41013786479E+03 -0.14861733754E+03 -0.89621601027E+02  0.44534504884E+03  0.00000000000E+00 0.  1.
        -11    1    3    3    0    0 -0.42358955939E+03 -0.65581257069E+02 -0.50142930583E+02  0.43155918434E+03  0.00000000000E+00 0. -1.
         22    1    1    2    0    0  0.83372742418E+03  0.21419859461E+03  0.15283934103E+04  0.17541290923E+04  0.00000000000E+00 0. -1.
<mgrwt>
<rscale>  0 0.22347363E+04</rscale>
<asrwt>0</asrwt>
<pdfrwt beam="1">  1        2 0.30920478E+00 0.22347363E+04</pdfrwt>
<pdfrwt beam="2">  1       -2 0.95569573E-01 0.22347363E+04</pdfrwt>
<totfact> 0.55261077E+00</totfact>
</mgrwt>
</event>
<event>
 6    1  0.1780144E-005  0.3979093E+04  0.7818608E-02  0.8008777E-01
          2   -1    0    0  501    0  0.00000000000E+00  0.00000000000E+00  0.27809674371E+04  0.27809674371E+04  0.00000000000E+00 0. -1.
         -2   -1    0    0    0  501 -0.00000000000E+00 -0.00000000000E+00 -0.14233520180E+04  0.14233520180E+04  0.00000000000E+00 0.  1.
         23    2    1    2    0    0  0.18068362147E+04 -0.12851597609E+03  0.15459035739E+04  0.23831588657E+04  0.91950293266E+02 0.  0.
         11    1    3    3    0    0  0.81789240738E+03 -0.42463132113E+02  0.75551194245E+03  0.11142483578E+04  0.00000000000E+00 0.  1.
        -11    1    3    3    0    0  0.98894380735E+03 -0.86052843980E+02  0.79039163144E+03  0.12689105079E+04  0.00000000000E+00 0. -1.
         22    1    1    2    0    0 -0.18068362147E+04  0.12851597609E+03 -0.18828815475E+03  0.18211605893E+04  0.00000000000E+00 0.  1.
<mgrwt>
<rscale>  0 0.39790932E+04</rscale>
<asrwt>0</asrwt>
<pdfrwt beam="1">  1        2 0.42784114E+00 0.39790932E+04</pdfrwt>
<pdfrwt beam="2">  1       -2 0.21897723E+00 0.39790932E+04</pdfrwt>
<totfact> 0.18819388E-01</totfact>
</mgrwt>
</event>
<event>
 6    1  0.1780144E-005  0.1346151E+04  0.7818608E-02  0.8993747E-01
          1   -1    0    0  501    0  0.00000000000E+00  0.00000000000E+00  0.64552936165E+03  0.64552936165E+03  0.00000000000E+00 0. -1.
         -1   -1    0    0    0  501 -0.00000000000E+00 -0.00000000000E+00 -0.70179696693E+03  0.70179696693E+03  0.00000000000E+00 0.  1.
         23    2    1    2    0    0  0.30986900084E+03 -0.32889139060E+03  0.46630112159E+03  0.65648161463E+03  0.96659349602E+02 0.  0.
         13    1    3    3    0    0  0.29214894514E+03 -0.32746842747E+03  0.42234332886E+03  0.60906523835E+03  0.00000000000E+00 0. -1.
        -13    1    3    3    0    0  0.17720055699E+02 -0.14229631283E+01  0.43957792729E+02  0.47416376281E+02  0.00000000000E+00 0.  1.
         22    1    1    2    0    0 -0.30986900084E+03  0.32889139060E+03 -0.52256872687E+03  0.69084471395E+03  0.00000000000E+00 0.  1.
<mgrwt>
<rscale>  0 0.13461509E+04</rscale>
<asrwt>0</asrwt>
<pdfrwt beam="1">  1        1 0.99312209E-01 0.13461509E+04</pdfrwt>
<pdfrwt beam="2">  1       -1 0.10796876E+00 0.13461509E+04</pdfrwt>
<totfact> 0.24038014E+01</totfact>
</mgrwt>
</event>
<event>
 6    1  0.1780144E-005  0.1852552E+04  0.7818608E-02  0.8678842E-01
         -1   -1    0    0    0  501 -0.00000000000E+00  0.00000000000E+00  0.47018018973E+03  0.47018018973E+03  0.00000000000E+00 0.  1.
          1   -1    0    0  501    0  0.00000000000E+00 -0.00000000000E+00 -0.18248049890E+04  0.18248049890E+04  0.00000000000E+00 0. -1.
         23    2    1    2    0    0 -0.21030819031E+03  0.25424620543E+03 -0.17484378761E+04  0.17812153787E+04  0.82598734719E+02 0.  0.
         11    1    3    3    0    0 -0.12499039080E+03  0.10966407460E+03 -0.10364399548E+04  0.10496935681E+04  0.00000000000E+00 0. -1.
        -11    1    3    3    0    0 -0.85317799515E+02  0.14458213084E+03 -0.71199792134E+03  0.73152181065E+03  0.00000000000E+00 0.  1.
         22    1    1    2    0    0  0.21030819031E+03 -0.25424620543E+03  0.39381307684E+03  0.51376979998E+03  0.00000000000E+00 0.  1.
<mgrwt>
<rscale>  0 0.18525519E+04</rscale>
<asrwt>0</asrwt>
<pdfrwt beam="1">  1        1 0.28073923E+00 0.18525519E+04</pdfrwt>
<pdfrwt beam="2">  1       -1 0.72335413E-01 0.18525519E+04</pdfrwt>
<totfact> 0.70970696E+00</totfact>
</mgrwt>
</event>
<event>
 6    1  0.1780144E-005  0.1408755E+04  0.7818608E-02  0.8947506E-01
         -2   -1    0    0    0  501 -0.00000000000E+00  0.00000000000E+00  0.15141226105E+03  0.15141226105E+03  0.00000000000E+00 0.  1.
          2   -1    0    0  501    0  0.00000000000E+00 -0.00000000000E+00 -0.32767975090E+04  0.32767975090E+04  0.00000000000E+00 0. -1.
         23    2    1    2    0    0 -0.21731371776E+02 -0.42407773751E+03 -0.29278251451E+04  0.29598678285E+04  0.91341677777E+02 0.  0.
         11    1    3    3    0    0 -0.35796009589E+02 -0.32166743562E+03 -0.24270473159E+04  0.24485322067E+04  0.00000000000E+00 0. -1.
        -11    1    3    3    0    0  0.14064637813E+02 -0.10241030189E+03 -0.50077782914E+03  0.51133562181E+03  0.00000000000E+00 0.  1.
         22    1    1    2    0    0  0.21731371776E+02  0.42407773751E+03 -0.19756010287E+03  0.46834194155E+03  0.00000000000E+00 0.  1.
<mgrwt>
<rscale>  0 0.14087545E+04</rscale>
<asrwt>0</asrwt>
<pdfrwt beam="1">  1        2 0.50412269E+00 0.14087545E+04</pdfrwt>
<pdfrwt beam="2">  1       -2 0.23294194E-01 0.14087545E+04</pdfrwt>
<totfact> 0.18539682E+01</totfact>
</mgrwt>
</event>
<event>
 6    1  0.1780144E-005  0.9928171E+03  0.7818608E-02  0.9316458E-01
         -1   -1    0    0    0  501 -0.00000000000E+00  0.00000000000E+00  0.29264632023E+03  0.29264632023E+03  0.00000000000E+00 0.  1.
          1   -1    0    0  501    0  0.00000000000E+00 -0.00000000000E+00 -0.84204518964E+03  0.84204518964E+03  0.00000000000E+00 0. -1.
         23    2    1    2    0    0 -0.33743983153E+03 -0.35252451996E+03 -0.34921496355E+03  0.60723272168E+03  0.92958649059E+02 0.  0.
         13    1    3    3    0    0 -0.65478594167E+02 -0.55856052349E+02 -0.10770761479E+03  0.13787050142E+03  0.00000000000E+00 0. -1.
        -13    1    3    3    0    0 -0.27196123736E+03 -0.29666846761E+03 -0.24150734877E+03  0.46936222026E+03  0.00000000000E+00 0.  1.
         22    1    1    2    0    0  0.33743983153E+03  0.35252451996E+03 -0.20018390586E+03  0.52745878819E+03  0.00000000000E+00 0.  1.
<mgrwt>
<rscale>  0 0.99281706E+03</rscale>
<asrwt>0</asrwt>
<pdfrwt beam="1">  1        1 0.12954541E+00 0.99281706E+03</pdfrwt>
<pdfrwt beam="2">  1       -1 0.45022511E-01 0.99281706E+03</pdfrwt>
<totfact> 0.99761146E+01</totfact>
</mgrwt>
</event>
<event>
 6    1  0.1780144E-005  0.1592178E+04  0.7818608E-02  0.8825368E-01
         -2   -1    0    0    0  501 -0.00000000000E+00  0.00000000000E+00  0.20010389729E+03  0.20010389729E+03  0.00000000000E+00 0.  1.
          2   -1    0    0  501    0  0.00000000000E+00 -0.00000000000E+00 -0.31671447857E+04  0.31671447857E+04  0.00000000000E+00 0. -1.
         23    2    1    2    0    0 -0.39067850636E+03 -0.64092518996E+03 -0.94343815005E+03  0.12089199691E+04  0.89426809646E+02 0.  0.
         11    1    3    3    0    0 -0.31420251652E+02 -0.11344563894E+03 -0.14709671492E+03  0.18840007630E+03  0.00000000000E+00 0.  1.
        -11    1    3    3    0    0 -0.35925825470E+03 -0.52747955101E+03 -0.79634143513E+03  0.10205198928E+04  0.00000000000E+00 0. -1.
         22    1    1    2    0    0  0.39067850636E+03  0.64092518996E+03 -0.20236027384E+04  0.21583287139E+04  0.00000000000E+00 0. -1.
<mgrwt>
<rscale>  0 0.15921784E+04</rscale>
<asrwt>0</asrwt>
<pdfrwt beam="1">  1        2 0.48725304E+00 0.15921784E+04</pdfrwt>
<pdfrwt beam="2">  1       -2 0.30785215E-01 0.15921784E+04</pdfrwt>
<totfact> 0.12870493E+01</totfact>
</mgrwt>
</event>
<event>
 6    1  0.1780144E-005  0.2681745E+04  0.7818608E-02  0.8340953E-01
         -2   -1    0    0    0  501 -0.00000000000E+00  0.00000000000E+00  0.14780196700E+04  0.14780196700E+04  0.00000000000E+00 0.  1.
          2   -1    0    0  501    0  0.00000000000E+00 -0.00000000000E+00 -0.12164511899E+04  0.12164511899E+04  0.00000000000E+00 0. -1.
         23    2    1    2    0    0  0.42716171319E+03  0.75697341406E+03  0.11545615925E+04  0.14483117298E+04  0.95490926272E+02 0.  0.
         11    1    3    3    0    0  0.28046550146E+03  0.57797024203E+03  0.82575742301E+03  0.10462245552E+04  0.00000000000E+00 0.  1.
        -11    1    3    3    0    0  0.14669621173E+03  0.17900317204E+03  0.32880416946E+03  0.40208717461E+03  0.00000000000E+00 0. -1.
         22    1    1    2    0    0 -0.42716171319E+03 -0.75697341406E+03 -0.89299311237E+03  0.12461591301E+04  0.00000000000E+00 0. -1.
<mgrwt>
<rscale>  0 0.26817448E+04</rscale>
<asrwt>0</asrwt>
<pdfrwt beam="1">  1        2 0.18714634E+00 0.26817448E+04</pdfrwt>
<pdfrwt beam="2">  1       -2 0.22738764E+00 0.26817448E+04</pdfrwt>
<totfact> 0.14444291E+00</totfact>
</mgrwt>
</event>
<event>
 6    1  0.1780144E-005  0.8406505E+03  0.7818608E-02  0.9502972E-01
         -2   -1    0    0    0  501 -0.00000000000E+00  0.00000000000E+00  0.19081275797E+03  0.19081275797E+03  0.00000000000E+00 0.  1.
          2   -1    0    0  501    0  0.00000000000E+00 -0.00000000000E+00 -0.92589893078E+03  0.92589893078E+03  0.00000000000E+00 0. -1.
         23    2    1    2    0    0  0.40237368830E+03 -0.69020783923E+02 -0.26982031986E+03  0.49772803180E+03  0.90894086651E+02 0.  0.
         13    1    3    3    0    0  0.29829201375E+03 -0.11891687346E+02 -0.20820443043E+03  0.36396239166E+03  0.00000000000E+00 0. -1.
        -13    1    3    3    0    0  0.10408167455E+03 -0.57129096576E+02 -0.61615889429E+02  0.13376564014E+03  0.00000000000E+00 0.  1.
         22    1    1    2    0    0 -0.40237368830E+03  0.69020783923E+02 -0.46526585296E+03  0.61898365695E+03  0.00000000000E+00 0.  1.
<mgrwt>
<rscale>  0 0.84065053E+03</rscale>
<asrwt>0</asrwt>
<pdfrwt beam="1">  1        2 0.14244599E+00 0.84065053E+03</pdfrwt>
<pdfrwt beam="2">  1       -2 0.29355809E-01 0.84065053E+03</pdfrwt>
<totfact> 0.30170946E+02</totfact>
</mgrwt>
</event>
<event>
 6    1  0.1780144E-005  0.9685644E+03  0.7818608E-02  0.9343711E-01
         -2   -1    0    0    0  501 -0.00000000000E+00  0.00000000000E+00  0.29065365981E+03  0.29065365981E+03  0.00000000000E+00 0.  1.
          2   -1    0    0  501    0  0.00000000000E+00 -0.00000000000E+00 -0.80690275355E+03  0.80690275355E+03  0.00000000000E+00 0. -1.
         23    2    1    2    0    0 -0.26886950305E+03  0.38277491991E+03 -0.13905763162E+03  0.49665638167E+03  0.92320569575E+02 0.  0.
         11    1    3    3    0    0 -0.28179246593E+02  0.46510745033E+01 -0.86873721871E+01  0.29852518622E+02  0.00000000000E+00 0.  1.
        -11    1    3    3    0    0 -0.24069025645E+03  0.37812384541E+03 -0.13037025943E+03  0.46680386305E+03  0.00000000000E+00 0. -1.
         22    1    1    2    0    0  0.26886950305E+03 -0.38277491991E+03 -0.37719146213E+03  0.60090003169E+03  0.00000000000E+00 0. -1.
<mgrwt>
<rscale>  0 0.96856438E+03</rscale>
<asrwt>0</asrwt>
<pdfrwt beam="1">  1        2 0.12413888E+00 0.96856438E+03</pdfrwt>
<pdfrwt beam="2">  1       -2 0.44715949E-01 0.96856438E+03</pdfrwt>
<totfact> 0.16144537E+02</totfact>
</mgrwt>
</event>
<event>
 6    1  0.1780144E-005  0.3859574E+04  0.7818608E-02  0.8033490E-01
         -1   -1    0    0    0  501 -0.00000000000E+00  0.00000000000E+00  0.15433078123E+04  0.15433078123E+04  0.00000000000E+00 0.  1.
          1   -1    0    0  501    0  0.00000000000E+00 -0.00000000000E+00 -0.24130489625E+04  0.24130489625E+04  0.00000000000E+00 0. -1.
         23    2    1    2    0    0 -0.12313480338E+04 -0.52934031564E+02  0.10854957927E+04  0.16450862380E+04  0.94803071851E+02 0.  0.
         11    1    3    3    0    0 -0.30640671549E+03  0.19459385322E+02  0.23747719548E+03  0.38814837543E+03  0.00000000000E+00 0. -1.
        -11    1    3    3    0    0 -0.92494131830E+03 -0.72393416886E+02  0.84801859718E+03  0.12569378625E+04  0.00000000000E+00 0.  1.
         22    1    1    2    0    0  0.12313480338E+04  0.52934031564E+02 -0.19552369428E+04  0.23112705369E+04  0.00000000000E+00 0.  1.
<mgrwt>
<rscale>  0 0.38595737E+04</rscale>
<asrwt>0</asrwt>
<pdfrwt beam="1">  1        1 0.37123830E+00 0.38595737E+04</pdfrwt>
<pdfrwt beam="2">  1       -1 0.23743197E+00 0.38595737E+04</pdfrwt>
<totfact> 0.10385234E-01</totfact>
</mgrwt>
</event>
<event>
 6    1  0.1780144E-005  0.3745517E+04  0.7818608E-02  0.8057949E-01
         -1   -1    0    0    0  501 -0.00000000000E+00  0.00000000000E+00  0.96940813339E+03  0.96940813339E+03  0.00000000000E+00 0.  1.
          1   -1    0    0  501    0  0.00000000000E+00 -0.00000000000E+00 -0.36179023706E+04  0.36179023706E+04  0.00000000000E+00 0. -1.
         23    2    1    2    0    0  0.16811779439E+04 -0.79909838638E+03 -0.15640709870E+04  0.24330377042E+04  0.91852639923E+02 0.  0.
         13    1    3    3    0    0  0.13380317051E+04 -0.63617539143E+03 -0.12921270748E+04  0.19658688537E+04  0.00000000000E+00 0. -1.
        -13    1    3    3    0    0  0.34314623884E+03 -0.16292299495E+03 -0.27194391224E+03  0.46716885054E+03  0.00000000000E+00 0.  1.
         22    1    1    2    0    0 -0.16811779439E+04  0.79909838638E+03 -0.10844232501E+04  0.21542727997E+04  0.00000000000E+00 0.  1.
<mgrwt>
<rscale>  0 0.37455168E+04</rscale>
<asrwt>0</asrwt>
<pdfrwt beam="1">  1        1 0.55660037E+00 0.37455168E+04</pdfrwt>
<pdfrwt beam="2">  1       -1 0.14913971E+00 0.37455168E+04</pdfrwt>
<totfact> 0.56886070E-02</totfact>
</mgrwt>
</event>
<event>
 6    1  0.1780144E-005  0.7405909E+03  0.7818608E-02  0.9650228E-01
          2   -1    0    0  501    0  0.00000000000E+00  0.00000000000E+00  0.71136980032E+03  0.71136980032E+03  0.00000000000E+00 0. -1.
         -2   -1    0    0    0  501 -0.00000000000E+00 -0.00000000000E+00 -0.19275309569E+03  0.19275309569E+03  0.00000000000E+00 0.  1.
         23    2    1    2    0    0 -0.11268062980E+03 -0.30416184377E+03  0.46800628934E+03  0.57583526957E+03  0.85703087906E+02 0.  0.
         13    1    3    3    0    0 -0.98849923392E+02 -0.17417912705E+03  0.32786389195E+03  0.38419319008E+03  0.00000000000E+00 0. -1.
        -13    1    3    3    0    0 -0.13830706410E+02 -0.12998271672E+03  0.14014239739E+03  0.19164207949E+03  0.00000000000E+00 0.  1.
         22    1    1    2    0    0  0.11268062980E+03  0.30416184377E+03  0.50610415287E+02  0.32828762644E+03  0.00000000000E+00 0.  1.
<mgrwt>
<rscale>  0 0.74059093E+03</rscale>
<asrwt>0</asrwt>
<pdfrwt beam="1">  1        2 0.10944151E+00 0.74059093E+03</pdfrwt>
<pdfrwt beam="2">  1       -2 0.29654323E-01 0.74059093E+03</pdfrwt>
<totfact> 0.42293284E+02</totfact>
</mgrwt>
</event>
<event>
 6    1  0.1780144E-005  0.1338542E+04  0.7818608E-02  0.8999548E-01
          3   -1    0    0  501    0  0.00000000000E+00  0.00000000000E+00  0.51061574469E+03  0.51061574469E+03  0.00000000000E+00 0. -1.
         -3   -1    0    0    0  501 -0.00000000000E+00 -0.00000000000E+00 -0.87722207140E+03  0.87722207140E+03  0.00000000000E+00 0.  1.
         23    2    1    2    0    0 -0.43924325552E+03 -0.30352207191E+03  0.22882683901E+03  0.58808726718E+03  0.91785760908E+02 0.  0.
         13    1    3    3    0    0 -0.34543563746E+03 -0.24926087212E+03  0.21979866761E+03  0.47934144019E+03  0.00000000000E+00 0. -1.
        -13    1    3    3    0    0 -0.93807618058E+02 -0.54261199795E+02  0.90281714028E+01  0.10874582699E+03  0.00000000000E+00 0.  1.
         22    1    1    2    0    0  0.43924325552E+03  0.30352207191E+03 -0.59543316572E+03  0.79975054892E+03  0.00000000000E+00 0. -1.
<mgrwt>
<rscale>  0 0.13385416E+04</rscale>
<asrwt>0</asrwt>
<pdfrwt beam="1">  1        3 0.78556268E-01 0.13385416E+04</pdfrwt>
<pdfrwt beam="2">  1       -3 0.13495724E+00 0.13385416E+04</pdfrwt>
<totfact> 0.16403287E+00</totfact>
</mgrwt>
</event>
<event>
 6    1  0.1780144E-005  0.2222112E+04  0.7818608E-02  0.8509281E-01
         -2   -1    0    0    0  501 -0.00000000000E+00  0.00000000000E+00  0.51704989464E+03  0.51704989464E+03  0.00000000000E+00 0. -1.
          2   -1    0    0  501    0  0.00000000000E+00 -0.00000000000E+00 -0.23874786866E+04  0.23874786866E+04  0.00000000000E+00 0.  1.
         23    2    1    2    0    0  0.10636726076E+04 -0.29238058073E+02 -0.13458447771E+04  0.17181716919E+04  0.92528474442E+02 0.  0.
         13    1    3    3    0    0  0.55028246329E+03  0.90973983806E+01 -0.75861762366E+03  0.93722689408E+03  0.00000000000E+00 0. -1.
        -13    1    3    3    0    0  0.51339014431E+03 -0.38335456454E+02 -0.58722715346E+03  0.78094479783E+03  0.00000000000E+00 0.  1.
         22    1    1    2    0    0 -0.10636726076E+04  0.29238058073E+02 -0.52458401481E+03  0.11863568893E+04  0.00000000000E+00 0. -1.
<mgrwt>
<rscale>  0 0.22221122E+04</rscale>
<asrwt>0</asrwt>
<pdfrwt beam="1">  1        2 0.36730441E+00 0.22221122E+04</pdfrwt>
<pdfrwt beam="2">  1       -2 0.79546139E-01 0.22221122E+04</pdfrwt>
<totfact> 0.51627836E+00</totfact>
</mgrwt>
</event>
<event>
 6    1  0.1780144E-005  0.9176929E+03  0.7818608E-02  0.9403731E-01
          2   -1    0    0  501    0  0.00000000000E+00  0.00000000000E+00  0.59526415230E+03  0.59526415230E+03  0.00000000000E+00 0. -1.
         -2   -1    0    0    0  501 -0.00000000000E+00 -0.00000000000E+00 -0.35369185021E+03  0.35369185021E+03  0.00000000000E+00 0.  1.
         23    2    1    2    0    0  0.43558243962E+03 -0.29732955105E+02 -0.75368017538E+01  0.44629164536E+03  0.92213442685E+02 0.  0.
         11    1    3    3    0    0  0.70534033138E+02 -0.36599148349E+02 -0.16097994948E+02  0.81078313573E+02  0.00000000000E+00 0. -1.
        -11    1    3    3    0    0  0.36504840648E+03  0.68661932447E+01  0.85611931942E+01  0.36521333179E+03  0.00000000000E+00 0.  1.
         22    1    1    2    0    0 -0.43558243962E+03  0.29732955105E+02  0.24910910385E+03  0.50266435714E+03  0.00000000000E+00 0. -1.
<mgrwt>
<rscale>  0 0.91769293E+03</rscale>
<asrwt>0</asrwt>
<pdfrwt beam="1">  1        2 0.91579100E-01 0.91769293E+03</pdfrwt>
<pdfrwt beam="2">  1       -2 0.54414131E-01 0.91769293E+03</pdfrwt>
<totfact> 0.15963581E+02</totfact>
</mgrwt>
</event>
<event>
 6    1  0.1780144E-005  0.4036346E+03  0.7818608E-02  0.1042528E+00
          2   -1    0    0  501    0  0.00000000000E+00  0.00000000000E+00  0.14277943993E+03  0.14277943993E+03  0.00000000000E+00 0. -1.
         -2   -1    0    0    0  501 -0.00000000000E+00 -0.00000000000E+00 -0.28526676509E+03  0.28526676509E+03  0.00000000000E+00 0.  1.
         23    2    1    2    0    0  0.53578121515E+02 -0.17836109921E+03 -0.12116609946E+03  0.24059516746E+03  0.92312047582E+02 0.  0.
         13    1    3    3    0    0 -0.52775033148E+01 -0.11182991754E+03 -0.98020883636E+02  0.14880146547E+03  0.00000000000E+00 0. -1.
        -13    1    3    3    0    0  0.58855624829E+02 -0.66531181671E+02 -0.23145215828E+02  0.91793701986E+02  0.00000000000E+00 0.  1.
         22    1    1    2    0    0 -0.53578121515E+02  0.17836109921E+03 -0.21321225687E+02  0.18745103756E+03  0.00000000000E+00 0. -1.
<mgrwt>
<rscale>  0 0.40363463E+03</rscale>
<asrwt>0</asrwt>
<pdfrwt beam="1">  1        2 0.21966068E-01 0.40363463E+03</pdfrwt>
<pdfrwt beam="2">  1       -2 0.43887194E-01 0.40363463E+03</pdfrwt>
<totfact> 0.12491247E+03</totfact>
</mgrwt>
</event>
<event>
 6    1  0.1780144E-005  0.1624989E+04  0.7818608E-02  0.8805342E-01
          1   -1    0    0  501    0  0.00000000000E+00  0.00000000000E+00  0.45034687183E+03  0.45034687183E+03  0.00000000000E+00 0. -1.
         -1   -1    0    0    0  501 -0.00000000000E+00 -0.00000000000E+00 -0.14658635758E+04  0.14658635758E+04  0.00000000000E+00 0.  1.
         23    2    1    2    0    0  0.67111963977E+03  0.38348850341E+03 -0.22510895804E+03  0.81067464633E+03  0.95154275181E+02 0.  0.
         11    1    3    3    0    0  0.48201996263E+03  0.25094971198E+03 -0.11788124543E+03  0.55607102994E+03  0.00000000000E+00 0. -1.
        -11    1    3    3    0    0  0.18909967714E+03  0.13253879143E+03 -0.10722771261E+03  0.25460361640E+03  0.00000000000E+00 0.  1.
         22    1    1    2    0    0 -0.67111963977E+03 -0.38348850341E+03 -0.79040774594E+03  0.11055358013E+04  0.00000000000E+00 0. -1.
<mgrwt>
<rscale>  0 0.16249887E+04</rscale>
<asrwt>0</asrwt>
<pdfrwt beam="1">  1        1 0.69284132E-01 0.16249887E+04</pdfrwt>
<pdfrwt beam="2">  1       -1 0.22551748E+00 0.16249887E+04</pdfrwt>
<totfact> 0.49513626E+00</totfact>
</mgrwt>
</event>
<event>
 6    1  0.1780144E-005  0.3939249E+04  0.7818608E-02  0.8016915E-01
         -1   -1    0    0    0  501 -0.00000000000E+00  0.00000000000E+00  0.17268109422E+04  0.17268109422E+04  0.00000000000E+00 0.  1.
          1   -1    0    0  501    0  0.00000000000E+00 -0.00000000000E+00 -0.22465812302E+04  0.22465812302E+04  0.00000000000E+00 0. -1.
         23    2    1    2    0    0 -0.52234047411E+03 -0.18791954454E+04  0.90843124973E+01  0.19525254570E+04  0.89766600823E+02 0.  0.
         13    1    3    3    0    0 -0.31164198593E+02 -0.73697242789E+02 -0.14189485854E+02  0.81263967276E+02  0.00000000000E+00 0.  1.
        -13    1    3    3    0    0 -0.49117627551E+03 -0.18054982026E+04  0.23273798351E+02  0.18712614897E+04  0.00000000000E+00 0. -1.
         22    1    1    2    0    0  0.52234047411E+03  0.18791954454E+04 -0.52885460048E+03  0.20208667154E+04  0.00000000000E+00 0. -1.
<mgrwt>
<rscale>  0 0.39392492E+04</rscale>
<asrwt>0</asrwt>
<pdfrwt beam="1">  1        1 0.34562788E+00 0.39392492E+04</pdfrwt>
<pdfrwt beam="2">  1       -1 0.26566322E+00 0.39392492E+04</pdfrwt>
<totfact> 0.87797532E-02</totfact>
</mgrwt>
</event>
<event>
 6    1  0.1780144E-005  0.1185369E+04  0.7818608E-02  0.9125760E-01
         -1   -1    0    0    0  501 -0.00000000000E+00  0.00000000000E+00  0.15847633705E+03  0.15847633705E+03  0.00000000000E+00 0.  1.
          1   -1    0    0  501    0  0.00000000000E+00 -0.00000000000E+00 -0.22165765827E+04  0.22165765827E+04  0.00000000000E+00 0. -1.
         23    2    1    2    0    0 -0.24536537003E+03 -0.51670604804E+03 -0.75342986364E+03  0.95049891565E+03  0.92748716161E+02 0.  0.
         13    1    3    3    0    0 -0.19891706454E+03 -0.36182088886E+03 -0.59410697833E+03  0.72349530467E+03  0.00000000000E+00 0. -1.
        -13    1    3    3    0    0 -0.46448305494E+02 -0.15488515918E+03 -0.15932288531E+03  0.22700361098E+03  0.00000000000E+00 0.  1.
         22    1    1    2    0    0  0.24536537003E+03  0.51670604804E+03 -0.13046703820E+04  0.14245540041E+04  0.00000000000E+00 0.  1.
<mgrwt>
<rscale>  0 0.11853690E+04</rscale>
<asrwt>0</asrwt>
<pdfrwt beam="1">  1        1 0.34101178E+00 0.11853690E+04</pdfrwt>
<pdfrwt beam="2">  1       -1 0.24380975E-01 0.11853690E+04</pdfrwt>
<totfact> 0.30865277E+01</totfact>
</mgrwt>
</event>
<event>
 6    1  0.1780144E-005  0.7306719E+03  0.7818608E-02  0.9666171E-01
         -1   -1    0    0    0  501 -0.00000000000E+00  0.00000000000E+00  0.59302669367E+03  0.59302669367E+03  0.00000000000E+00 0.  1.
          1   -1    0    0  501    0  0.00000000000E+00 -0.00000000000E+00 -0.22506633507E+03  0.22506633507E+03  0.00000000000E+00 0. -1.
         23    2    1    2    0    0 -0.42911462341E+02  0.30556180733E+03  0.39368833068E+03  0.50846205443E+03  0.91289360760E+02 0.  0.
         11    1    3    3    0    0 -0.41838604698E+02  0.12735231350E+03  0.10982608612E+03  0.17329411355E+03  0.00000000000E+00 0. -1.
        -11    1    3    3    0    0 -0.10728576427E+01  0.17820949383E+03  0.28386224455E+03  0.33516794089E+03  0.00000000000E+00 0.  1.
         22    1    1    2    0    0  0.42911462341E+02 -0.30556180733E+03 -0.25727972077E+02  0.30963097430E+03  0.00000000000E+00 0. -1.
<mgrwt>
<rscale>  0 0.73067187E+03</rscale>
<asrwt>0</asrwt>
<pdfrwt beam="1">  1        1 0.34625590E-01 0.73067187E+03</pdfrwt>
<pdfrwt beam="2">  1       -1 0.91234875E-01 0.73067187E+03</pdfrwt>
<totfact> 0.15166106E+02</totfact>
</mgrwt>
</event>
<event>
 6    1  0.1780144E-005  0.2908821E+04  0.7818608E-02  0.8270258E-01
          2   -1    0    0  501    0  0.00000000000E+00  0.00000000000E+00  0.51154109261E+04  0.51154109261E+04  0.00000000000E+00 0.  1.
         -2   -1    0    0    0  501 -0.00000000000E+00 -0.00000000000E+00 -0.41351714789E+03  0.41351714789E+03  0.00000000000E+00 0. -1.
         23    2    1    2    0    0 -0.10920005530E+04 -0.81838725790E+02  0.53837073308E+03  0.12238047387E+04  0.93232008765E+02 0.  0.
         11    1    3    3    0    0 -0.24120503587E+03 -0.43016273921E+02  0.87680496151E+02  0.26022709036E+03  0.00000000000E+00 0. -1.
        -11    1    3    3    0    0 -0.85079551712E+03 -0.38822451869E+02  0.45069023693E+03  0.96357764834E+03  0.00000000000E+00 0.  1.
         22    1    1    2    0    0  0.10920005530E+04  0.81838725790E+02  0.41635230451E+04  0.43051233353E+04  0.00000000000E+00 0.  1.
<mgrwt>
<rscale>  0 0.29088212E+04</rscale>
<asrwt>0</asrwt>
<pdfrwt beam="1">  1        2 0.78698625E+00 0.29088212E+04</pdfrwt>
<pdfrwt beam="2">  1       -2 0.63618026E-01 0.29088212E+04</pdfrwt>
<totfact> 0.47832193E-02</totfact>
</mgrwt>
</event>
<event>
 6    1  0.1780144E-005  0.2791181E+04  0.7818608E-02  0.8306012E-01
         -2   -1    0    0    0  501 -0.00000000000E+00  0.00000000000E+00  0.63596189546E+03  0.63596189546E+03  0.00000000000E+00 0. -1.
          2   -1    0    0  501    0  0.00000000000E+00 -0.00000000000E+00 -0.30625620989E+04  0.30625620989E+04  0.00000000000E+00 0.  1.
         23    2    1    2    0    0  0.81672427397E+03  0.24331361394E+03 -0.26764760099E+04  0.28104485622E+04  0.94112883824E+02 0.  0.
         11    1    3    3    0    0  0.41039895632E+03  0.14985807587E+03 -0.12417443549E+04  0.13163638514E+04  0.00000000000E+00 0. -1.
        -11    1    3    3    0    0  0.40632531764E+03  0.93455538076E+02 -0.14347316550E+04  0.14940847108E+04  0.00000000000E+00 0.  1.
         22    1    1    2    0    0 -0.81672427397E+03 -0.24331361394E+03  0.24987580650E+03  0.88807543210E+03  0.00000000000E+00 0. -1.
<mgrwt>
<rscale>  0 0.27911810E+04</rscale>
<asrwt>0</asrwt>
<pdfrwt beam="1">  1        2 0.47116340E+00 0.27911810E+04</pdfrwt>
<pdfrwt beam="2">  1       -2 0.97840292E-01 0.27911810E+04</pdfrwt>
<totfact> 0.12035894E+00</totfact>
</mgrwt>
</event>
<event>
 6    1  0.1780144E-005  0.1997095E+04  0.7818608E-02  0.8607980E-01
          2   -1    0    0  501    0  0.00000000000E+00  0.00000000000E+00  0.46975678636E+03  0.46975678636E+03  0.00000000000E+00 0.  1.
         -2   -1    0    0    0  501 -0.00000000000E+00 -0.00000000000E+00 -0.21225812088E+04  0.21225812088E+04  0.00000000000E+00 0. -1.
         23    2    1    2    0    0 -0.68891983761E+03  0.17768191092E+03 -0.17337762183E+04  0.18762831108E+04  0.90977649504E+02 0.  0.
         11    1    3    3    0    0 -0.26766098189E+03  0.32738299148E+02 -0.72461173599E+03  0.77315998694E+03  0.00000000000E+00 0. -1.
        -11    1    3    3    0    0 -0.42125885572E+03  0.14494361177E+03 -0.10091644823E+04  0.11031231239E+04  0.00000000000E+00 0.  1.
         22    1    1    2    0    0  0.68891983761E+03 -0.17768191092E+03  0.80951795873E+02  0.71605488433E+03  0.00000000000E+00 0.  1.
<mgrwt>
<rscale>  0 0.19970948E+04</rscale>
<asrwt>0</asrwt>
<pdfrwt beam="1">  1        2 0.72270276E-01 0.19970948E+04</pdfrwt>
<pdfrwt beam="2">  1       -2 0.32655095E+00 0.19970948E+04</pdfrwt>
<totfact> 0.13439797E+00</totfact>
</mgrwt>
</event>
<event>
 6    1  0.1780144E-005  0.1331289E+04  0.7818608E-02  0.9005114E-01
         -1   -1    0    0    0  501 -0.00000000000E+00  0.00000000000E+00  0.27117328642E+03  0.27117328642E+03  0.00000000000E+00 0.  1.
          1   -1    0    0  501    0  0.00000000000E+00 -0.00000000000E+00 -0.16339464759E+04  0.16339464759E+04  0.00000000000E+00 0. -1.
         23    2    1    2    0    0  0.34320686624E+03 -0.21840954295E+03  0.63893562779E+02  0.42158624282E+03  0.90326581282E+02 0.  0.
         13    1    3    3    0    0  0.89111028606E+02 -0.10457265647E+03  0.34151938074E+02  0.14157178665E+03  0.00000000000E+00 0. -1.
        -13    1    3    3    0    0  0.25409583763E+03 -0.11383688648E+03  0.29741624704E+02  0.28001445617E+03  0.00000000000E+00 0.  1.
         22    1    1    2    0    0 -0.34320686624E+03  0.21840954295E+03 -0.14266667523E+04  0.14835335195E+04  0.00000000000E+00 0. -1.
<mgrwt>
<rscale>  0 0.13312891E+04</rscale>
<asrwt>0</asrwt>
<pdfrwt beam="1">  1        1 0.25137638E+00 0.13312891E+04</pdfrwt>
<pdfrwt beam="2">  1       -1 0.41718968E-01 0.13312891E+04</pdfrwt>
<totfact> 0.29224633E+01</totfact>
</mgrwt>
</event>
<event>
 6    1  0.1780144E-005  0.1597028E+04  0.7818608E-02  0.8822376E-01
          1   -1    0    0  501    0  0.00000000000E+00  0.00000000000E+00  0.16215145760E+04  0.16215145760E+04  0.00000000000E+00 0. -1.
         -1   -1    0    0    0  501 -0.00000000000E+00 -0.00000000000E+00 -0.39322772100E+03  0.39322772100E+03  0.00000000000E+00 0.  1.
         23    2    1    2    0    0 -0.69770292996E+03 -0.20926064016E+03  0.10208023912E+04  0.12573591729E+04  0.91297172574E+02 0.  0.
         11    1    3    3    0    0 -0.69048588245E+03 -0.19413881951E+03  0.10003716343E+04  0.12309362461E+04  0.00000000000E+00 0. -1.
        -11    1    3    3    0    0 -0.72170475175E+01 -0.15121820655E+02  0.20430756854E+02  0.26422926795E+02  0.00000000000E+00 0.  1.
         22    1    1    2    0    0  0.69770292996E+03  0.20926064016E+03  0.20748446380E+03  0.75738312413E+03  0.00000000000E+00 0.  1.
<mgrwt>
<rscale>  0 0.15970278E+04</rscale>
<asrwt>0</asrwt>
<pdfrwt beam="1">  1        1 0.24946378E+00 0.15970278E+04</pdfrwt>
<pdfrwt beam="2">  1       -1 0.60496573E-01 0.15970278E+04</pdfrwt>
<totfact> 0.14342783E+01</totfact>
</mgrwt>
</event>
<event>
 6    1  0.1780144E-005  0.2605143E+04  0.7818608E-02  0.8366456E-01
         -2   -1    0    0    0  501 -0.00000000000E+00  0.00000000000E+00  0.17153685370E+04  0.17153685370E+04  0.00000000000E+00 0.  1.
          2   -1    0    0  501    0  0.00000000000E+00 -0.00000000000E+00 -0.98911274986E+03  0.98911274986E+03  0.00000000000E+00 0. -1.
         23    2    1    2    0    0 -0.58943614308E+03  0.11582918446E+04  0.42531061843E+03  0.13704486941E+04  0.90363361664E+02 0.  0.
         11    1    3    3    0    0 -0.29470605714E+03  0.58857222718E+03  0.26269972004E+03  0.70871720004E+03  0.00000000000E+00 0. -1.
        -11    1    3    3    0    0 -0.29473008595E+03  0.56971961738E+03  0.16261089838E+03  0.66173149408E+03  0.00000000000E+00 0.  1.
         22    1    1    2    0    0  0.58943614308E+03 -0.11582918446E+04  0.30094516873E+03  0.13340325928E+04  0.00000000000E+00 0.  1.
<mgrwt>
<rscale>  0 0.26051433E+04</rscale>
<asrwt>0</asrwt>
<pdfrwt beam="1">  1        2 0.15217119E+00 0.26051433E+04</pdfrwt>
<pdfrwt beam="2">  1       -2 0.26390285E+00 0.26051433E+04</pdfrwt>
<totfact> 0.11952315E+00</totfact>
</mgrwt>
</event>
<event>
 6    1  0.1780144E-005  0.1826456E+04  0.7818608E-02  0.8692355E-01
         -2   -1    0    0    0  501 -0.00000000000E+00  0.00000000000E+00  0.67922866540E+03  0.67922866540E+03  0.00000000000E+00 0.  1.
          2   -1    0    0  501    0  0.00000000000E+00 -0.00000000000E+00 -0.12278423296E+04  0.12278423296E+04  0.00000000000E+00 0. -1.
         23    2    1    2    0    0 -0.29461292185E+03  0.37911177713E+03  0.53300641229E+03  0.72367566665E+03  0.95331640444E+02 0.  0.
         13    1    3    3    0    0 -0.14299932679E+03  0.12198666452E+03  0.16745753300E+03  0.25173712309E+03  0.00000000000E+00 0.  1.
        -13    1    3    3    0    0 -0.15161359506E+03  0.25712511261E+03  0.36554887929E+03  0.47193854356E+03  0.00000000000E+00 0. -1.
         22    1    1    2    0    0  0.29461292185E+03 -0.37911177713E+03 -0.10816200765E+04  0.11833953284E+04  0.00000000000E+00 0. -1.
<mgrwt>
<rscale>  0 0.18264564E+04</rscale>
<asrwt>0</asrwt>
<pdfrwt beam="1">  1        2 0.18889882E+00 0.18264564E+04</pdfrwt>
<pdfrwt beam="2">  1       -2 0.10449672E+00 0.18264564E+04</pdfrwt>
<totfact> 0.12773438E+01</totfact>
</mgrwt>
</event>
<event>
 6    1  0.1780144E-005  0.2554477E+04  0.7818608E-02  0.8383831E-01
          2   -1    0    0  501    0  0.00000000000E+00  0.00000000000E+00  0.11943050228E+04  0.11943050228E+04  0.00000000000E+00 0. -1.
         -2   -1    0    0    0  501 -0.00000000000E+00 -0.00000000000E+00 -0.13659314127E+04  0.13659314127E+04  0.00000000000E+00 0.  1.
         23    2    1    2    0    0 -0.29822514040E+03  0.11600424113E+04  0.35381561919E+03  0.12522892136E+04  0.91685067481E+02 0.  0.
         13    1    3    3    0    0 -0.13832153340E+03  0.44103936309E+03  0.97466425972E+02  0.47238572226E+03  0.00000000000E+00 0.  1.
        -13    1    3    3    0    0 -0.15990360699E+03  0.71900304824E+03  0.25634919322E+03  0.77990349132E+03  0.00000000000E+00 0. -1.
         22    1    1    2    0    0  0.29822514040E+03 -0.11600424113E+04 -0.52544200911E+03  0.13079472219E+04  0.00000000000E+00 0.  1.
<mgrwt>
<rscale>  0 0.25544774E+04</rscale>
<asrwt>0</asrwt>
<pdfrwt beam="1">  1        2 0.18373923E+00 0.25544774E+04</pdfrwt>
<pdfrwt beam="2">  1       -2 0.21014329E+00 0.25544774E+04</pdfrwt>
<totfact> 0.19367439E+00</totfact>
</mgrwt>
</event>
<event>
 6    1  0.1780144E-005  0.3089528E+04  0.7818608E-02  0.8218618E-01
          2   -1    0    0  501    0  0.00000000000E+00  0.00000000000E+00  0.32268873681E+04  0.32268873681E+04  0.00000000000E+00 0. -1.
         -2   -1    0    0    0  501 -0.00000000000E+00 -0.00000000000E+00 -0.73950407103E+03  0.73950407103E+03  0.00000000000E+00 0.  1.
         23    2    1    2    0    0 -0.77013878752E+03 -0.50898017982E+03  0.28327649559E+04  0.29807631797E+04  0.90649116698E+02 0.  0.
         13    1    3    3    0    0 -0.24010032020E+03 -0.18677484119E+03  0.82099452953E+03  0.87553699098E+03  0.00000000000E+00 0. -1.
        -13    1    3    3    0    0 -0.53003846732E+03 -0.32220533864E+03  0.20117704264E+04  0.21052261887E+04  0.00000000000E+00 0.  1.
         22    1    1    2    0    0  0.77013878752E+03  0.50898017982E+03 -0.34538165887E+03  0.98562825943E+03  0.00000000000E+00 0.  1.
<mgrwt>
<rscale>  0 0.30895283E+04</rscale>
<asrwt>0</asrwt>
<pdfrwt beam="1">  1        2 0.49644420E+00 0.30895283E+04</pdfrwt>
<pdfrwt beam="2">  1       -2 0.11376986E+00 0.30895283E+04</pdfrwt>
<totfact> 0.63997639E-01</totfact>
</mgrwt>
</event>
<event>
 6    1  0.1780144E-005  0.4319440E+04  0.7818608E-02  0.7943033E-01
         -2   -1    0    0    0  501 -0.00000000000E+00  0.00000000000E+00  0.15507015836E+04  0.15507015836E+04  0.00000000000E+00 0.  1.
          2   -1    0    0  501    0  0.00000000000E+00 -0.00000000000E+00 -0.30079227648E+04  0.30079227648E+04  0.00000000000E+00 0. -1.
         23    2    1    2    0    0 -0.14855445277E+04 -0.10808170036E+04  0.46739020659E+03  0.18979595945E+04  0.93750084444E+02 0.  0.
         13    1    3    3    0    0 -0.64626205507E+03 -0.45500403663E+03  0.24732695286E+03  0.82816299047E+03  0.00000000000E+00 0. -1.
        -13    1    3    3    0    0 -0.83928247260E+03 -0.62581296695E+03  0.22006325373E+03  0.10697966041E+04  0.00000000000E+00 0.  1.
         22    1    1    2    0    0  0.14855445277E+04  0.10808170036E+04 -0.19246113877E+04  0.26606647539E+04  0.00000000000E+00 0. -1.
<mgrwt>
<rscale>  0 0.43194401E+04</rscale>
<asrwt>0</asrwt>
<pdfrwt beam="1">  1        2 0.46275735E+00 0.43194401E+04</pdfrwt>
<pdfrwt beam="2">  1       -2 0.23856948E+00 0.43194401E+04</pdfrwt>
<totfact> 0.99997072E-02</totfact>
</mgrwt>
</event>
<event>
 6    1  0.1780144E-005  0.1720857E+04  0.7818608E-02  0.8749557E-01
         -4   -1    0    0    0  501 -0.00000000000E+00  0.00000000000E+00  0.26998215316E+03  0.26998215316E+03  0.00000000000E+00 0.  1.
          4   -1    0    0  501    0  0.00000000000E+00 -0.00000000000E+00 -0.27421720161E+04  0.27421720161E+04  0.00000000000E+00 0. -1.
         23    2    1    2    0    0 -0.22732036646E+03 -0.60658586656E+03 -0.22243544999E+04  0.23185812966E+04  0.91898450751E+02 0.  0.
         11    1    3    3    0    0 -0.19499167204E+03 -0.44769932788E+03 -0.17716488632E+04  0.18377149221E+04  0.00000000000E+00 0.  1.
        -11    1    3    3    0    0 -0.32328694422E+02 -0.15888653868E+03 -0.45270563670E+03  0.48086637453E+03  0.00000000000E+00 0. -1.
         22    1    1    2    0    0  0.22732036646E+03  0.60658586656E+03 -0.24783536306E+03  0.69357287267E+03  0.00000000000E+00 0.  1.
<mgrwt>
<rscale>  0 0.17208574E+04</rscale>
<asrwt>0</asrwt>
<pdfrwt beam="1">  1        4 0.42187263E+00 0.17208574E+04</pdfrwt>
<pdfrwt beam="2">  1       -4 0.41535715E-01 0.17208574E+04</pdfrwt>
<totfact> 0.51836194E-02</totfact>
</mgrwt>
</event>
<event>
 6    1  0.1780144E-005  0.2420358E+04  0.7818608E-02  0.8431921E-01
         -2   -1    0    0    0  501 -0.00000000000E+00  0.00000000000E+00  0.46861353873E+03  0.46861353873E+03  0.00000000000E+00 0.  1.
          2   -1    0    0  501    0  0.00000000000E+00 -0.00000000000E+00 -0.31252482961E+04  0.31252482961E+04  0.00000000000E+00 0. -1.
         23    2    1    2    0    0 -0.29544123410E+03  0.11449551733E+04 -0.95996953023E+03  0.15257997553E+04  0.91189487069E+02 0.  0.
         11    1    3    3    0    0 -0.69152934331E+02  0.43173729914E+03 -0.37496330861E+03  0.57600061336E+03  0.00000000000E+00 0. -1.
        -11    1    3    3    0    0 -0.22628829977E+03  0.71321787421E+03 -0.58500622162E+03  0.94979914195E+03  0.00000000000E+00 0.  1.
         22    1    1    2    0    0  0.29544123410E+03 -0.11449551733E+04 -0.16966652272E+04  0.20680620796E+04  0.00000000000E+00 0. -1.
<mgrwt>
<rscale>  0 0.24203584E+04</rscale>
<asrwt>0</asrwt>
<pdfrwt beam="1">  1        2 0.48080744E+00 0.24203584E+04</pdfrwt>
<pdfrwt beam="2">  1       -2 0.72094389E-01 0.24203584E+04</pdfrwt>
<totfact> 0.22693994E+00</totfact>
</mgrwt>
</event>
<event>
 6    1  0.1780144E-005  0.6054259E+03  0.7818608E-02  0.9894213E-01
          2   -1    0    0  501    0  0.00000000000E+00  0.00000000000E+00  0.39940697603E+03  0.39940697603E+03  0.00000000000E+00 0.  1.
         -2   -1    0    0    0  501 -0.00000000000E+00 -0.00000000000E+00 -0.22942797974E+03  0.22942797974E+03  0.00000000000E+00 0. -1.
         23    2    1    2    0    0  0.20533163599E+03  0.21175415522E+03  0.11360845864E+03  0.32853753570E+03  0.89605398812E+02 0.  0.
         13    1    3    3    0    0  0.55161834487E+02  0.11418651987E+03  0.27190488951E+02  0.12969468761E+03  0.00000000000E+00 0.  1.
        -13    1    3    3    0    0  0.15016980150E+03  0.97567635349E+02  0.86417969692E+02  0.19884284809E+03  0.00000000000E+00 0. -1.
         22    1    1    2    0    0 -0.20533163599E+03 -0.21175415522E+03  0.56370537646E+02  0.30029742008E+03  0.00000000000E+00 0.  1.
<mgrwt>
<rscale>  0 0.60542592E+03</rscale>
<asrwt>0</asrwt>
<pdfrwt beam="1">  1        2 0.61447227E-01 0.60542592E+03</pdfrwt>
<pdfrwt beam="2">  1       -2 0.35296612E-01 0.60542592E+03</pdfrwt>
<totfact> 0.60444909E+02</totfact>
</mgrwt>
</event>
<event>
 6    1  0.1780144E-005  0.2042484E+04  0.7818608E-02  0.8587012E-01
          1   -1    0    0  501    0  0.00000000000E+00  0.00000000000E+00  0.73379949119E+03  0.73379949119E+03  0.00000000000E+00 0. -1.
         -1   -1    0    0    0  501 -0.00000000000E+00 -0.00000000000E+00 -0.14212811197E+04  0.14212811197E+04  0.00000000000E+00 0.  1.
         23    2    1    2    0    0  0.78170781939E+03 -0.27109174556E+03 -0.97241623059E+03  0.12800117125E+04  0.90987961532E+02 0.  0.
         13    1    3    3    0    0  0.36479388605E+03 -0.85953451340E+02 -0.40166096663E+03  0.54935790448E+03  0.00000000000E+00 0. -1.
        -13    1    3    3    0    0  0.41691393334E+03 -0.18513829422E+03 -0.57075526396E+03  0.73065380800E+03  0.00000000000E+00 0.  1.
         22    1    1    2    0    0 -0.78170781939E+03  0.27109174556E+03  0.28493460212E+03  0.87506889837E+03  0.00000000000E+00 0. -1.
<mgrwt>
<rscale>  0 0.20424841E+04</rscale>
<asrwt>0</asrwt>
<pdfrwt beam="1">  1        1 0.11289223E+00 0.20424841E+04</pdfrwt>
<pdfrwt beam="2">  1       -1 0.21865863E+00 0.20424841E+04</pdfrwt>
<totfact> 0.26310742E+00</totfact>
</mgrwt>
</event>
<event>
 6    1  0.1780144E-005  0.3027770E+04  0.7818608E-02  0.8235845E-01
          2   -1    0    0  501    0  0.00000000000E+00  0.00000000000E+00  0.34319353427E+04  0.34319353427E+04  0.00000000000E+00 0. -1.
         -2   -1    0    0    0  501 -0.00000000000E+00 -0.00000000000E+00 -0.66780030466E+03  0.66780030466E+03  0.00000000000E+00 0.  1.
         23    2    1    2    0    0 -0.12932097730E+04  0.74202270659E+03  0.17276750378E+04  0.22839056591E+04  0.91513984783E+02 0.  0.
         13    1    3    3    0    0 -0.83413066548E+03  0.46937145211E+03  0.11740812145E+04  0.15147772857E+04  0.00000000000E+00 0. -1.
        -13    1    3    3    0    0 -0.45907910755E+03  0.27265125448E+03  0.55359382330E+03  0.76912837339E+03  0.00000000000E+00 0.  1.
         22    1    1    2    0    0  0.12932097730E+04 -0.74202270659E+03  0.10364600003E+04  0.18158299883E+04  0.00000000000E+00 0.  1.
<mgrwt>
<rscale>  0 0.30277698E+04</rscale>
<asrwt>0</asrwt>
<pdfrwt beam="1">  1        2 0.52799004E+00 0.30277698E+04</pdfrwt>
<pdfrwt beam="2">  1       -2 0.10273851E+00 0.30277698E+04</pdfrwt>
<totfact> 0.59908640E-01</totfact>
</mgrwt>
</event>
<event>
 6    1  0.1780144E-005  0.2130258E+04  0.7818608E-02  0.8548031E-01
         -2   -1    0    0    0  501 -0.00000000000E+00  0.00000000000E+00  0.10070750984E+04  0.10070750984E+04  0.00000000000E+00 0.  1.
          2   -1    0    0  501    0  0.00000000000E+00 -0.00000000000E+00 -0.11265291749E+04  0.11265291749E+04  0.00000000000E+00 0. -1.
         23    2    1    2    0    0  0.77635252423E+03  0.11944218104E+03 -0.77745743117E+03  0.11089296463E+04  0.91078135429E+02 0.  0.
         13    1    3    3    0    0  0.55944808458E+03  0.89381968482E+02 -0.50128179632E+03  0.75647520445E+03  0.00000000000E+00 0. -1.
        -13    1    3    3    0    0  0.21690443965E+03  0.30060212554E+02 -0.27617563486E+03  0.35245444189E+03  0.00000000000E+00 0.  1.
         22    1    1    2    0    0 -0.77635252423E+03 -0.11944218104E+03  0.65800335459E+03  0.10246746270E+04  0.00000000000E+00 0.  1.
<mgrwt>
<rscale>  0 0.21302577E+04</rscale>
<asrwt>0</asrwt>
<pdfrwt beam="1">  1        2 0.17331218E+00 0.21302577E+04</pdfrwt>
<pdfrwt beam="2">  1       -2 0.15493463E+00 0.21302577E+04</pdfrwt>
<totfact> 0.53013161E+00</totfact>
</mgrwt>
</event>
<event>
 6    1  0.1780144E-005  0.1487541E+04  0.7818608E-02  0.8892780E-01
          1   -1    0    0  501    0  0.00000000000E+00  0.00000000000E+00  0.10259391384E+04  0.10259391384E+04  0.00000000000E+00 0.  1.
         -1   -1    0    0    0  501 -0.00000000000E+00 -0.00000000000E+00 -0.53920817193E+03  0.53920817193E+03  0.00000000000E+00 0. -1.
         23    2    1    2    0    0 -0.21787135055E+02  0.39229499166E+03 -0.41599137817E+03  0.58062830532E+03  0.98541171538E+02 0.  0.
         11    1    3    3    0    0 -0.19139604105E+02  0.35487161625E+03 -0.32254797960E+03  0.47993477433E+03  0.00000000000E+00 0. -1.
        -11    1    3    3    0    0 -0.26475309501E+01  0.37423375412E+02 -0.93443398562E+02  0.10069353098E+03  0.00000000000E+00 0.  1.
         22    1    1    2    0    0  0.21787135055E+02 -0.39229499166E+03  0.90272234463E+03  0.98451900501E+03  0.00000000000E+00 0.  1.
<mgrwt>
<rscale>  0 0.14875413E+04</rscale>
<asrwt>0</asrwt>
<pdfrwt beam="1">  1        1 0.15783679E+00 0.14875413E+04</pdfrwt>
<pdfrwt beam="2">  1       -1 0.82955103E-01 0.14875413E+04</pdfrwt>
<totfact> 0.20188276E+01</totfact>
</mgrwt>
</event>
<event>
 6    1  0.1780144E-005  0.1262357E+04  0.7818608E-02  0.9059961E-01
         -1   -1    0    0    0  501 -0.00000000000E+00  0.00000000000E+00  0.29558671294E+03  0.29558671294E+03  0.00000000000E+00 0.  1.
          1   -1    0    0  501    0  0.00000000000E+00 -0.00000000000E+00 -0.13477804965E+04  0.13477804965E+04  0.00000000000E+00 0. -1.
         23    2    1    2    0    0  0.37748709577E+03  0.30579490159E+03 -0.10466161144E+04  0.11575296443E+04  0.91992158089E+02 0.  0.
         13    1    3    3    0    0  0.84134340655E+02  0.80339980953E+02 -0.16956129751E+03  0.20563106145E+03  0.00000000000E+00 0. -1.
        -13    1    3    3    0    0  0.29335275511E+03  0.22545492064E+03 -0.87705481693E+03  0.95189858287E+03  0.00000000000E+00 0.  1.
         22    1    1    2    0    0 -0.37748709577E+03 -0.30579490159E+03 -0.55776691382E+01  0.48583756514E+03  0.00000000000E+00 0.  1.
<mgrwt>
<rscale>  0 0.12623565E+04</rscale>
<asrwt>0</asrwt>
<pdfrwt beam="1">  1        1 0.20735085E+00 0.12623565E+04</pdfrwt>
<pdfrwt beam="2">  1       -1 0.45474878E-01 0.12623565E+04</pdfrwt>
<totfact> 0.39560271E+01</totfact>
</mgrwt>
</event>
<event>
 6    1  0.1780144E-005  0.1342505E+04  0.7818608E-02  0.8996521E-01
          1   -1    0    0  501    0  0.00000000000E+00  0.00000000000E+00  0.10806071842E+04  0.10806071842E+04  0.00000000000E+00 0. -1.
         -1   -1    0    0    0  501 -0.00000000000E+00 -0.00000000000E+00 -0.41696919470E+03  0.41696919470E+03  0.00000000000E+00 0.  1.
         23    2    1    2    0    0 -0.34265375503E+03  0.31073437679E+03  0.87138006893E+03  0.99050220251E+03  0.88453037709E+02 0.  0.
         11    1    3    3    0    0 -0.29436104171E+03  0.21999798607E+03  0.65835587035E+03  0.75397611950E+03  0.00000000000E+00 0. -1.
        -11    1    3    3    0    0 -0.48292713324E+02  0.90736390720E+02  0.21302419858E+03  0.23652608301E+03  0.00000000000E+00 0.  1.
         22    1    1    2    0    0  0.34265375503E+03 -0.31073437679E+03 -0.20774207946E+03  0.50707417637E+03  0.00000000000E+00 0.  1.
<mgrwt>
<rscale>  0 0.13425050E+04</rscale>
<asrwt>0</asrwt>
<pdfrwt beam="1">  1        1 0.16624726E+00 0.13425050E+04</pdfrwt>
<pdfrwt beam="2">  1       -1 0.64149107E-01 0.13425050E+04</pdfrwt>
<totfact> 0.31653491E+01</totfact>
</mgrwt>
</event>
<event>
 6    1  0.1780144E-005  0.3941311E+04  0.7818608E-02  0.8016492E-01
          2   -1    0    0  501    0  0.00000000000E+00  0.00000000000E+00  0.18563640241E+04  0.18563640241E+04  0.00000000000E+00 0. -1.
         -2   -1    0    0    0  501 -0.00000000000E+00 -0.00000000000E+00 -0.20919838944E+04  0.20919838944E+04  0.00000000000E+00 0.  1.
         23    2    1    2    0    0  0.80476894128E+03  0.77501397313E+03 -0.17428214454E+04  0.20721932620E+04  0.90876933571E+02 0.  0.
         13    1    3    3    0    0  0.33344599556E+03  0.36470453190E+03 -0.71002721340E+03  0.86506316030E+03  0.00000000000E+00 0.  1.
        -13    1    3    3    0    0  0.47132294572E+03  0.41030944123E+03 -0.10327942320E+04  0.12071301017E+04  0.00000000000E+00 0. -1.
         22    1    1    2    0    0 -0.80476894128E+03 -0.77501397313E+03  0.15072015750E+04  0.18761546565E+04  0.00000000000E+00 0. -1.
<mgrwt>
<rscale>  0 0.39413113E+04</rscale>
<asrwt>0</asrwt>
<pdfrwt beam="1">  1        2 0.28559447E+00 0.39413113E+04</pdfrwt>
<pdfrwt beam="2">  1       -2 0.32184368E+00 0.39413113E+04</pdfrwt>
<totfact> 0.14841796E-01</totfact>
</mgrwt>
</event>
<event>
 6    1  0.1780144E-005  0.1225792E+04  0.7818608E-02  0.9090575E-01
         -2   -1    0    0    0  501 -0.00000000000E+00  0.00000000000E+00  0.73586256803E+03  0.73586256803E+03  0.00000000000E+00 0.  1.
          2   -1    0    0  501    0  0.00000000000E+00 -0.00000000000E+00 -0.51047799935E+03  0.51047799935E+03  0.00000000000E+00 0. -1.
         23    2    1    2    0    0  0.36094651865E+03  0.17273954248E+03 -0.35403274886E+03  0.54217739969E+03  0.92172699908E+02 0.  0.
         13    1    3    3    0    0  0.28983686836E+03  0.94497197400E+02 -0.25916933592E+03  0.40012982301E+03  0.00000000000E+00 0. -1.
        -13    1    3    3    0    0  0.71109650297E+02  0.78242345080E+02 -0.94863412936E+02  0.14204757669E+03  0.00000000000E+00 0.  1.
         22    1    1    2    0    0 -0.36094651865E+03 -0.17273954248E+03  0.57941731754E+03  0.70416316769E+03  0.00000000000E+00 0.  1.
<mgrwt>
<rscale>  0 0.12257922E+04</rscale>
<asrwt>0</asrwt>
<pdfrwt beam="1">  1        2 0.78535077E-01 0.12257922E+04</pdfrwt>
<pdfrwt beam="2">  1       -2 0.11320963E+00 0.12257922E+04</pdfrwt>
<totfact> 0.36272337E+01</totfact>
</mgrwt>
</event>
<event>
 6    1  0.1780144E-005  0.1784604E+04  0.7818608E-02  0.8714530E-01
          1   -1    0    0  501    0  0.00000000000E+00  0.00000000000E+00  0.16903085428E+04  0.16903085428E+04  0.00000000000E+00 0. -1.
         -1   -1    0    0    0  501 -0.00000000000E+00 -0.00000000000E+00 -0.47104007192E+03  0.47104007192E+03  0.00000000000E+00 0.  1.
         23    2    1    2    0    0 -0.38879489593E+03  0.79386086027E+03  0.73195398267E+03  0.11519666518E+04  0.99468575983E+02 0.  0.
         13    1    3    3    0    0 -0.11464548617E+03  0.16547655133E+03  0.20451801263E+03  0.28697333331E+03  0.00000000000E+00 0.  1.
        -13    1    3    3    0    0 -0.27414940975E+03  0.62838430894E+03  0.52743597004E+03  0.86499331851E+03  0.00000000000E+00 0. -1.
         22    1    1    2    0    0  0.38879489593E+03 -0.79386086027E+03  0.48731448818E+03  0.10093819629E+04  0.00000000000E+00 0.  1.
<mgrwt>
<rscale>  0 0.17846042E+04</rscale>
<asrwt>0</asrwt>
<pdfrwt beam="1">  1        1 0.26004747E+00 0.17846042E+04</pdfrwt>
<pdfrwt beam="2">  1       -1 0.72467704E-01 0.17846042E+04</pdfrwt>
<totfact> 0.87812983E+00</totfact>
</mgrwt>
</event>
<event>
 6    1  0.1780144E-005  0.4393242E+04  0.7818608E-02  0.7929598E-01
         -2   -1    0    0    0  501 -0.00000000000E+00  0.00000000000E+00  0.14664189195E+04  0.14664189195E+04  0.00000000000E+00 0.  1.
          2   -1    0    0  501    0  0.00000000000E+00 -0.00000000000E+00 -0.32904262525E+04  0.32904262525E+04  0.00000000000E+00 0. -1.
         23    2    1    2    0    0  0.19028778997E+04 -0.48834719846E+03 -0.19741558605E+04  0.27865731431E+04  0.90946318793E+02 0.  0.
         11    1    3    3    0    0  0.15027893682E+04 -0.37959905782E+03 -0.16082891614E+04  0.22336215786E+04  0.00000000000E+00 0.  1.
        -11    1    3    3    0    0  0.40008853155E+03 -0.10874814064E+03 -0.36586669906E+03  0.55295156447E+03  0.00000000000E+00 0. -1.
         22    1    1    2    0    0 -0.19028778997E+04  0.48834719846E+03  0.15014852745E+03  0.19702720289E+04  0.00000000000E+00 0.  1.
<mgrwt>
<rscale>  0 0.43932418E+04</rscale>
<asrwt>0</asrwt>
<pdfrwt beam="1">  1        2 0.50621942E+00 0.43932418E+04</pdfrwt>
<pdfrwt beam="2">  1       -2 0.22560291E+00 0.43932418E+04</pdfrwt>
<totfact> 0.78607901E-02</totfact>
</mgrwt>
</event>
<event>
 6    1  0.1780144E-005  0.5125688E+04  0.7818608E-02  0.7809406E-01
         -2   -1    0    0    0  501 -0.00000000000E+00  0.00000000000E+00  0.21193862289E+04  0.21193862289E+04  0.00000000000E+00 0.  1.
          2   -1    0    0  501    0  0.00000000000E+00 -0.00000000000E+00 -0.30990904436E+04  0.30990904436E+04  0.00000000000E+00 0. -1.
         23    2    1    2    0    0 -0.14600029946E+04 -0.41723529215E+03 -0.25909170713E+04  0.30044981490E+04  0.91999041025E+02 0.  0.
         13    1    3    3    0    0 -0.12367048732E+04 -0.36862813748E+03 -0.22567324503E+04  0.25996474760E+04  0.00000000000E+00 0.  1.
        -13    1    3    3    0    0 -0.22329812138E+03 -0.48607154671E+02 -0.33418462098E+03  0.40485067296E+03  0.00000000000E+00 0. -1.
         22    1    1    2    0    0  0.14600029946E+04  0.41723529215E+03  0.16112128567E+04  0.22139785235E+04  0.00000000000E+00 0.  1.
<mgrwt>
<rscale>  0 0.51256881E+04</rscale>
<asrwt>0</asrwt>
<pdfrwt beam="1">  1        2 0.47678315E+00 0.51256881E+04</pdfrwt>
<pdfrwt beam="2">  1       -2 0.32605942E+00 0.51256881E+04</pdfrwt>
<totfact> 0.23838405E-02</totfact>
</mgrwt>
</event>
<event>
 6    1  0.1780144E-005  0.1502622E+04  0.7818608E-02  0.8882711E-01
         -1   -1    0    0    0  501 -0.00000000000E+00  0.00000000000E+00  0.39405344768E+03  0.39405344768E+03  0.00000000000E+00 0.  1.
          1   -1    0    0  501    0  0.00000000000E+00 -0.00000000000E+00 -0.14324654951E+04  0.14324654951E+04  0.00000000000E+00 0. -1.
         23    2    1    2    0    0 -0.58349145697E+03 -0.34328497130E+03 -0.90948492233E+03  0.11373679757E+04  0.90201088131E+02 0.  0.
         11    1    3    3    0    0 -0.12584816735E+03 -0.11603922241E+03 -0.25306046972E+03  0.30551998903E+03  0.00000000000E+00 0. -1.
        -11    1    3    3    0    0 -0.45764328962E+03 -0.22724574889E+03 -0.65642445261E+03  0.83184798665E+03  0.00000000000E+00 0.  1.
         22    1    1    2    0    0  0.58349145697E+03  0.34328497130E+03 -0.12892712511E+03  0.68915096711E+03  0.00000000000E+00 0.  1.
<mgrwt>
<rscale>  0 0.15026217E+04</rscale>
<asrwt>0</asrwt>
<pdfrwt beam="1">  1        1 0.22037931E+00 0.15026217E+04</pdfrwt>
<pdfrwt beam="2">  1       -1 0.60623607E-01 0.15026217E+04</pdfrwt>
<totfact> 0.19454237E+01</totfact>
</mgrwt>
</event>
<event>
 6    1  0.1780144E-005  0.2670466E+04  0.7818608E-02  0.8344652E-01
          2   -1    0    0  501    0  0.00000000000E+00  0.00000000000E+00  0.19486171897E+04  0.19486171897E+04  0.00000000000E+00 0. -1.
         -2   -1    0    0    0  501 -0.00000000000E+00 -0.00000000000E+00 -0.91492961500E+03  0.91492961500E+03  0.00000000000E+00 0.  1.
         23    2    1    2    0    0  0.75292604521E+03  0.89205041466E+03  0.12101511733E+04  0.16829575562E+04  0.72309763287E+02 0.  0.
         13    1    3    3    0    0  0.65541564047E+03  0.79109826528E+03  0.10321355635E+04  0.14562657548E+04  0.00000000000E+00 0. -1.
        -13    1    3    3    0    0  0.97510404733E+02  0.10095214938E+03  0.17801560980E+03  0.22669180142E+03  0.00000000000E+00 0.  1.
         22    1    1    2    0    0 -0.75292604521E+03 -0.89205041466E+03 -0.17646359868E+03  0.11805892484E+04  0.00000000000E+00 0.  1.
<mgrwt>
<rscale>  0 0.26704663E+04</rscale>
<asrwt>0</asrwt>
<pdfrwt beam="1">  1        2 0.29978726E+00 0.26704663E+04</pdfrwt>
<pdfrwt beam="2">  1       -2 0.14075840E+00 0.26704663E+04</pdfrwt>
<totfact> 0.22225304E+00</totfact>
</mgrwt>
</event>
<event>
 6    1  0.1780144E-005  0.2878940E+04  0.7818608E-02  0.8279171E-01
          2   -1    0    0  501    0  0.00000000000E+00  0.00000000000E+00  0.28612735860E+04  0.28612735860E+04  0.00000000000E+00 0. -1.
         -2   -1    0    0    0  501 -0.00000000000E+00 -0.00000000000E+00 -0.72417907727E+03  0.72417907727E+03  0.00000000000E+00 0.  1.
         23    2    1    2    0    0 -0.44031132805E+03 -0.35865167768E+03 -0.57600804027E+03  0.81355249679E+03  0.87047751657E+02 0.  0.
         13    1    3    3    0    0 -0.18463759081E+03 -0.14305350397E+03 -0.17787589721E+03  0.29359015608E+03  0.00000000000E+00 0. -1.
        -13    1    3    3    0    0 -0.25567373724E+03 -0.21559817371E+03 -0.39813214307E+03  0.51996234072E+03  0.00000000000E+00 0.  1.
         22    1    1    2    0    0  0.44031132805E+03  0.35865167768E+03  0.27131025490E+04  0.27719001665E+04  0.00000000000E+00 0. -1.
<mgrwt>
<rscale>  0 0.28789404E+04</rscale>
<asrwt>0</asrwt>
<pdfrwt beam="1">  1        2 0.44019593E+00 0.28789404E+04</pdfrwt>
<pdfrwt beam="2">  1       -2 0.11141217E+00 0.28789404E+04</pdfrwt>
<totfact> 0.11681537E+00</totfact>
</mgrwt>
</event>
<event>
 6    1  0.1780144E-005  0.1346549E+04  0.7818608E-02  0.8993444E-01
         -3   -1    0    0    0  501 -0.00000000000E+00  0.00000000000E+00  0.26975424424E+04  0.26975424424E+04  0.00000000000E+00 0.  1.
          3   -1    0    0  501    0  0.00000000000E+00 -0.00000000000E+00 -0.16804139049E+03  0.16804139049E+03  0.00000000000E+00 0. -1.
         23    2    1    2    0    0  0.24693035794E+03  0.38647339992E+03  0.23096653784E+03  0.52174143144E+03  0.92370391155E+02 0.  0.
         13    1    3    3    0    0  0.18586752984E+03  0.25230954539E+03  0.19801286095E+03  0.37069655845E+03  0.00000000000E+00 0. -1.
        -13    1    3    3    0    0  0.61062828101E+02  0.13416385452E+03  0.32953676898E+02  0.15104487299E+03  0.00000000000E+00 0.  1.
         22    1    1    2    0    0 -0.24693035794E+03 -0.38647339992E+03  0.22985345141E+04  0.23438424014E+04  0.00000000000E+00 0.  1.
<mgrwt>
<rscale>  0 0.13465493E+04</rscale>
<asrwt>0</asrwt>
<pdfrwt beam="1">  1        3 0.25852524E-01 0.13465493E+04</pdfrwt>
<pdfrwt beam="2">  1       -3 0.41500650E+00 0.13465493E+04</pdfrwt>
<totfact> 0.32634240E-01</totfact>
</mgrwt>
</event>
<event>
 6    1  0.1780144E-005  0.2588723E+04  0.7818608E-02  0.8372042E-01
         -1   -1    0    0    0  501 -0.00000000000E+00  0.00000000000E+00  0.46096995444E+03  0.46096995444E+03  0.00000000000E+00 0.  1.
          1   -1    0    0  501    0  0.00000000000E+00 -0.00000000000E+00 -0.36344488327E+04  0.36344488327E+04  0.00000000000E+00 0. -1.
         23    2    1    2    0    0  0.82156128722E+03  0.43610494223E+03 -0.16832166018E+03  0.94960881598E+03  0.90962920009E+02 0.  0.
         11    1    3    3    0    0  0.25367157072E+03  0.17413656808E+03 -0.30461486140E+02  0.30919364850E+03  0.00000000000E+00 0.  1.
        -11    1    3    3    0    0  0.56788971650E+03  0.26196837415E+03 -0.13786017404E+03  0.64041516748E+03  0.00000000000E+00 0. -1.
         22    1    1    2    0    0 -0.82156128722E+03 -0.43610494223E+03 -0.30051572181E+04  0.31458099712E+04  0.00000000000E+00 0. -1.
<mgrwt>
<rscale>  0 0.25887230E+04</rscale>
<asrwt>0</asrwt>
<pdfrwt beam="1">  1        1 0.55914594E+00 0.25887230E+04</pdfrwt>
<pdfrwt beam="2">  1       -1 0.70918459E-01 0.25887230E+04</pdfrwt>
<totfact> 0.34578187E-01</totfact>
</mgrwt>
</event>
<event>
 6    1  0.1780144E-005  0.3183358E+04  0.7818608E-02  0.8193226E-01
         -2   -1    0    0    0  501 -0.00000000000E+00  0.00000000000E+00  0.78113364956E+03  0.78113364956E+03  0.00000000000E+00 0.  1.
          2   -1    0    0  501    0  0.00000000000E+00 -0.00000000000E+00 -0.32432895322E+04  0.32432895322E+04  0.00000000000E+00 0. -1.
         23    2    1    2    0    0 -0.75188398934E+03  0.59062989698E+03 -0.28387343255E+04  0.29968121015E+04  0.91087827067E+02 0.  0.
         11    1    3    3    0    0 -0.43234491100E+03  0.38544711463E+03 -0.16319927374E+04  0.17317308957E+04  0.00000000000E+00 0. -1.
        -11    1    3    3    0    0 -0.31953907834E+03  0.20518278234E+03 -0.12067415881E+04  0.12650812058E+04  0.00000000000E+00 0.  1.
         22    1    1    2    0    0  0.75188398934E+03 -0.59062989698E+03  0.37657844288E+03  0.10276110803E+04  0.00000000000E+00 0.  1.
<mgrwt>
<rscale>  0 0.31833583E+04</rscale>
<asrwt>0</asrwt>
<pdfrwt beam="1">  1        2 0.49896763E+00 0.31833583E+04</pdfrwt>
<pdfrwt beam="2">  1       -2 0.12017441E+00 0.31833583E+04</pdfrwt>
<totfact> 0.54137434E-01</totfact>
</mgrwt>
</event>
<event>
 6    1  0.1780144E-005  0.2010165E+04  0.7818608E-02  0.8601883E-01
         -2   -1    0    0    0  501 -0.00000000000E+00  0.00000000000E+00  0.16050058083E+04  0.16050058083E+04  0.00000000000E+00 0.  1.
          2   -1    0    0  501    0  0.00000000000E+00 -0.00000000000E+00 -0.62940040059E+03  0.62940040059E+03  0.00000000000E+00 0. -1.
         23    2    1    2    0    0  0.63336993396E+03 -0.72883403909E+03  0.18685279660E+03  0.98761544406E+03  0.90076456219E+02 0.  0.
         11    1    3    3    0    0  0.33128660555E+03 -0.31827049359E+03  0.70421194880E+02  0.46476452833E+03  0.00000000000E+00 0. -1.
        -11    1    3    3    0    0  0.30208332841E+03 -0.41056354550E+03  0.11643160173E+03  0.52285091572E+03  0.00000000000E+00 0.  1.
         22    1    1    2    0    0 -0.63336993396E+03  0.72883403909E+03  0.78875261113E+03  0.12467907649E+04  0.00000000000E+00 0.  1.
<mgrwt>
<rscale>  0 0.20101655E+04</rscale>
<asrwt>0</asrwt>
<pdfrwt beam="1">  1        2 0.96830831E-01 0.20101655E+04</pdfrwt>
<pdfrwt beam="2">  1       -2 0.24692397E+00 0.20101655E+04</pdfrwt>
<totfact> 0.29147005E+00</totfact>
</mgrwt>
</event>
<event>
 6    1  0.1780144E-005  0.3899535E+04  0.7818608E-02  0.8025126E-01
          2   -1    0    0  501    0  0.00000000000E+00  0.00000000000E+00  0.33554479961E+04  0.33554479961E+04  0.00000000000E+00 0. -1.
         -2   -1    0    0    0  501 -0.00000000000E+00 -0.00000000000E+00 -0.11329612589E+04  0.11329612589E+04  0.00000000000E+00 0.  1.
         23    2    1    2    0    0 -0.17222511295E+04 -0.79229693506E+03  0.59209252879E+03  0.19879955569E+04  0.87575028365E+02 0.  0.
         13    1    3    3    0    0 -0.73524026233E+03 -0.37048196578E+03  0.22350830891E+03  0.85310673099E+03  0.00000000000E+00 0. -1.
        -13    1    3    3    0    0 -0.98701086713E+03 -0.42181496928E+03  0.36858421988E+03  0.11348888260E+04  0.00000000000E+00 0.  1.
         22    1    1    2    0    0  0.17222511295E+04  0.79229693506E+03  0.16303942084E+04  0.25004136980E+04  0.00000000000E+00 0. -1.
<mgrwt>
<rscale>  0 0.38995346E+04</rscale>
<asrwt>0</asrwt>
<pdfrwt beam="1">  1        2 0.51622276E+00 0.38995346E+04</pdfrwt>
<pdfrwt beam="2">  1       -2 0.17430173E+00 0.38995346E+04</pdfrwt>
<totfact> 0.16133054E-01</totfact>
</mgrwt>
</event>
<event>
 6    1  0.1780144E-005  0.9693268E+03  0.7818608E-02  0.9342841E-01
         -2   -1    0    0    0  501 -0.00000000000E+00  0.00000000000E+00  0.10677080282E+03  0.10677080282E+03  0.00000000000E+00 0.  1.
          2   -1    0    0  501    0  0.00000000000E+00 -0.00000000000E+00 -0.22000268216E+04  0.22000268216E+04  0.00000000000E+00 0. -1.
         23    2    1    2    0    0 -0.48437985902E+02  0.43853262423E+03 -0.60406049812E+03  0.75362010729E+03  0.91635581103E+02 0.  0.
         11    1    3    3    0    0 -0.42162624752E+02  0.37829800865E+03 -0.56601768600E+03  0.68210196535E+03  0.00000000000E+00 0.  1.
        -11    1    3    3    0    0 -0.62753611498E+01  0.60234615581E+02 -0.38042812126E+02  0.71518141937E+02  0.00000000000E+00 0. -1.
         22    1    1    2    0    0  0.48437985902E+02 -0.43853262423E+03 -0.14891955207E+04  0.15531775171E+04  0.00000000000E+00 0. -1.
<mgrwt>
<rscale>  0 0.96932684E+03</rscale>
<asrwt>0</asrwt>
<pdfrwt beam="1">  1        2 0.33846567E+00 0.96932684E+03</pdfrwt>
<pdfrwt beam="2">  1       -2 0.16426277E-01 0.96932684E+03</pdfrwt>
<totfact> 0.15650766E+02</totfact>
</mgrwt>
</event>
<event>
 6    1  0.2299284E-005  0.3743769E+04  0.7818608E-02  0.8058331E-01
          2   -1    0    0  501    0  0.00000000000E+00  0.00000000000E+00  0.22455106734E+04  0.22455106734E+04  0.00000000000E+00 0. -1.
         -2   -1    0    0    0  501 -0.00000000000E+00 -0.00000000000E+00 -0.15604251437E+04  0.15604251437E+04  0.00000000000E+00 0.  1.
         23    2    1    2    0    0  0.79054850553E+03  0.25833802103E+03  0.20465187385E+04  0.22105656861E+04  0.81585737905E+02 0.  0.
         11    1    3    3    0    0  0.36656369080E+03  0.14591024948E+03  0.88399880232E+03  0.96804577517E+03  0.00000000000E+00 0.  1.
        -11    1    3    3    0    0  0.42398481473E+03  0.11242777155E+03  0.11625199362E+04  0.12425199109E+04  0.00000000000E+00 0. -1.
         22    1    1    2    0    0 -0.79054850553E+03 -0.25833802103E+03 -0.13614332089E+04  0.15953701310E+04  0.00000000000E+00 0.  1.
<mgrwt>
<rscale>  0 0.37437689E+04</rscale>
<asrwt>0</asrwt>
<pdfrwt beam="1">  1        2 0.34546318E+00 0.37437689E+04</pdfrwt>
<pdfrwt beam="2">  1       -2 0.24006541E+00 0.37437689E+04</pdfrwt>
<totfact> 0.29018067E-01</totfact>
</mgrwt>
</event>
<event>
 6    1  0.1780144E-005  0.2849281E+04  0.7818608E-02  0.8288130E-01
          2   -1    0    0  501    0  0.00000000000E+00  0.00000000000E+00  0.15004519609E+04  0.15004519609E+04  0.00000000000E+00 0. -1.
         -2   -1    0    0    0  501 -0.00000000000E+00 -0.00000000000E+00 -0.13526595735E+04  0.13526595735E+04  0.00000000000E+00 0.  1.
         23    2    1    2    0    0 -0.10735508953E+04 -0.80980303257E+03  0.54041014302E+03  0.14522399562E+04  0.93087546883E+02 0.  0.
         11    1    3    3    0    0 -0.92368221320E+03 -0.73464837981E+03  0.47833056102E+03  0.12734587542E+04  0.00000000000E+00 0. -1.
        -11    1    3    3    0    0 -0.14986868212E+03 -0.75154652761E+02  0.62079581992E+02  0.17878120206E+03  0.00000000000E+00 0.  1.
         22    1    1    2    0    0  0.10735508953E+04  0.80980303257E+03 -0.39261775558E+03  0.14008715781E+04  0.00000000000E+00 0. -1.
<mgrwt>
<rscale>  0 0.28492811E+04</rscale>
<asrwt>0</asrwt>
<pdfrwt beam="1">  1        2 0.23083876E+00 0.28492811E+04</pdfrwt>
<pdfrwt beam="2">  1       -2 0.20810147E+00 0.28492811E+04</pdfrwt>
<totfact> 0.12950989E+00</totfact>
</mgrwt>
</event>
<event>
 6    1  0.1780144E-005  0.2461390E+04  0.7818608E-02  0.8416871E-01
         -1   -1    0    0    0  501 -0.00000000000E+00  0.00000000000E+00  0.17402199309E+04  0.17402199309E+04  0.00000000000E+00 0.  1.
          1   -1    0    0  501    0  0.00000000000E+00 -0.00000000000E+00 -0.87035561847E+03  0.87035561847E+03  0.00000000000E+00 0. -1.
         23    2    1    2    0    0  0.37538271706E+03 -0.60410684552E+03 -0.62742046689E+03  0.95295105164E+03  0.92746964838E+02 0.  0.
         11    1    3    3    0    0  0.28115976416E+03 -0.42601610032E+03 -0.39542619005E+03  0.64567979873E+03  0.00000000000E+00 0. -1.
        -11    1    3    3    0    0  0.94222952895E+02 -0.17809074520E+03 -0.23199427684E+03  0.30727125291E+03  0.00000000000E+00 0.  1.
         22    1    1    2    0    0 -0.37538271706E+03  0.60410684552E+03  0.14972847793E+04  0.16576244977E+04  0.00000000000E+00 0. -1.
<mgrwt>
<rscale>  0 0.24613900E+04</rscale>
<asrwt>0</asrwt>
<pdfrwt beam="1">  1        1 0.13390086E+00 0.24613900E+04</pdfrwt>
<pdfrwt beam="2">  1       -1 0.26772614E+00 0.24613900E+04</pdfrwt>
<totfact> 0.91743641E-01</totfact>
</mgrwt>
</event>
<event>
 6    1  0.1780144E-005  0.2059103E+04  0.7818608E-02  0.8579476E-01
         -2   -1    0    0    0  501 -0.00000000000E+00  0.00000000000E+00  0.13087922618E+04  0.13087922618E+04  0.00000000000E+00 0.  1.
          2   -1    0    0  501    0  0.00000000000E+00 -0.00000000000E+00 -0.80988850744E+03  0.80988850744E+03  0.00000000000E+00 0. -1.
         23    2    1    2    0    0 -0.31520899777E+02  0.96471393152E+03 -0.11195321354E+03  0.97639675376E+03  0.95658569619E+02 0.  0.
         13    1    3    3    0    0  0.88616394287E+00  0.12544141595E+03  0.17229479865E+02  0.12662222987E+03  0.00000000000E+00 0.  1.
        -13    1    3    3    0    0 -0.32407063720E+02  0.83927251557E+03 -0.12918269341E+03  0.84977452389E+03  0.00000000000E+00 0. -1.
         22    1    1    2    0    0  0.31520899777E+02 -0.96471393152E+03  0.61085696791E+03  0.11422840155E+04  0.00000000000E+00 0.  1.
<mgrwt>
<rscale>  0 0.20591025E+04</rscale>
<asrwt>0</asrwt>
<pdfrwt beam="1">  1        2 0.12459823E+00 0.20591025E+04</pdfrwt>
<pdfrwt beam="2">  1       -2 0.20135266E+00 0.20591025E+04</pdfrwt>
<totfact> 0.40807255E+00</totfact>
</mgrwt>
</event>
<event>
 6    1  0.1780144E-005  0.2390825E+04  0.7818608E-02  0.8442947E-01
          1   -1    0    0  501    0  0.00000000000E+00  0.00000000000E+00  0.12531853814E+04  0.12531853814E+04  0.00000000000E+00 0. -1.
         -1   -1    0    0    0  501 -0.00000000000E+00 -0.00000000000E+00 -0.11403026695E+04  0.11403026695E+04  0.00000000000E+00 0.  1.
         23    2    1    2    0    0 -0.25950376024E+03  0.11392505585E+04  0.30097974074E+03  0.12100124370E+04  0.91144153667E+02 0.  0.
         13    1    3    3    0    0 -0.16750075774E+03  0.90373374666E+03  0.23780539273E+03  0.94939064326E+03  0.00000000000E+00 0. -1.
        -13    1    3    3    0    0 -0.92003002499E+02  0.23551681182E+03  0.63174348004E+02  0.26062179372E+03  0.00000000000E+00 0.  1.
         22    1    1    2    0    0  0.25950376024E+03 -0.11392505585E+04 -0.18809702876E+03  0.11834756139E+04  0.00000000000E+00 0. -1.
<mgrwt>
<rscale>  0 0.23908247E+04</rscale>
<asrwt>0</asrwt>
<pdfrwt beam="1">  1        1 0.19279775E+00 0.23908247E+04</pdfrwt>
<pdfrwt beam="2">  1       -1 0.17543118E+00 0.23908247E+04</pdfrwt>
<totfact> 0.19686955E+00</totfact>
</mgrwt>
</event>
<event>
 6    1  0.1780144E-005  0.3501186E+04  0.7818608E-02  0.8113509E-01
         -1   -1    0    0    0  501 -0.00000000000E+00  0.00000000000E+00  0.83088622160E+03  0.83088622160E+03  0.00000000000E+00 0.  1.
          1   -1    0    0  501    0  0.00000000000E+00 -0.00000000000E+00 -0.36883228307E+04  0.36883228307E+04  0.00000000000E+00 0. -1.
         23    2    1    2    0    0  0.16548355602E+03 -0.64792255965E+03 -0.35162954887E+04  0.35804420558E+04  0.89682219400E+02 0.  0.
         13    1    3    3    0    0  0.24083695344E+02 -0.26492196529E+03 -0.14498123854E+04  0.14740147981E+04  0.00000000000E+00 0. -1.
        -13    1    3    3    0    0  0.14139986068E+03 -0.38300059436E+03 -0.20664831033E+04  0.21064272577E+04  0.00000000000E+00 0.  1.
         22    1    1    2    0    0 -0.16548355602E+03  0.64792255965E+03  0.65885887956E+03  0.93876699654E+03  0.00000000000E+00 0.  1.
<mgrwt>
<rscale>  0 0.35011864E+04</rscale>
<asrwt>0</asrwt>
<pdfrwt beam="1">  1        1 0.56743427E+00 0.35011864E+04</pdfrwt>
<pdfrwt beam="2">  1       -1 0.12782865E+00 0.35011864E+04</pdfrwt>
<totfact> 0.75991723E-02</totfact>
</mgrwt>
</event>
<event>
 6    1  0.1780144E-005  0.7768946E+03  0.7818608E-02  0.9594077E-01
          1   -1    0    0  501    0  0.00000000000E+00  0.00000000000E+00  0.40455353833E+03  0.40455353833E+03  0.00000000000E+00 0. -1.
         -1   -1    0    0    0  501 -0.00000000000E+00 -0.00000000000E+00 -0.37298232675E+03  0.37298232675E+03  0.00000000000E+00 0.  1.
         23    2    1    2    0    0 -0.88908918701E+02 -0.34084004312E+03 -0.13621652963E+03  0.38736992996E+03  0.86161411773E+02 0.  0.
         11    1    3    3    0    0 -0.40827214628E+02 -0.23361206930E+03 -0.12819022594E+03  0.26958151718E+03  0.00000000000E+00 0. -1.
        -11    1    3    3    0    0 -0.48081704072E+02 -0.10722797382E+03 -0.80263036870E+01  0.11778841279E+03  0.00000000000E+00 0.  1.
         22    1    1    2    0    0  0.88908918701E+02  0.34084004312E+03  0.16778774121E+03  0.39016593511E+03  0.00000000000E+00 0. -1.
<mgrwt>
<rscale>  0 0.77689464E+03</rscale>
<asrwt>0</asrwt>
<pdfrwt beam="1">  1        1 0.62239006E-01 0.77689464E+03</pdfrwt>
<pdfrwt beam="2">  1       -1 0.57381897E-01 0.77689464E+03</pdfrwt>
<totfact> 0.18406177E+02</totfact>
</mgrwt>
</event>
<event>
 6    1  0.1780144E-005  0.3145725E+04  0.7818608E-02  0.8203300E-01
          2   -1    0    0  501    0  0.00000000000E+00  0.00000000000E+00  0.16302443642E+04  0.16302443642E+04  0.00000000000E+00 0. -1.
         -2   -1    0    0    0  501 -0.00000000000E+00 -0.00000000000E+00 -0.15175006734E+04  0.15175006734E+04  0.00000000000E+00 0.  1.
         23    2    1    2    0    0  0.25589421972E+03  0.62619648032E+03  0.14758264239E+04  0.16260359916E+04  0.91244335174E+02 0.  0.
         11    1    3    3    0    0  0.42585696145E+02  0.20913866251E+03  0.42794161753E+03  0.47821182512E+03  0.00000000000E+00 0.  1.
        -11    1    3    3    0    0  0.21330852358E+03  0.41705781780E+03  0.10478848064E+04  0.11478241664E+04  0.00000000000E+00 0. -1.
         22    1    1    2    0    0 -0.25589421972E+03 -0.62619648032E+03 -0.13630827331E+04  0.15217090460E+04  0.00000000000E+00 0.  1.
<mgrwt>
<rscale>  0 0.31457253E+04</rscale>
<asrwt>0</asrwt>
<pdfrwt beam="1">  1        2 0.25080683E+00 0.31457253E+04</pdfrwt>
<pdfrwt beam="2">  1       -2 0.23346164E+00 0.31457253E+04</pdfrwt>
<totfact> 0.73801360E-01</totfact>
</mgrwt>
</event>
<event>
 6    1  0.1780144E-005  0.1355704E+04  0.7818608E-02  0.8986521E-01
          1   -1    0    0  501    0  0.00000000000E+00  0.00000000000E+00  0.18481848576E+04  0.18481848576E+04  0.00000000000E+00 0. -1.
         -1   -1    0    0    0  501 -0.00000000000E+00 -0.00000000000E+00 -0.24861333407E+03  0.24861333407E+03  0.00000000000E+00 0.  1.
         23    2    1    2    0    0 -0.57163058158E+03  0.16727843569E+03  0.31293276572E+03  0.67898900495E+03  0.91408731237E+02 0.  0.
         11    1    3    3    0    0 -0.42361450171E+03  0.15000184900E+03  0.26847662442E+03  0.52347826948E+03  0.00000000000E+00 0. -1.
        -11    1    3    3    0    0 -0.14801607987E+03  0.17276586689E+02  0.44456141300E+02  0.15551073547E+03  0.00000000000E+00 0.  1.
         22    1    1    2    0    0  0.57163058158E+03 -0.16727843569E+03  0.12866387578E+04  0.14178091867E+04  0.00000000000E+00 0. -1.
<mgrwt>
<rscale>  0 0.13557041E+04</rscale>
<asrwt>0</asrwt>
<pdfrwt beam="1">  1        1 0.28433612E+00 0.13557041E+04</pdfrwt>
<pdfrwt beam="2">  1       -1 0.38248207E-01 0.13557041E+04</pdfrwt>
<totfact> 0.24446810E+01</totfact>
</mgrwt>
</event>
<event>
 6    1  0.1780144E-005  0.5118873E+04  0.7818608E-02  0.7810427E-01
         -2   -1    0    0    0  501 -0.00000000000E+00  0.00000000000E+00  0.23532762726E+04  0.23532762726E+04  0.00000000000E+00 0.  1.
          2   -1    0    0  501    0  0.00000000000E+00 -0.00000000000E+00 -0.27836580184E+04  0.27836580184E+04  0.00000000000E+00 0. -1.
         23    2    1    2    0    0 -0.16934130897E+04  0.17173806511E+04 -0.10723837909E+04  0.26410955905E+04  0.91294742477E+02 0.  0.
         13    1    3    3    0    0 -0.64272537076E+03  0.62876332937E+03 -0.44485373136E+03  0.10031620352E+04  0.00000000000E+00 0.  1.
        -13    1    3    3    0    0 -0.10506877189E+04  0.10886173218E+04 -0.62753005952E+03  0.16379335553E+04  0.00000000000E+00 0. -1.
         22    1    1    2    0    0  0.16934130897E+04 -0.17173806511E+04  0.64200204500E+03  0.24958387005E+04  0.00000000000E+00 0.  1.
<mgrwt>
<rscale>  0 0.51188735E+04</rscale>
<asrwt>0</asrwt>
<pdfrwt beam="1">  1        2 0.42825508E+00 0.51188735E+04</pdfrwt>
<pdfrwt beam="2">  1       -2 0.36204251E+00 0.51188735E+04</pdfrwt>
<totfact> 0.22267172E-02</totfact>
</mgrwt>
</event>
<event>
 6    1  0.1780144E-005  0.2534597E+04  0.7818608E-02  0.8390763E-01
          2   -1    0    0  501    0  0.00000000000E+00  0.00000000000E+00  0.65207315990E+03  0.65207315990E+03  0.00000000000E+00 0. -1.
         -2   -1    0    0    0  501 -0.00000000000E+00 -0.00000000000E+00 -0.24629831703E+04  0.24629831703E+04  0.00000000000E+00 0.  1.
         23    2    1    2    0    0  0.50867903794E+03 -0.37921134168E+03 -0.22525487860E+04  0.23420101392E+04  0.92086118694E+02 0.  0.
         11    1    3    3    0    0  0.27547938693E+03 -0.17154033592E+03 -0.12835506260E+04  0.13239400247E+04  0.00000000000E+00 0. -1.
        -11    1    3    3    0    0  0.23319965101E+03 -0.20767100577E+03 -0.96899815999E+03  0.10180701144E+04  0.00000000000E+00 0.  1.
         22    1    1    2    0    0 -0.50867903794E+03  0.37921134168E+03  0.44163877564E+03  0.77304619102E+03  0.00000000000E+00 0. -1.
<mgrwt>
<rscale>  0 0.25345968E+04</rscale>
<asrwt>0</asrwt>
<pdfrwt beam="1">  1        2 0.10031895E+00 0.25345968E+04</pdfrwt>
<pdfrwt beam="2">  1       -2 0.37892049E+00 0.25345968E+04</pdfrwt>
<totfact> 0.40538614E-01</totfact>
</mgrwt>
</event>
<event>
 6    1  0.1780144E-005  0.9222919E+03  0.7818608E-02  0.9398137E-01
         -3   -1    0    0    0  501 -0.00000000000E+00  0.00000000000E+00  0.91928353324E+03  0.91928353324E+03  0.00000000000E+00 0.  1.
          3   -1    0    0  501    0  0.00000000000E+00 -0.00000000000E+00 -0.23132754208E+03  0.23132754208E+03  0.00000000000E+00 0. -1.
         23    2    1    2    0    0 -0.37373446795E+03 -0.92933828766E+01  0.67427270668E+03  0.77651075218E+03  0.92528081068E+02 0.  0.
         13    1    3    3    0    0 -0.16590531037E+03  0.26486250348E+02  0.36936779104E+03  0.40578154040E+03  0.00000000000E+00 0.  1.
        -13    1    3    3    0    0 -0.20782915758E+03 -0.35779633224E+02  0.30490491563E+03  0.37072921178E+03  0.00000000000E+00 0. -1.
         22    1    1    2    0    0  0.37373446795E+03  0.92933828766E+01  0.13683284482E+02  0.37410032314E+03  0.00000000000E+00 0. -1.
<mgrwt>
<rscale>  0 0.92229193E+03</rscale>
<asrwt>0</asrwt>
<pdfrwt beam="1">  1        3 0.35588853E-01 0.92229193E+03</pdfrwt>
<pdfrwt beam="2">  1       -3 0.14142823E+00 0.92229193E+03</pdfrwt>
<totfact> 0.76994242E+00</totfact>
</mgrwt>
</event>
<event>
 6    1  0.1780144E-005  0.2119586E+04  0.7818608E-02  0.8552664E-01
         -2   -1    0    0    0  501 -0.00000000000E+00  0.00000000000E+00  0.90894762220E+03  0.90894762220E+03  0.00000000000E+00 0. -1.
          2   -1    0    0  501    0  0.00000000000E+00 -0.00000000000E+00 -0.12356718526E+04  0.12356718526E+04  0.00000000000E+00 0.  1.
         23    2    1    2    0    0  0.48509239372E+02 -0.89513562943E+03 -0.73174249393E+03  0.11609219932E+04  0.93122797989E+02 0.  0.
         13    1    3    3    0    0  0.68347857549E+02 -0.47068148864E+03 -0.36299820393E+03  0.59831445699E+03  0.00000000000E+00 0. -1.
        -13    1    3    3    0    0 -0.19838618177E+02 -0.42445414078E+03 -0.36874429000E+03  0.56260753622E+03  0.00000000000E+00 0.  1.
         22    1    1    2    0    0 -0.48509239372E+02  0.89513562943E+03  0.40501826357E+03  0.98369748155E+03  0.00000000000E+00 0. -1.
<mgrwt>
<rscale>  0 0.21195858E+04</rscale>
<asrwt>0</asrwt>
<pdfrwt beam="1">  1        2 0.19010336E+00 0.21195858E+04</pdfrwt>
<pdfrwt beam="2">  1       -2 0.13983810E+00 0.21195858E+04</pdfrwt>
<totfact> 0.59789793E+00</totfact>
</mgrwt>
</event>
<event>
 6    1  0.1780144E-005  0.2262879E+04  0.7818608E-02  0.8492703E-01
          2   -1    0    0  501    0  0.00000000000E+00  0.00000000000E+00  0.24404614205E+04  0.24404614205E+04  0.00000000000E+00 0. -1.
         -2   -1    0    0    0  501 -0.00000000000E+00 -0.00000000000E+00 -0.52455462326E+03  0.52455462326E+03  0.00000000000E+00 0.  1.
         23    2    1    2    0    0  0.14965907731E+03  0.62386471222E+03  0.21775384811E+04  0.22721551944E+04  0.97007073127E+02 0.  0.
         11    1    3    3    0    0  0.88629226115E+02  0.23143850894E+03  0.96052572773E+03  0.99198215547E+03  0.00000000000E+00 0. -1.
        -11    1    3    3    0    0  0.61029851191E+02  0.39242620329E+03  0.12170127533E+04  0.12801730389E+04  0.00000000000E+00 0.  1.
         22    1    1    2    0    0 -0.14965907731E+03 -0.62386471222E+03 -0.26163168385E+03  0.69286084936E+03  0.00000000000E+00 0.  1.
<mgrwt>
<rscale>  0 0.22628790E+04</rscale>
<asrwt>0</asrwt>
<pdfrwt beam="1">  1        2 0.37545560E+00 0.22628790E+04</pdfrwt>
<pdfrwt beam="2">  1       -2 0.80700713E-01 0.22628790E+04</pdfrwt>
<totfact> 0.46443207E+00</totfact>
</mgrwt>
</event>
<event>
 6    1  0.1780144E-005  0.3152224E+04  0.7818608E-02  0.8201550E-01
         -1   -1    0    0    0  501 -0.00000000000E+00  0.00000000000E+00  0.16746319159E+04  0.16746319159E+04  0.00000000000E+00 0.  1.
          1   -1    0    0  501    0  0.00000000000E+00 -0.00000000000E+00 -0.14833885527E+04  0.14833885527E+04  0.00000000000E+00 0. -1.
         23    2    1    2    0    0  0.11104766347E+04  0.11083769812E+04 -0.39591668983E+02  0.15721633815E+04  0.92045147371E+02 0.  0.
         13    1    3    3    0    0  0.59643931240E+03  0.56603448516E+03 -0.61787508092E+02  0.82459237683E+03  0.00000000000E+00 0. -1.
        -13    1    3    3    0    0  0.51403732229E+03  0.54234249600E+03  0.22195839109E+02  0.74757100462E+03  0.00000000000E+00 0.  1.
         22    1    1    2    0    0 -0.11104766347E+04 -0.11083769812E+04  0.23083503221E+03  0.15858570871E+04  0.00000000000E+00 0.  1.
<mgrwt>
<rscale>  0 0.31522245E+04</rscale>
<asrwt>0</asrwt>
<pdfrwt beam="1">  1        1 0.22821362E+00 0.31522245E+04</pdfrwt>
<pdfrwt beam="2">  1       -1 0.25763568E+00 0.31522245E+04</pdfrwt>
<totfact> 0.35081552E-01</totfact>
</mgrwt>
</event>
<event>
 6    1  0.3377425E-005  0.2591338E+04  0.7818608E-02  0.8371149E-01
          2   -1    0    0  501    0  0.00000000000E+00  0.00000000000E+00  0.15350499922E+04  0.15350499922E+04  0.00000000000E+00 0.  1.
         -2   -1    0    0    0  501 -0.00000000000E+00 -0.00000000000E+00 -0.10936180279E+04  0.10936180279E+04  0.00000000000E+00 0. -1.
         23    2    1    2    0    0  0.24055021983E+03 -0.32618626748E+03 -0.10255993872E+04  0.11066815302E+04  0.92887119584E+02 0.  0.
         13    1    3    3    0    0  0.79727103393E+02 -0.16032686377E+03 -0.54031461567E+03  0.56921085563E+03  0.00000000000E+00 0.  1.
        -13    1    3    3    0    0  0.16082311644E+03 -0.16585940371E+03 -0.48528477153E+03  0.53747067460E+03  0.00000000000E+00 0. -1.
         22    1    1    2    0    0 -0.24055021983E+03  0.32618626748E+03  0.14670313514E+04  0.15219864899E+04  0.00000000000E+00 0.  1.
<mgrwt>
<rscale>  0 0.25913381E+04</rscale>
<asrwt>0</asrwt>
<pdfrwt beam="1">  1        2 0.23616154E+00 0.25913381E+04</pdfrwt>
<pdfrwt beam="2">  1       -2 0.16824893E+00 0.25913381E+04</pdfrwt>
<totfact> 0.23555094E+00</totfact>
</mgrwt>
</event>
<event>
 6    1  0.1780144E-005  0.1579024E+04  0.7818608E-02  0.8833539E-01
          2   -1    0    0  501    0  0.00000000000E+00  0.00000000000E+00  0.13361521586E+04  0.13361521586E+04  0.00000000000E+00 0. -1.
         -2   -1    0    0    0  501 -0.00000000000E+00 -0.00000000000E+00 -0.46651092014E+03  0.46651092014E+03  0.00000000000E+00 0.  1.
         23    2    1    2    0    0  0.29560965960E+03  0.26023365702E+03  0.12139370145E+04  0.12795510367E+04  0.92201698146E+02 0.  0.
         13    1    3    3    0    0  0.11890307845E+03  0.14640499416E+03  0.68173969287E+03  0.70734812732E+03  0.00000000000E+00 0.  1.
        -13    1    3    3    0    0  0.17670658115E+03  0.11382866286E+03  0.53219732163E+03  0.57220290934E+03  0.00000000000E+00 0. -1.
         22    1    1    2    0    0 -0.29560965960E+03 -0.26023365702E+03 -0.34429577608E+03  0.52311204204E+03  0.00000000000E+00 0.  1.
<mgrwt>
<rscale>  0 0.15790245E+04</rscale>
<asrwt>0</asrwt>
<pdfrwt beam="1">  1        2 0.20556187E+00 0.15790245E+04</pdfrwt>
<pdfrwt beam="2">  1       -2 0.71770911E-01 0.15790245E+04</pdfrwt>
<totfact> 0.26621825E+01</totfact>
</mgrwt>
</event>
<event>
 6    1  0.1780144E-005  0.4596581E+04  0.7818608E-02  0.7893943E-01
          1   -1    0    0  501    0  0.00000000000E+00  0.00000000000E+00  0.41934499368E+04  0.41934499368E+04  0.00000000000E+00 0. -1.
         -1   -1    0    0    0  501 -0.00000000000E+00 -0.00000000000E+00 -0.12596168731E+04  0.12596168731E+04  0.00000000000E+00 0.  1.
         23    2    1    2    0    0 -0.20363218973E+04  0.21996925010E+03  0.23287001684E+03  0.20633478361E+04  0.90457214023E+02 0.  0.
         13    1    3    3    0    0 -0.64474964550E+03  0.27399367638E+02  0.73378124514E+02  0.64948993824E+03  0.00000000000E+00 0. -1.
        -13    1    3    3    0    0 -0.13915722518E+04  0.19256988246E+03  0.15949189232E+03  0.14138578979E+04  0.00000000000E+00 0.  1.
         22    1    1    2    0    0  0.20363218973E+04 -0.21996925010E+03  0.27009630469E+04  0.33897189738E+04  0.00000000000E+00 0.  1.
<mgrwt>
<rscale>  0 0.45965815E+04</rscale>
<asrwt>0</asrwt>
<pdfrwt beam="1">  1        1 0.64514614E+00 0.45965815E+04</pdfrwt>
<pdfrwt beam="2">  1       -1 0.19378721E+00 0.45965815E+04</pdfrwt>
<totfact> 0.79119337E-03</totfact>
</mgrwt>
</event>
<event>
 6    1  0.1780144E-005  0.9046921E+03  0.7818608E-02  0.9419735E-01
         -2   -1    0    0    0  501 -0.00000000000E+00  0.00000000000E+00  0.30966527640E+03  0.30966527640E+03  0.00000000000E+00 0. -1.
          2   -1    0    0  501    0  0.00000000000E+00 -0.00000000000E+00 -0.66076811024E+03  0.66076811024E+03  0.00000000000E+00 0.  1.
         23    2    1    2    0    0  0.37178768236E+03 -0.21806142272E+03 -0.46836343743E+02  0.44283982922E+03  0.90203139743E+02 0.  0.
         11    1    3    3    0    0  0.29317536083E+03 -0.21128126156E+03 -0.41621142517E+02  0.36376349898E+03  0.00000000000E+00 0. -1.
        -11    1    3    3    0    0  0.78612321529E+02 -0.67801611615E+01 -0.52152012259E+01  0.79076330248E+02  0.00000000000E+00 0.  1.
         22    1    1    2    0    0 -0.37178768236E+03  0.21806142272E+03 -0.30426649010E+03  0.52759355742E+03  0.00000000000E+00 0. -1.
<mgrwt>
<rscale>  0 0.90469208E+03</rscale>
<asrwt>0</asrwt>
<pdfrwt beam="1">  1        2 0.10165663E+00 0.90469208E+03</pdfrwt>
<pdfrwt beam="2">  1       -2 0.47640813E-01 0.90469208E+03</pdfrwt>
<totfact> 0.18446554E+02</totfact>
</mgrwt>
</event>
<event>
 6    1  0.1780144E-005  0.1196410E+04  0.7818608E-02  0.9116005E-01
         -1   -1    0    0    0  501 -0.00000000000E+00  0.00000000000E+00  0.40855662351E+03  0.40855662351E+03  0.00000000000E+00 0.  1.
          1   -1    0    0  501    0  0.00000000000E+00 -0.00000000000E+00 -0.87588636441E+03  0.87588636441E+03  0.00000000000E+00 0. -1.
         23    2    1    2    0    0 -0.18136765148E+02  0.55760474888E+03 -0.13702444580E+02  0.56539519940E+03  0.90730239117E+02 0.  0.
         13    1    3    3    0    0 -0.35713457036E+02  0.47105320309E+03  0.14666059620E+02  0.47263269508E+03  0.00000000000E+00 0. -1.
        -13    1    3    3    0    0  0.17576691888E+02  0.86551545787E+02 -0.28368504201E+02  0.92762504313E+02  0.00000000000E+00 0.  1.
         22    1    1    2    0    0  0.18136765148E+02 -0.55760474888E+03 -0.45362729631E+03  0.71904778852E+03  0.00000000000E+00 0.  1.
<mgrwt>
<rscale>  0 0.11964099E+04</rscale>
<asrwt>0</asrwt>
<pdfrwt beam="1">  1        1 0.13475175E+00 0.11964099E+04</pdfrwt>
<pdfrwt beam="2">  1       -1 0.62854865E-01 0.11964099E+04</pdfrwt>
<totfact> 0.48425992E+01</totfact>
</mgrwt>
</event>
<event>
 6    1  0.1780144E-005  0.9039099E+03  0.7818608E-02  0.9420707E-01
         -2   -1    0    0    0  501 -0.00000000000E+00  0.00000000000E+00  0.27355998031E+03  0.27355998031E+03  0.00000000000E+00 0.  1.
          2   -1    0    0  501    0  0.00000000000E+00 -0.00000000000E+00 -0.74668555220E+03  0.74668555220E+03  0.00000000000E+00 0. -1.
         23    2    1    2    0    0  0.38287528276E+03 -0.13903735024E+02 -0.49949863393E+03  0.63621124446E+03  0.92081845617E+02 0.  0.
         13    1    3    3    0    0  0.26600932679E+03  0.21345081102E+02 -0.38781543936E+03  0.47076256163E+03  0.00000000000E+00 0.  1.
        -13    1    3    3    0    0  0.11686595597E+03 -0.35248816126E+02 -0.11168319457E+03  0.16544868284E+03  0.00000000000E+00 0. -1.
         22    1    1    2    0    0 -0.38287528276E+03  0.13903735024E+02  0.26373062035E+02  0.38403428804E+03  0.00000000000E+00 0.  1.
<mgrwt>
<rscale>  0 0.90390992E+03</rscale>
<asrwt>0</asrwt>
<pdfrwt beam="1">  1        2 0.11487470E+00 0.90390992E+03</pdfrwt>
<pdfrwt beam="2">  1       -2 0.42086150E-01 0.90390992E+03</pdfrwt>
<totfact> 0.20228606E+02</totfact>
</mgrwt>
</event>
<event>
 6    1  0.1780144E-005  0.2701203E+04  0.7818608E-02  0.8334615E-01
          2   -1    0    0  501    0  0.00000000000E+00  0.00000000000E+00  0.18743405562E+04  0.18743405562E+04  0.00000000000E+00 0. -1.
         -2   -1    0    0    0  501 -0.00000000000E+00 -0.00000000000E+00 -0.97320835976E+03  0.97320835976E+03  0.00000000000E+00 0.  1.
         23    2    1    2    0    0 -0.79592716408E+03  0.70816039394E+02  0.15968276359E+04  0.17880645572E+04  0.93815777382E+02 0.  0.
         11    1    3    3    0    0 -0.33775508329E+03 -0.15076085400E+02  0.69606866139E+03  0.77383290574E+03  0.00000000000E+00 0.  1.
        -11    1    3    3    0    0 -0.45817208079E+03  0.85892124794E+02  0.90075897453E+03  0.10142316515E+04  0.00000000000E+00 0. -1.
         22    1    1    2    0    0  0.79592716408E+03 -0.70816039394E+02 -0.69569543944E+03  0.10594843587E+04  0.00000000000E+00 0.  1.
<mgrwt>
<rscale>  0 0.27012026E+04</rscale>
<asrwt>0</asrwt>
<pdfrwt beam="1">  1        2 0.28836008E+00 0.27012026E+04</pdfrwt>
<pdfrwt beam="2">  1       -2 0.14972436E+00 0.27012026E+04</pdfrwt>
<totfact> 0.20726546E+00</totfact>
</mgrwt>
</event>
<event>
 6    1  0.1780144E-005  0.4329358E+04  0.7818608E-02  0.7941212E-01
          1   -1    0    0  501    0  0.00000000000E+00  0.00000000000E+00  0.17447002236E+04  0.17447002236E+04  0.00000000000E+00 0. -1.
         -1   -1    0    0    0  501 -0.00000000000E+00 -0.00000000000E+00 -0.26857540770E+04  0.26857540770E+04  0.00000000000E+00 0.  1.
         23    2    1    2    0    0 -0.16686579802E+04 -0.95287083867E+02 -0.18769709940E+04  0.25148760649E+04  0.89902315827E+02 0.  0.
         13    1    3    3    0    0 -0.10087722108E+04 -0.16064809853E+02 -0.11094607539E+04  0.14995941504E+04  0.00000000000E+00 0.  1.
        -13    1    3    3    0    0 -0.65988576939E+03 -0.79222274015E+02 -0.76751024007E+03  0.10152819145E+04  0.00000000000E+00 0. -1.
         22    1    1    2    0    0  0.16686579802E+04  0.95287083867E+02  0.93591714057E+03  0.19155782357E+04  0.00000000000E+00 0. -1.
<mgrwt>
<rscale>  0 0.43293583E+04</rscale>
<asrwt>0</asrwt>
<pdfrwt beam="1">  1        1 0.26841542E+00 0.43293583E+04</pdfrwt>
<pdfrwt beam="2">  1       -1 0.41319294E+00 0.43293583E+04</pdfrwt>
<totfact> 0.19656648E-02</totfact>
</mgrwt>
</event>
<event>
 6    1  0.1780144E-005  0.1859194E+04  0.7818608E-02  0.8675439E-01
          2   -1    0    0  501    0  0.00000000000E+00  0.00000000000E+00  0.21814887548E+04  0.21814887548E+04  0.00000000000E+00 0. -1.
         -2   -1    0    0    0  501 -0.00000000000E+00 -0.00000000000E+00 -0.39612891810E+03  0.39612891810E+03  0.00000000000E+00 0.  1.
         23    2    1    2    0    0  0.86402797361E+03  0.23543845036E+03  0.12290434379E+04  0.15233579617E+04  0.89978353381E+02 0.  0.
         13    1    3    3    0    0  0.11538684890E+03  0.60127486998E+02  0.15318017212E+03  0.20098160294E+03  0.00000000000E+00 0.  1.
        -13    1    3    3    0    0  0.74864112471E+03  0.17531096336E+03  0.10758632658E+04  0.13223763588E+04  0.00000000000E+00 0. -1.
         22    1    1    2    0    0 -0.86402797361E+03 -0.23543845036E+03  0.55631639878E+03  0.10542597112E+04  0.00000000000E+00 0.  1.
<mgrwt>
<rscale>  0 0.18591942E+04</rscale>
<asrwt>0</asrwt>
<pdfrwt beam="1">  1        2 0.33561365E+00 0.18591942E+04</pdfrwt>
<pdfrwt beam="2">  1       -2 0.60942912E-01 0.18591942E+04</pdfrwt>
<totfact> 0.12454736E+01</totfact>
</mgrwt>
</event>
<event>
 6    1  0.1780144E-005  0.6416152E+03  0.7818608E-02  0.9822641E-01
         -2   -1    0    0    0  501 -0.00000000000E+00  0.00000000000E+00  0.38678682267E+03  0.38678682267E+03  0.00000000000E+00 0.  1.
          2   -1    0    0  501    0  0.00000000000E+00 -0.00000000000E+00 -0.26608329633E+03  0.26608329633E+03  0.00000000000E+00 0. -1.
         23    2    1    2    0    0  0.18839474488E+03 -0.18924478296E+03  0.22983382076E+03  0.36439899577E+03  0.93042329997E+02 0.  0.
         13    1    3    3    0    0  0.37158590663E+02 -0.61402612896E+02  0.17141740817E+02  0.73789436973E+02  0.00000000000E+00 0. -1.
        -13    1    3    3    0    0  0.15123615422E+03 -0.12784217007E+03  0.21269207995E+03  0.29060955879E+03  0.00000000000E+00 0.  1.
         22    1    1    2    0    0 -0.18839474488E+03  0.18924478296E+03 -0.10913029443E+03  0.28847112323E+03  0.00000000000E+00 0. -1.
<mgrwt>
<rscale>  0 0.64161519E+03</rscale>
<asrwt>0</asrwt>
<pdfrwt beam="1">  1        2 0.40935892E-01 0.64161519E+03</pdfrwt>
<pdfrwt beam="2">  1       -2 0.59505665E-01 0.64161519E+03</pdfrwt>
<totfact> 0.33410523E+02</totfact>
</mgrwt>
</event>
<event>
 6    1  0.1780144E-005  0.2255535E+04  0.7818608E-02  0.8495662E-01
          2   -1    0    0  501    0  0.00000000000E+00  0.00000000000E+00  0.15143606405E+04  0.15143606405E+04  0.00000000000E+00 0. -1.
         -2   -1    0    0    0  501 -0.00000000000E+00 -0.00000000000E+00 -0.83986594262E+03  0.83986594262E+03  0.00000000000E+00 0.  1.
         23    2    1    2    0    0  0.10306214598E+04 -0.97731136080E+02 -0.12281739277E+03  0.10475366665E+04  0.10255236419E+03 0.  0.
         13    1    3    3    0    0  0.39488778644E+03 -0.80465654129E+02 -0.21761513229E+02  0.40358970357E+03  0.00000000000E+00 0. -1.
        -13    1    3    3    0    0  0.63573367333E+03 -0.17265481951E+02 -0.10105587955E+03  0.64394696293E+03  0.00000000000E+00 0.  1.
         22    1    1    2    0    0 -0.10306214598E+04  0.97731136080E+02  0.79731209063E+03  0.13066899166E+04  0.00000000000E+00 0.  1.
<mgrwt>
<rscale>  0 0.22555353E+04</rscale>
<asrwt>0</asrwt>
<pdfrwt beam="1">  1        2 0.23297856E+00 0.22555353E+04</pdfrwt>
<pdfrwt beam="2">  1       -2 0.12921015E+00 0.22555353E+04</pdfrwt>
<totfact> 0.50008953E+00</totfact>
</mgrwt>
</event>
<event>
 6    1  0.1780144E-005  0.1568600E+04  0.7818608E-02  0.8840074E-01
          1   -1    0    0  501    0  0.00000000000E+00  0.00000000000E+00  0.10728174914E+04  0.10728174914E+04  0.00000000000E+00 0. -1.
         -1   -1    0    0    0  501 -0.00000000000E+00 -0.00000000000E+00 -0.57337460076E+03  0.57337460076E+03  0.00000000000E+00 0.  1.
         23    2    1    2    0    0 -0.70750594246E+03 -0.28850395252E+02  0.59826924821E+03  0.93123499358E+03  0.88744103893E+02 0.  0.
         11    1    3    3    0    0 -0.62805661538E+03  0.23709152434E+01  0.51924283466E+03  0.81490726755E+03  0.00000000000E+00 0.  1.
        -11    1    3    3    0    0 -0.79449327084E+02 -0.31221310496E+02  0.79026413557E+02  0.11632772603E+03  0.00000000000E+00 0. -1.
         22    1    1    2    0    0  0.70750594246E+03  0.28850395252E+02 -0.98826357537E+02  0.71495709862E+03  0.00000000000E+00 0.  1.
<mgrwt>
<rscale>  0 0.15685998E+04</rscale>
<asrwt>0</asrwt>
<pdfrwt beam="1">  1        1 0.16504884E+00 0.15685998E+04</pdfrwt>
<pdfrwt beam="2">  1       -1 0.88211477E-01 0.15685998E+04</pdfrwt>
<totfact> 0.16150272E+01</totfact>
</mgrwt>
</event>
<event>
 6    1  0.1780144E-005  0.4138818E+04  0.7818608E-02  0.7977113E-01
          2   -1    0    0  501    0  0.00000000000E+00  0.00000000000E+00  0.27057846316E+04  0.27057846316E+04  0.00000000000E+00 0.  1.
         -2   -1    0    0    0  501 -0.00000000000E+00 -0.00000000000E+00 -0.15827033454E+04  0.15827033454E+04  0.00000000000E+00 0. -1.
         23    2    1    2    0    0 -0.11532485845E+04 -0.96865113014E+01  0.23409093889E+04  0.26112338478E+04  0.92786393559E+02 0.  0.
         13    1    3    3    0    0 -0.54508844581E+03 -0.49535739918E+02  0.11328540680E+04  0.12581468685E+04  0.00000000000E+00 0.  1.
        -13    1    3    3    0    0 -0.60816013866E+03  0.39849228617E+02  0.12080553209E+04  0.13530869793E+04  0.00000000000E+00 0. -1.
         22    1    1    2    0    0  0.11532485845E+04  0.96865113014E+01 -0.12178281027E+04  0.16772541291E+04  0.00000000000E+00 0. -1.
<mgrwt>
<rscale>  0 0.41388184E+04</rscale>
<asrwt>0</asrwt>
<pdfrwt beam="1">  1        2 0.41627456E+00 0.41388184E+04</pdfrwt>
<pdfrwt beam="2">  1       -2 0.24349282E+00 0.41388184E+04</pdfrwt>
<totfact> 0.14482861E-01</totfact>
</mgrwt>
</event>
<event>
 6    1  0.2097431E-005  0.1990220E+04  0.7818608E-02  0.8611207E-01
         -1   -1    0    0    0  501 -0.00000000000E+00  0.00000000000E+00  0.68855506330E+03  0.68855506330E+03  0.00000000000E+00 0.  1.
          1   -1    0    0  501    0  0.00000000000E+00 -0.00000000000E+00 -0.14381472549E+04  0.14381472549E+04  0.00000000000E+00 0. -1.
         23    2    1    2    0    0 -0.37243342819E+01 -0.97597974552E+03 -0.17984713571E+03  0.99658738467E+03  0.91055415687E+02 0.  0.
         13    1    3    3    0    0 -0.14545638965E+02 -0.33651389272E+03 -0.20353157230E+02  0.33744247897E+03  0.00000000000E+00 0. -1.
        -13    1    3    3    0    0  0.10821304683E+02 -0.63946585281E+03 -0.15949397848E+03  0.65914490570E+03  0.00000000000E+00 0.  1.
         22    1    1    2    0    0  0.37243342819E+01  0.97597974552E+03 -0.56974505593E+03  0.11301149336E+04  0.00000000000E+00 0.  1.
<mgrwt>
<rscale>  0 0.19902197E+04</rscale>
<asrwt>0</asrwt>
<pdfrwt beam="1">  1        1 0.22125342E+00 0.19902197E+04</pdfrwt>
<pdfrwt beam="2">  1       -1 0.10593155E+00 0.19902197E+04</pdfrwt>
<totfact> 0.55933291E+00</totfact>
</mgrwt>
</event>
<event>
 6    1  0.1780144E-005  0.4130677E+04  0.7818608E-02  0.7978692E-01
         -1   -1    0    0    0  501 -0.00000000000E+00  0.00000000000E+00  0.21791552451E+04  0.21791552451E+04  0.00000000000E+00 0.  1.
          1   -1    0    0  501    0  0.00000000000E+00 -0.00000000000E+00 -0.19574661907E+04  0.19574661907E+04  0.00000000000E+00 0. -1.
         23    2    1    2    0    0 -0.48001367494E+03 -0.63203370752E+03  0.20192460148E+04  0.21716555936E+04  0.94094705321E+02 0.  0.
         13    1    3    3    0    0 -0.31049141988E+03 -0.39296230062E+03  0.11496653926E+04  0.12540154730E+04  0.00000000000E+00 0. -1.
        -13    1    3    3    0    0 -0.16952225506E+03 -0.23907140690E+03  0.86958062218E+03  0.91764012065E+03  0.00000000000E+00 0.  1.
         22    1    1    2    0    0  0.48001367494E+03  0.63203370752E+03 -0.17975569603E+04  0.19649658422E+04  0.00000000000E+00 0. -1.
<mgrwt>
<rscale>  0 0.41306768E+04</rscale>
<asrwt>0</asrwt>
<pdfrwt beam="1">  1        1 0.30114864E+00 0.41306768E+04</pdfrwt>
<pdfrwt beam="2">  1       -1 0.33525465E+00 0.41306768E+04</pdfrwt>
<totfact> 0.47942198E-02</totfact>
</mgrwt>
</event>
<event>
 6    1  0.1780144E-005  0.6485299E+03  0.7818608E-02  0.9809542E-01
         -1   -1    0    0    0  501 -0.00000000000E+00  0.00000000000E+00  0.15436083712E+03  0.15436083712E+03  0.00000000000E+00 0.  1.
          1   -1    0    0  501    0  0.00000000000E+00 -0.00000000000E+00 -0.68118153501E+03  0.68118153501E+03  0.00000000000E+00 0. -1.
         23    2    1    2    0    0 -0.18764573178E+03  0.22734974507E+03 -0.42194516745E+03  0.52265628403E+03  0.90736099030E+02 0.  0.
         13    1    3    3    0    0 -0.16410836127E+03  0.14241870260E+03 -0.33154398169E+03  0.39640390120E+03  0.00000000000E+00 0.  1.
        -13    1    3    3    0    0 -0.23537370511E+02  0.84931042467E+02 -0.90401185761E+02  0.12625238284E+03  0.00000000000E+00 0. -1.
         22    1    1    2    0    0  0.18764573178E+03 -0.22734974507E+03 -0.10487553044E+03  0.31288608810E+03  0.00000000000E+00 0.  1.
<mgrwt>
<rscale>  0 0.64852988E+03</rscale>
<asrwt>0</asrwt>
<pdfrwt beam="1">  1        1 0.10479716E+00 0.64852988E+03</pdfrwt>
<pdfrwt beam="2">  1       -1 0.23747822E-01 0.64852988E+03</pdfrwt>
<totfact> 0.43898143E+02</totfact>
</mgrwt>
</event>
<event>
 6    1  0.1780144E-005  0.2249855E+04  0.7818608E-02  0.8497959E-01
         -2   -1    0    0    0  501 -0.00000000000E+00  0.00000000000E+00  0.77771571639E+03  0.77771571639E+03  0.00000000000E+00 0.  1.
          2   -1    0    0  501    0  0.00000000000E+00 -0.00000000000E+00 -0.16271517153E+04  0.16271517153E+04  0.00000000000E+00 0. -1.
         23    2    1    2    0    0  0.53944464845E+03  0.51743842112E+03 -0.13223449429E+04  0.15203416165E+04  0.64026826124E+02 0.  0.
         11    1    3    3    0    0  0.33611007639E+03  0.35097343259E+03 -0.90316429435E+03  0.10256013243E+04  0.00000000000E+00 0.  1.
        -11    1    3    3    0    0  0.20333457206E+03  0.16646498853E+03 -0.41918064854E+03  0.49474029218E+03  0.00000000000E+00 0. -1.
         22    1    1    2    0    0 -0.53944464845E+03 -0.51743842112E+03  0.47290894400E+03  0.88452581517E+03  0.00000000000E+00 0.  1.
<mgrwt>
<rscale>  0 0.22498546E+04</rscale>
<asrwt>0</asrwt>
<pdfrwt beam="1">  1        2 0.25033103E+00 0.22498546E+04</pdfrwt>
<pdfrwt beam="2">  1       -2 0.11964857E+00 0.22498546E+04</pdfrwt>
<totfact> 0.52442112E+00</totfact>
</mgrwt>
</event>
<event>
 6    1  0.1780144E-005  0.2131552E+04  0.7818608E-02  0.8547470E-01
          2   -1    0    0  501    0  0.00000000000E+00  0.00000000000E+00  0.27595847077E+04  0.27595847077E+04  0.00000000000E+00 0. -1.
         -2   -1    0    0    0  501 -0.00000000000E+00 -0.00000000000E+00 -0.41161227508E+03  0.41161227508E+03  0.00000000000E+00 0.  1.
         23    2    1    2    0    0  0.68572639434E+03  0.81319773926E+03  0.11518598501E+04  0.15705107046E+04  0.90617371557E+02 0.  0.
         11    1    3    3    0    0  0.44177896892E+03  0.45729444711E+03  0.70313905587E+03  0.94799335474E+03  0.00000000000E+00 0.  1.
        -11    1    3    3    0    0  0.24394742541E+03  0.35590329215E+03  0.44872079423E+03  0.62251734988E+03  0.00000000000E+00 0. -1.
         22    1    1    2    0    0 -0.68572639434E+03 -0.81319773926E+03  0.11961125825E+04  0.16006862781E+04  0.00000000000E+00 0. -1.
<mgrwt>
<rscale>  0 0.21315524E+04</rscale>
<asrwt>0</asrwt>
<pdfrwt beam="1">  1        2 0.42455148E+00 0.21315524E+04</pdfrwt>
<pdfrwt beam="2">  1       -2 0.63324967E-01 0.21315524E+04</pdfrwt>
<totfact> 0.51956036E+00</totfact>
</mgrwt>
</event>
<event>
 6    1  0.1780144E-005  0.2316214E+04  0.7818608E-02  0.8471555E-01
         -1   -1    0    0    0  501 -0.00000000000E+00  0.00000000000E+00  0.83869426671E+03  0.83869426671E+03  0.00000000000E+00 0.  1.
          1   -1    0    0  501    0  0.00000000000E+00 -0.00000000000E+00 -0.15991671981E+04  0.15991671981E+04  0.00000000000E+00 0. -1.
         23    2    1    2    0    0 -0.53141703407E+03 -0.10243911253E+04 -0.45877564836E+03  0.12450486160E+04  0.88824090880E+02 0.  0.
         13    1    3    3    0    0 -0.13031615172E+03 -0.29966542935E+03 -0.16592324018E+03  0.36648627611E+03  0.00000000000E+00 0.  1.
        -13    1    3    3    0    0 -0.40110088234E+03 -0.72472569593E+03 -0.29285240818E+03  0.87856233993E+03  0.00000000000E+00 0. -1.
         22    1    1    2    0    0  0.53141703407E+03  0.10243911253E+04 -0.30169728305E+03  0.11928128488E+04  0.00000000000E+00 0.  1.
<mgrwt>
<rscale>  0 0.23162145E+04</rscale>
<asrwt>0</asrwt>
<pdfrwt beam="1">  1        1 0.24602572E+00 0.23162145E+04</pdfrwt>
<pdfrwt beam="2">  1       -1 0.12902989E+00 0.23162145E+04</pdfrwt>
<totfact> 0.26065277E+00</totfact>
</mgrwt>
</event>
<event>
 6    1  0.1780144E-005  0.1342337E+04  0.7818608E-02  0.8996649E-01
         -2   -1    0    0    0  501 -0.00000000000E+00  0.00000000000E+00  0.30641243146E+03  0.30641243146E+03  0.00000000000E+00 0. -1.
          2   -1    0    0  501    0  0.00000000000E+00 -0.00000000000E+00 -0.14701338046E+04  0.14701338046E+04  0.00000000000E+00 0.  1.
         23    2    1    2    0    0 -0.24040307809E+03  0.31230094217E+03 -0.12983969508E+04  0.13600573050E+04  0.92713066210E+02 0.  0.
         13    1    3    3    0    0 -0.42794406173E+02  0.11013001277E+03 -0.30068241138E+03  0.32306329632E+03  0.00000000000E+00 0.  1.
        -13    1    3    3    0    0 -0.19760867192E+03  0.20217092940E+03 -0.99771453945E+03  0.10369940087E+04  0.00000000000E+00 0. -1.
         22    1    1    2    0    0  0.24040307809E+03 -0.31230094217E+03  0.13467557768E+03  0.41648893102E+03  0.00000000000E+00 0. -1.
<mgrwt>
<rscale>  0 0.13423372E+04</rscale>
<asrwt>0</asrwt>
<pdfrwt beam="1">  1        2 0.22617443E+00 0.13423372E+04</pdfrwt>
<pdfrwt beam="2">  1       -2 0.47140374E-01 0.13423372E+04</pdfrwt>
<totfact> 0.54998271E+01</totfact>
</mgrwt>
</event>
<event>
 6    1  0.1780144E-005  0.1851108E+04  0.7818608E-02  0.8679583E-01
          1   -1    0    0  501    0  0.00000000000E+00  0.00000000000E+00  0.13554850210E+04  0.13554850210E+04  0.00000000000E+00 0. -1.
         -1   -1    0    0    0  501 -0.00000000000E+00 -0.00000000000E+00 -0.63198803123E+03  0.63198803123E+03  0.00000000000E+00 0.  1.
         23    2    1    2    0    0 -0.34842049920E+03  0.13593430262E+03  0.12690770983E+04  0.13260105561E+04  0.88726178457E+02 0.  0.
         13    1    3    3    0    0 -0.10114211303E+03  0.48749211775E+02  0.25573489027E+03  0.27929652125E+03  0.00000000000E+00 0. -1.
        -13    1    3    3    0    0 -0.24727838617E+03  0.87185090843E+02  0.10133422080E+04  0.10467140349E+04  0.00000000000E+00 0.  1.
         22    1    1    2    0    0  0.34842049920E+03 -0.13593430262E+03 -0.54558010853E+03  0.66146249607E+03  0.00000000000E+00 0.  1.
<mgrwt>
<rscale>  0 0.18511081E+04</rscale>
<asrwt>0</asrwt>
<pdfrwt beam="1">  1        1 0.20853616E+00 0.18511081E+04</pdfrwt>
<pdfrwt beam="2">  1       -1 0.97228928E-01 0.18511081E+04</pdfrwt>
<totfact> 0.78849147E+00</totfact>
</mgrwt>
</event>
<event>
 6    1  0.1780144E-005  0.2852242E+04  0.7818608E-02  0.8287230E-01
          2   -1    0    0  501    0  0.00000000000E+00  0.00000000000E+00  0.21251422224E+04  0.21251422224E+04  0.00000000000E+00 0. -1.
         -2   -1    0    0    0  501 -0.00000000000E+00 -0.00000000000E+00 -0.95702833429E+03  0.95702833429E+03  0.00000000000E+00 0.  1.
         23    2    1    2    0    0 -0.12138250550E+04 -0.24986350758E+03 -0.17443245917E+03  0.12550871620E+04  0.94942428453E+02 0.  0.
         11    1    3    3    0    0 -0.31442907931E+03 -0.23972571796E+02 -0.33643878705E+02  0.31713126728E+03  0.00000000000E+00 0.  1.
        -11    1    3    3    0    0 -0.89939597572E+03 -0.22589093578E+03 -0.14078858047E+03  0.93795589469E+03  0.00000000000E+00 0. -1.
         22    1    1    2    0    0  0.12138250550E+04  0.24986350758E+03  0.13425463472E+04  0.18270833947E+04  0.00000000000E+00 0. -1.
<mgrwt>
<rscale>  0 0.28522422E+04</rscale>
<asrwt>0</asrwt>
<pdfrwt beam="1">  1        2 0.32694496E+00 0.28522422E+04</pdfrwt>
<pdfrwt beam="2">  1       -2 0.14723513E+00 0.28522422E+04</pdfrwt>
<totfact> 0.15513033E+00</totfact>
</mgrwt>
</event>
<event>
 6    1  0.1780144E-005  0.3394483E+04  0.7818608E-02  0.8139262E-01
          1   -1    0    0  501    0  0.00000000000E+00  0.00000000000E+00  0.21372426976E+04  0.21372426976E+04  0.00000000000E+00 0. -1.
         -1   -1    0    0    0  501 -0.00000000000E+00 -0.00000000000E+00 -0.13478250499E+04  0.13478250499E+04  0.00000000000E+00 0.  1.
         23    2    1    2    0    0 -0.18604602260E+03 -0.15487241029E+04 -0.28860416353E+03  0.15889426211E+04  0.91031975632E+02 0.  0.
         11    1    3    3    0    0 -0.76698151915E+02 -0.95048385109E+03 -0.20078862624E+03  0.97448357098E+03  0.00000000000E+00 0. -1.
        -11    1    3    3    0    0 -0.10934787068E+03 -0.59824025177E+03 -0.87815537287E+02  0.61445905010E+03  0.00000000000E+00 0.  1.
         22    1    1    2    0    0  0.18604602260E+03  0.15487241029E+04  0.10780218113E+04  0.18961251264E+04  0.00000000000E+00 0.  1.
<mgrwt>
<rscale>  0 0.33944833E+04</rscale>
<asrwt>0</asrwt>
<pdfrwt beam="1">  1        1 0.32880657E+00 0.33944833E+04</pdfrwt>
<pdfrwt beam="2">  1       -1 0.20735770E+00 0.33944833E+04</pdfrwt>
<totfact> 0.26513713E-01</totfact>
</mgrwt>
</event>
<event>
 6    1  0.1956688E-005  0.5154767E+04  0.7818608E-02  0.7805067E-01
         -2   -1    0    0    0  501 -0.00000000000E+00  0.00000000000E+00  0.46674841651E+04  0.46674841651E+04  0.00000000000E+00 0.  1.
          2   -1    0    0  501    0  0.00000000000E+00 -0.00000000000E+00 -0.14232302394E+04  0.14232302394E+04  0.00000000000E+00 0. -1.
         23    2    1    2    0    0 -0.13439050568E+04  0.12761932068E+04  0.37375940737E+04  0.41728681113E+04  0.92026692137E+02 0.  0.
         11    1    3    3    0    0 -0.54944141228E+03  0.52561252078E+03  0.16358587287E+04  0.18039368525E+04  0.00000000000E+00 0. -1.
        -11    1    3    3    0    0 -0.79446364447E+03  0.75058068601E+03  0.21017353450E+04  0.23689312588E+04  0.00000000000E+00 0.  1.
         22    1    1    2    0    0  0.13439050568E+04 -0.12761932068E+04 -0.49334014806E+03  0.19178462932E+04  0.00000000000E+00 0. -1.
<mgrwt>
<rscale>  0 0.51547666E+04</rscale>
<asrwt>0</asrwt>
<pdfrwt beam="1">  1        2 0.21895850E+00 0.51547666E+04</pdfrwt>
<pdfrwt beam="2">  1       -2 0.71807448E+00 0.51547666E+04</pdfrwt>
<totfact> 0.19861032E-03</totfact>
</mgrwt>
</event>
<event>
 6    1  0.1780144E-005  0.1989161E+04  0.7818608E-02  0.8611705E-01
          1   -1    0    0  501    0  0.00000000000E+00  0.00000000000E+00  0.84651663961E+03  0.84651663961E+03  0.00000000000E+00 0. -1.
         -1   -1    0    0    0  501 -0.00000000000E+00 -0.00000000000E+00 -0.11685421808E+04  0.11685421808E+04  0.00000000000E+00 0.  1.
         23    2    1    2    0    0  0.57229003866E+03 -0.78045271952E+03 -0.38496449607E+03  0.10452219023E+04  0.87571833692E+02 0.  0.
         11    1    3    3    0    0  0.14534808587E+03 -0.16239128550E+03 -0.11922204955E+03  0.24841677232E+03  0.00000000000E+00 0. -1.
        -11    1    3    3    0    0  0.42694195279E+03 -0.61806143402E+03 -0.26574244652E+03  0.79680512997E+03  0.00000000000E+00 0.  1.
         22    1    1    2    0    0 -0.57229003866E+03  0.78045271952E+03  0.62938954842E+02  0.96983691814E+03  0.00000000000E+00 0. -1.
<mgrwt>
<rscale>  0 0.19891610E+04</rscale>
<asrwt>0</asrwt>
<pdfrwt beam="1">  1        1 0.13023333E+00 0.19891610E+04</pdfrwt>
<pdfrwt beam="2">  1       -1 0.17977572E+00 0.19891610E+04</pdfrwt>
<totfact> 0.39107232E+00</totfact>
</mgrwt>
</event>
<event>
 6    1  0.1780144E-005  0.6905789E+03  0.7818608E-02  0.9733481E-01
          2   -1    0    0  501    0  0.00000000000E+00  0.00000000000E+00  0.18517281524E+04  0.18517281524E+04  0.00000000000E+00 0. -1.
         -2   -1    0    0    0  501 -0.00000000000E+00 -0.00000000000E+00 -0.64385688855E+02  0.64385688855E+02  0.00000000000E+00 0.  1.
         23    2    1    2    0    0 -0.75425136530E+02 -0.32684970204E+03  0.76562129241E+03  0.84073770683E+03  0.90245494936E+02 0.  0.
         11    1    3    3    0    0 -0.94426334428E+02 -0.29488060790E+03  0.66794398489E+03  0.73622012503E+03  0.00000000000E+00 0.  1.
        -11    1    3    3    0    0  0.19001197898E+02 -0.31969094139E+02  0.97677307515E+02  0.10451758180E+03  0.00000000000E+00 0. -1.
         22    1    1    2    0    0  0.75425136530E+02  0.32684970204E+03  0.10217211712E+04  0.10753761344E+04  0.00000000000E+00 0.  1.
<mgrwt>
<rscale>  0 0.69057887E+03</rscale>
<asrwt>0</asrwt>
<pdfrwt beam="1">  1        2 0.28488121E+00 0.69057887E+03</pdfrwt>
<pdfrwt beam="2">  1       -2 0.99054920E-02 0.69057887E+03</pdfrwt>
<totfact> 0.57641223E+02</totfact>
</mgrwt>
</event>
<event>
 6    1  0.1780144E-005  0.2525489E+04  0.7818608E-02  0.8393961E-01
         -2   -1    0    0    0  501 -0.00000000000E+00  0.00000000000E+00  0.18473695094E+04  0.18473695094E+04  0.00000000000E+00 0.  1.
          2   -1    0    0  501    0  0.00000000000E+00 -0.00000000000E+00 -0.86313183791E+03  0.86313183791E+03  0.00000000000E+00 0. -1.
         23    2    1    2    0    0  0.10903323019E+04  0.47300108435E+03  0.94547112650E+03  0.15213598926E+04  0.89809339736E+02 0.  0.
         11    1    3    3    0    0  0.48026344293E+03  0.25049367086E+03  0.40136700823E+03  0.67416283571E+03  0.00000000000E+00 0. -1.
        -11    1    3    3    0    0  0.61006885896E+03  0.22250741350E+03  0.54410411827E+03  0.84719705691E+03  0.00000000000E+00 0.  1.
         22    1    1    2    0    0 -0.10903323019E+04 -0.47300108435E+03  0.38766545034E+02  0.11891414547E+04  0.00000000000E+00 0.  1.
<mgrwt>
<rscale>  0 0.25254888E+04</rscale>
<asrwt>0</asrwt>
<pdfrwt beam="1">  1        2 0.13278951E+00 0.25254888E+04</pdfrwt>
<pdfrwt beam="2">  1       -2 0.28421069E+00 0.25254888E+04</pdfrwt>
<totfact> 0.10979608E+00</totfact>
</mgrwt>
</event>
<event>
 6    1  0.1780144E-005  0.2629712E+04  0.7818608E-02  0.8358178E-01
          2   -1    0    0  501    0  0.00000000000E+00  0.00000000000E+00  0.10364913265E+04  0.10364913265E+04  0.00000000000E+00 0. -1.
         -2   -1    0    0    0  501 -0.00000000000E+00 -0.00000000000E+00 -0.16679788994E+04  0.16679788994E+04  0.00000000000E+00 0.  1.
         23    2    1    2    0    0  0.28301959043E+03  0.47526967105E+03  0.90879903921E+03  0.10678688095E+04  0.91906211771E+02 0.  0.
         11    1    3    3    0    0  0.78951219464E+02  0.17979217291E+03  0.39371076555E+03  0.43996214315E+03  0.00000000000E+00 0.  1.
        -11    1    3    3    0    0  0.20406837097E+03  0.29547749814E+03  0.51508827366E+03  0.62790666631E+03  0.00000000000E+00 0. -1.
         22    1    1    2    0    0 -0.28301959043E+03 -0.47526967105E+03 -0.15402866122E+04  0.16366014165E+04  0.00000000000E+00 0.  1.
<mgrwt>
<rscale>  0 0.26297115E+04</rscale>
<asrwt>0</asrwt>
<pdfrwt beam="1">  1        2 0.15946021E+00 0.26297115E+04</pdfrwt>
<pdfrwt beam="2">  1       -2 0.25661214E+00 0.26297115E+04</pdfrwt>
<totfact> 0.12327336E+00</totfact>
</mgrwt>
</event>
<event>
 6    1  0.1780144E-005  0.1299171E+04  0.7818608E-02  0.9030222E-01
         -2   -1    0    0    0  501 -0.00000000000E+00  0.00000000000E+00  0.60109647977E+03  0.60109647977E+03  0.00000000000E+00 0.  1.
          2   -1    0    0  501    0  0.00000000000E+00 -0.00000000000E+00 -0.70198649286E+03  0.70198649286E+03  0.00000000000E+00 0. -1.
         23    2    1    2    0    0  0.35066387147E+03 -0.29457741986E+03 -0.50828078542E+03  0.69013252731E+03  0.90512658661E+02 0.  0.
         13    1    3    3    0    0  0.10841556346E+03 -0.14863241761E+03 -0.19553928900E+03  0.26847931673E+03  0.00000000000E+00 0. -1.
        -13    1    3    3    0    0  0.24224830801E+03 -0.14594500224E+03 -0.31274149642E+03  0.42165321058E+03  0.00000000000E+00 0.  1.
         22    1    1    2    0    0 -0.35066387147E+03  0.29457741986E+03  0.40739077233E+03  0.61295044532E+03  0.00000000000E+00 0.  1.
<mgrwt>
<rscale>  0 0.12991714E+04</rscale>
<asrwt>0</asrwt>
<pdfrwt beam="1">  1        2 0.10799792E+00 0.12991714E+04</pdfrwt>
<pdfrwt beam="2">  1       -2 0.92476381E-01 0.12991714E+04</pdfrwt>
<totfact> 0.39728633E+01</totfact>
</mgrwt>
</event>
<event>
 6    1  0.1780144E-005  0.3327236E+04  0.7818608E-02  0.8156000E-01
          2   -1    0    0  501    0  0.00000000000E+00  0.00000000000E+00  0.22779052584E+04  0.22779052584E+04  0.00000000000E+00 0.  1.
         -2   -1    0    0    0  501 -0.00000000000E+00 -0.00000000000E+00 -0.12149866688E+04  0.12149866688E+04  0.00000000000E+00 0. -1.
         23    2    1    2    0    0  0.31023287441E+03  0.11709626006E+04  0.17269817203E+04  0.21114514869E+04  0.91453106970E+02 0.  0.
         11    1    3    3    0    0  0.23180962124E+03  0.77400190495E+03  0.12096582285E+04  0.14546778609E+04  0.00000000000E+00 0.  1.
        -11    1    3    3    0    0  0.78423253168E+02  0.39696069569E+03  0.51732349183E+03  0.65677362596E+03  0.00000000000E+00 0. -1.
         22    1    1    2    0    0 -0.31023287441E+03 -0.11709626006E+04 -0.66406313076E+03  0.13814404403E+04  0.00000000000E+00 0. -1.
<mgrwt>
<rscale>  0 0.33272358E+04</rscale>
<asrwt>0</asrwt>
<pdfrwt beam="1">  1        2 0.35044696E+00 0.33272358E+04</pdfrwt>
<pdfrwt beam="2">  1       -2 0.18692103E+00 0.33272358E+04</pdfrwt>
<totfact> 0.63226607E-01</totfact>
</mgrwt>
</event>
<event>
 6    1  0.1780144E-005  0.1742429E+04  0.7818608E-02  0.8737529E-01
         -2   -1    0    0    0  501 -0.00000000000E+00  0.00000000000E+00  0.56657729463E+03  0.56657729463E+03  0.00000000000E+00 0.  1.
          2   -1    0    0  501    0  0.00000000000E+00 -0.00000000000E+00 -0.13396494746E+04  0.13396494746E+04  0.00000000000E+00 0. -1.
         23    2    1    2    0    0 -0.55209033639E+03 -0.43400883607E+03 -0.94769380093E+03  0.11825831278E+04  0.84922932407E+02 0.  0.
         11    1    3    3    0    0 -0.40918318234E+03 -0.27290311565E+03 -0.67129119169E+03  0.83218919201E+03  0.00000000000E+00 0. -1.
        -11    1    3    3    0    0 -0.14290715404E+03 -0.16110572042E+03 -0.27640260923E+03  0.35039393576E+03  0.00000000000E+00 0.  1.
         22    1    1    2    0    0  0.55209033639E+03  0.43400883607E+03  0.17462162096E+03  0.72364364146E+03  0.00000000000E+00 0.  1.
<mgrwt>
<rscale>  0 0.17424293E+04</rscale>
<asrwt>0</asrwt>
<pdfrwt beam="1">  1        2 0.20609992E+00 0.17424293E+04</pdfrwt>
<pdfrwt beam="2">  1       -2 0.87165738E-01 0.17424293E+04</pdfrwt>
<totfact> 0.16914278E+01</totfact>
</mgrwt>
</event>
<event>
 6    1  0.1780144E-005  0.2180152E+04  0.7818608E-02  0.8526735E-01
          2   -1    0    0  501    0  0.00000000000E+00  0.00000000000E+00  0.19679293389E+04  0.19679293389E+04  0.00000000000E+00 0. -1.
         -2   -1    0    0    0  501 -0.00000000000E+00 -0.00000000000E+00 -0.60381513092E+03  0.60381513092E+03  0.00000000000E+00 0.  1.
         23    2    1    2    0    0  0.49318826333E+03 -0.14373142913E+03  0.18149778430E+04  0.18882450886E+04  0.86206479244E+02 0.  0.
         11    1    3    3    0    0  0.17562401367E+03 -0.27794306148E+02  0.50664718171E+03  0.53694290606E+03  0.00000000000E+00 0.  1.
        -11    1    3    3    0    0  0.31756424966E+03 -0.11593712298E+03  0.13083306613E+04  0.13513021825E+04  0.00000000000E+00 0. -1.
         22    1    1    2    0    0 -0.49318826333E+03  0.14373142913E+03 -0.45086363502E+03  0.68349938126E+03  0.00000000000E+00 0.  1.
<mgrwt>
<rscale>  0 0.21801518E+04</rscale>
<asrwt>0</asrwt>
<pdfrwt beam="1">  1        2 0.30275836E+00 0.21801518E+04</pdfrwt>
<pdfrwt beam="2">  1       -2 0.92894636E-01 0.21801518E+04</pdfrwt>
<totfact> 0.62583972E+00</totfact>
</mgrwt>
</event>
<event>
 6    1  0.1780144E-005  0.2599541E+04  0.7818608E-02  0.8368357E-01
         -1   -1    0    0    0  501 -0.00000000000E+00  0.00000000000E+00  0.19489945398E+04  0.19489945398E+04  0.00000000000E+00 0.  1.
          1   -1    0    0  501    0  0.00000000000E+00 -0.00000000000E+00 -0.86680783132E+03  0.86680783132E+03  0.00000000000E+00 0. -1.
         23    2    1    2    0    0  0.84830089118E+03  0.96146428534E+03  0.32164135618E+03  0.13250115719E+04  0.90413106319E+02 0.  0.
         11    1    3    3    0    0  0.51775614731E+03  0.65109271541E+03  0.20033447423E+03  0.85564423314E+03  0.00000000000E+00 0. -1.
        -11    1    3    3    0    0  0.33054474387E+03  0.31037156993E+03  0.12130688195E+03  0.46936733880E+03  0.00000000000E+00 0.  1.
         22    1    1    2    0    0 -0.84830089118E+03 -0.96146428534E+03  0.76054535225E+03  0.14907907991E+04  0.00000000000E+00 0.  1.
<mgrwt>
<rscale>  0 0.25995413E+04</rscale>
<asrwt>0</asrwt>
<pdfrwt beam="1">  1        1 0.13335505E+00 0.25995413E+04</pdfrwt>
<pdfrwt beam="2">  1       -1 0.29984531E+00 0.25995413E+04</pdfrwt>
<totfact> 0.56522894E-01</totfact>
</mgrwt>
</event>
<event>
 6    1  0.1780144E-005  0.8849074E+03  0.7818608E-02  0.9444647E-01
         -2   -1    0    0    0  501 -0.00000000000E+00  0.00000000000E+00  0.52595182607E+02  0.52595182607E+02  0.00000000000E+00 0.  1.
          2   -1    0    0  501    0  0.00000000000E+00 -0.00000000000E+00 -0.37221141917E+04  0.37221141917E+04  0.00000000000E+00 0. -1.
         23    2    1    2    0    0  0.82353578138E+02 -0.28484740301E+03 -0.32278410702E+04  0.32427323480E+04  0.91841990669E+02 0.  0.
         13    1    3    3    0    0  0.45796710869E+02 -0.24260174500E+03 -0.28647122893E+04  0.28753311889E+04  0.00000000000E+00 0. -1.
        -13    1    3    3    0    0  0.36556867269E+02 -0.42245658010E+02 -0.36312878095E+03  0.36740115912E+03  0.00000000000E+00 0.  1.
         22    1    1    2    0    0 -0.82353578138E+02  0.28484740301E+03 -0.44167793882E+03  0.53197702627E+03  0.00000000000E+00 0.  1.
<mgrwt>
<rscale>  0 0.88490740E+03</rscale>
<asrwt>0</asrwt>
<pdfrwt beam="1">  1        2 0.57263316E+00 0.88490740E+03</pdfrwt>
<pdfrwt beam="2">  1       -2 0.80915637E-02 0.88490740E+03</pdfrwt>
<totfact> 0.57883757E+01</totfact>
</mgrwt>
</event>
<event>
 6    1  0.1780144E-005  0.9191192E+03  0.7818608E-02  0.9401992E-01
          2   -1    0    0  501    0  0.00000000000E+00  0.00000000000E+00  0.40161514535E+03  0.40161514535E+03  0.00000000000E+00 0. -1.
         -2   -1    0    0    0  501 -0.00000000000E+00 -0.00000000000E+00 -0.52586414140E+03  0.52586414140E+03  0.00000000000E+00 0.  1.
         23    2    1    2    0    0  0.39033389619E+03 -0.21742466668E+03 -0.15153308933E+03  0.47984276239E+03  0.87480073491E+02 0.  0.
         11    1    3    3    0    0  0.25257631564E+03 -0.12657959687E+03 -0.13758264945E+03  0.31423904117E+03  0.00000000000E+00 0.  1.
        -11    1    3    3    0    0  0.13775758055E+03 -0.90845069809E+02 -0.13950439876E+02  0.16560372122E+03  0.00000000000E+00 0. -1.
         22    1    1    2    0    0 -0.39033389619E+03  0.21742466668E+03  0.27284093275E+02  0.44763652436E+03  0.00000000000E+00 0.  1.
<mgrwt>
<rscale>  0 0.91911915E+03</rscale>
<asrwt>0</asrwt>
<pdfrwt beam="1">  1        2 0.61786946E-01 0.91911915E+03</pdfrwt>
<pdfrwt beam="2">  1       -2 0.80902175E-01 0.91911915E+03</pdfrwt>
<totfact> 0.10701684E+02</totfact>
</mgrwt>
</event>
<event>
 6    1  0.1780144E-005  0.1226787E+04  0.7818608E-02  0.9089728E-01
          2   -1    0    0  501    0  0.00000000000E+00  0.00000000000E+00  0.12639416270E+04  0.12639416270E+04  0.00000000000E+00 0. -1.
         -2   -1    0    0    0  501 -0.00000000000E+00 -0.00000000000E+00 -0.29768106595E+03  0.29768106595E+03  0.00000000000E+00 0.  1.
         23    2    1    2    0    0  0.48370870612E+03  0.86827427135E+02  0.94558812308E+03  0.10697482535E+04  0.93334414758E+02 0.  0.
         13    1    3    3    0    0  0.24086913600E+03  0.20052710767E+02  0.37629725502E+03  0.44723559342E+03  0.00000000000E+00 0.  1.
        -13    1    3    3    0    0  0.24283957012E+03  0.66774716368E+02  0.56929086806E+03  0.62251266013E+03  0.00000000000E+00 0. -1.
         22    1    1    2    0    0 -0.48370870612E+03 -0.86827427135E+02  0.20672438004E+02  0.49187443944E+03  0.00000000000E+00 0.  1.
<mgrwt>
<rscale>  0 0.12267868E+04</rscale>
<asrwt>0</asrwt>
<pdfrwt beam="1">  1        2 0.19445255E+00 0.12267868E+04</pdfrwt>
<pdfrwt beam="2">  1       -2 0.45797088E-01 0.12267868E+04</pdfrwt>
<totfact> 0.77259661E+01</totfact>
</mgrwt>
</event>
<event>
 6    1  0.1780144E-005  0.3795058E+04  0.7818608E-02  0.8047216E-01
         -2   -1    0    0    0  501 -0.00000000000E+00  0.00000000000E+00  0.15074985656E+04  0.15074985656E+04  0.00000000000E+00 0.  1.
          2   -1    0    0  501    0  0.00000000000E+00 -0.00000000000E+00 -0.23884703021E+04  0.23884703021E+04  0.00000000000E+00 0. -1.
         23    2    1    2    0    0  0.10943050716E+04  0.47305892109E+03 -0.19547902801E+04  0.22914830943E+04  0.91659148321E+02 0.  0.
         11    1    3    3    0    0  0.97937725388E+03  0.40449045238E+03 -0.17771899270E+04  0.20691052095E+04  0.00000000000E+00 0.  1.
        -11    1    3    3    0    0  0.11492781774E+03  0.68568468707E+02 -0.17760035313E+03  0.22237788474E+03  0.00000000000E+00 0. -1.
         22    1    1    2    0    0 -0.10943050716E+04 -0.47305892109E+03  0.10738185436E+04  0.16044857735E+04  0.00000000000E+00 0.  1.
<mgrwt>
<rscale>  0 0.37950576E+04</rscale>
<asrwt>0</asrwt>
<pdfrwt beam="1">  1        2 0.36745697E+00 0.37950576E+04</pdfrwt>
<pdfrwt beam="2">  1       -2 0.23192286E+00 0.37950576E+04</pdfrwt>
<totfact> 0.26926949E-01</totfact>
</mgrwt>
</event>
<event>
 6    1  0.1780144E-005  0.1131017E+04  0.7818608E-02  0.9175477E-01
          1   -1    0    0  501    0  0.00000000000E+00  0.00000000000E+00  0.17274873666E+04  0.17274873666E+04  0.00000000000E+00 0.  1.
         -1   -1    0    0    0  501 -0.00000000000E+00 -0.00000000000E+00 -0.18512428891E+03  0.18512428891E+03  0.00000000000E+00 0. -1.
         23    2    1    2    0    0 -0.26636627547E+03 -0.39273829515E+03  0.12871025662E+04  0.13737681811E+04  0.73563837961E+02 0.  0.
         11    1    3    3    0    0 -0.20444841500E+03 -0.30866290056E+03  0.90879748990E+03  0.98131789866E+03  0.00000000000E+00 0. -1.
        -11    1    3    3    0    0 -0.61917860469E+02 -0.84075394586E+02  0.37830507634E+03  0.39245028247E+03  0.00000000000E+00 0.  1.
         22    1    1    2    0    0  0.26636627547E+03  0.39273829515E+03  0.25526051143E+03  0.53884347438E+03  0.00000000000E+00 0. -1.
<mgrwt>
<rscale>  0 0.11310170E+04</rscale>
<asrwt>0</asrwt>
<pdfrwt beam="1">  1        1 0.26576728E+00 0.11310170E+04</pdfrwt>
<pdfrwt beam="2">  1       -1 0.28480661E-01 0.11310170E+04</pdfrwt>
<totfact> 0.50767394E+01</totfact>
</mgrwt>
</event>
<event>
 6    1  0.1780144E-005  0.1846622E+04  0.7818608E-02  0.8681892E-01
         -1   -1    0    0    0  501 -0.00000000000E+00  0.00000000000E+00  0.10967593679E+04  0.10967593679E+04  0.00000000000E+00 0.  1.
          1   -1    0    0  501    0  0.00000000000E+00 -0.00000000000E+00 -0.77729253561E+03  0.77729253561E+03  0.00000000000E+00 0. -1.
         23    2    1    2    0    0 -0.42961833015E+03  0.94407548853E+02 -0.66126429184E+03  0.79919459543E+03  0.89201136944E+02 0.  0.
         13    1    3    3    0    0 -0.42085962000E+03  0.77483327777E+02 -0.61572746280E+03  0.74983117718E+03  0.00000000000E+00 0.  1.
        -13    1    3    3    0    0 -0.87587101447E+01  0.16924221076E+02 -0.45536829038E+02  0.49363418249E+02  0.00000000000E+00 0. -1.
         22    1    1    2    0    0  0.42961833015E+03 -0.94407548853E+02  0.98073112413E+03  0.10748573081E+04  0.00000000000E+00 0.  1.
<mgrwt>
<rscale>  0 0.18466216E+04</rscale>
<asrwt>0</asrwt>
<pdfrwt beam="1">  1        1 0.11958347E+00 0.18466216E+04</pdfrwt>
<pdfrwt beam="2">  1       -1 0.16873221E+00 0.18466216E+04</pdfrwt>
<totfact> 0.54704450E+00</totfact>
</mgrwt>
</event>
<event>
 6    1  0.1780144E-005  0.2902370E+04  0.7818608E-02  0.8272173E-01
         -1   -1    0    0    0  501 -0.00000000000E+00  0.00000000000E+00  0.88004270949E+03  0.88004270949E+03  0.00000000000E+00 0.  1.
          1   -1    0    0  501    0  0.00000000000E+00 -0.00000000000E+00 -0.23929952024E+04  0.23929952024E+04  0.00000000000E+00 0. -1.
         23    2    1    2    0    0 -0.23742619448E+03  0.12372695874E+03 -0.23641060381E+04  0.23807700623E+04  0.85960292008E+02 0.  0.
         13    1    3    3    0    0 -0.14425872711E+03  0.27766533154E+02 -0.11638241766E+04  0.11730593654E+04  0.00000000000E+00 0.  1.
        -13    1    3    3    0    0 -0.93167467376E+02  0.95960425581E+02 -0.12002818615E+04  0.12077106969E+04  0.00000000000E+00 0. -1.
         22    1    1    2    0    0  0.23742619448E+03 -0.12372695874E+03  0.85115354515E+03  0.89226784968E+03  0.00000000000E+00 0.  1.
<mgrwt>
<rscale>  0 0.29023701E+04</rscale>
<asrwt>0</asrwt>
<pdfrwt beam="1">  1        1 0.36815311E+00 0.29023701E+04</pdfrwt>
<pdfrwt beam="2">  1       -1 0.13539119E+00 0.29023701E+04</pdfrwt>
<totfact> 0.63014407E-01</totfact>
</mgrwt>
</event>
<event>
 6    1  0.1780144E-005  0.3087383E+04  0.7818608E-02  0.8219209E-01
         -1   -1    0    0    0  501 -0.00000000000E+00  0.00000000000E+00  0.59854371168E+03  0.59854371168E+03  0.00000000000E+00 0.  1.
          1   -1    0    0  501    0  0.00000000000E+00 -0.00000000000E+00 -0.39813010408E+04  0.39813010408E+04  0.00000000000E+00 0. -1.
         23    2    1    2    0    0 -0.11112024988E+04 -0.62493203621E+03 -0.29805533305E+04  0.32430279739E+04  0.90671054952E+02 0.  0.
         11    1    3    3    0    0 -0.11113303652E+04 -0.61956082902E+03 -0.29621246016E+04  0.32238320299E+04  0.00000000000E+00 0. -1.
        -11    1    3    3    0    0  0.12786645756E+00 -0.53712071974E+01 -0.18428728898E+02  0.19195943983E+02  0.00000000000E+00 0.  1.
         22    1    1    2    0    0  0.11112024988E+04  0.62493203621E+03 -0.40220399863E+03  0.13368167786E+04  0.00000000000E+00 0.  1.
<mgrwt>
<rscale>  0 0.30873825E+04</rscale>
<asrwt>0</asrwt>
<pdfrwt beam="1">  1        1 0.61250785E+00 0.30873825E+04</pdfrwt>
<pdfrwt beam="2">  1       -1 0.92083648E-01 0.30873825E+04</pdfrwt>
<totfact> 0.96538317E-02</totfact>
</mgrwt>
</event>
<event>
 6    1  0.1780144E-005  0.1495656E+04  0.7818608E-02  0.8887347E-01
          2   -1    0    0  501    0  0.00000000000E+00  0.00000000000E+00  0.39274850068E+04  0.39274850068E+04  0.00000000000E+00 0. -1.
         -2   -1    0    0    0  501 -0.00000000000E+00 -0.00000000000E+00 -0.14239305782E+03  0.14239305782E+03  0.00000000000E+00 0.  1.
         23    2    1    2    0    0 -0.16940746653E+00 -0.28505240996E+03  0.37728028036E+04  0.37845608233E+04  0.87205074895E+02 0.  0.
         13    1    3    3    0    0 -0.21579993823E+02 -0.13074286141E+02  0.33755717343E+03  0.33849886030E+03  0.00000000000E+00 0. -1.
        -13    1    3    3    0    0  0.21410586356E+02 -0.27197812382E+03  0.34352456302E+04  0.34460619630E+04  0.00000000000E+00 0.  1.
         22    1    1    2    0    0  0.16940746653E+00  0.28505240996E+03  0.12289145386E+02  0.28531724136E+03  0.00000000000E+00 0.  1.
<mgrwt>
<rscale>  0 0.14956558E+04</rscale>
<asrwt>0</asrwt>
<pdfrwt beam="1">  1        2 0.60422838E+00 0.14956558E+04</pdfrwt>
<pdfrwt beam="2">  1       -2 0.21906627E-01 0.14956558E+04</pdfrwt>
<totfact> 0.70320150E+00</totfact>
</mgrwt>
</event>
<event>
 6    1  0.1780144E-005  0.3346226E+04  0.7818608E-02  0.8151232E-01
          1   -1    0    0  501    0  0.00000000000E+00  0.00000000000E+00  0.18012645591E+04  0.18012645591E+04  0.00000000000E+00 0. -1.
         -1   -1    0    0    0  501 -0.00000000000E+00 -0.00000000000E+00 -0.15540787451E+04  0.15540787451E+04  0.00000000000E+00 0.  1.
         23    2    1    2    0    0 -0.12810968710E+04 -0.10693705128E+04  0.22286210578E+03  0.16864052799E+04  0.97635870932E+02 0.  0.
         13    1    3    3    0    0 -0.41425292742E+03 -0.39811328675E+03  0.53286277935E+02  0.57700875589E+03  0.00000000000E+00 0. -1.
        -13    1    3    3    0    0 -0.86684394360E+03 -0.67125722602E+03  0.16957582784E+03  0.11093965240E+04  0.00000000000E+00 0.  1.
         22    1    1    2    0    0  0.12810968710E+04  0.10693705128E+04  0.24323708244E+02  0.16689380244E+04  0.00000000000E+00 0. -1.
<mgrwt>
<rscale>  0 0.33462259E+04</rscale>
<asrwt>0</asrwt>
<pdfrwt beam="1">  1        1 0.27711762E+00 0.33462259E+04</pdfrwt>
<pdfrwt beam="2">  1       -1 0.23908904E+00 0.33462259E+04</pdfrwt>
<totfact> 0.27622209E-01</totfact>
</mgrwt>
</event>
<event>
 6    1  0.1780144E-005  0.1495977E+04  0.7818608E-02  0.8887133E-01
          1   -1    0    0  501    0  0.00000000000E+00  0.00000000000E+00  0.67279618195E+03  0.67279618195E+03  0.00000000000E+00 0. -1.
         -1   -1    0    0    0  501 -0.00000000000E+00 -0.00000000000E+00 -0.83158416538E+03  0.83158416538E+03  0.00000000000E+00 0.  1.
         23    2    1    2    0    0 -0.63645681720E+03 -0.15445152427E+03  0.27771909259E+03  0.71731555907E+03  0.92093232011E+02 0.  0.
         13    1    3    3    0    0 -0.14076643924E+03 -0.34047385560E+02  0.10454727082E+03  0.17861843890E+03  0.00000000000E+00 0.  1.
        -13    1    3    3    0    0 -0.49569037796E+03 -0.12040413871E+03  0.17317182177E+03  0.53869712017E+03  0.00000000000E+00 0. -1.
         22    1    1    2    0    0  0.63645681720E+03  0.15445152427E+03 -0.43650707602E+03  0.78706478826E+03  0.00000000000E+00 0.  1.
<mgrwt>
<rscale>  0 0.14959768E+04</rscale>
<asrwt>0</asrwt>
<pdfrwt beam="1">  1        1 0.10350711E+00 0.14959768E+04</pdfrwt>
<pdfrwt beam="2">  1       -1 0.12793602E+00 0.14959768E+04</pdfrwt>
<totfact> 0.14784878E+01</totfact>
</mgrwt>
</event>
<event>
 6    1  0.1780144E-005  0.7525037E+03  0.7818608E-02  0.9631431E-01
          1   -1    0    0  501    0  0.00000000000E+00  0.00000000000E+00  0.50461446867E+03  0.50461446867E+03  0.00000000000E+00 0. -1.
         -1   -1    0    0    0  501 -0.00000000000E+00 -0.00000000000E+00 -0.28054183375E+03  0.28054183375E+03  0.00000000000E+00 0.  1.
         23    2    1    2    0    0 -0.39989009899E+02  0.10472612264E+03  0.48227127423E+03  0.50367234370E+03  0.92377303416E+02 0.  0.
         13    1    3    3    0    0 -0.56739279828E+02  0.23743297930E+02  0.17623582938E+03  0.18666054117E+03  0.00000000000E+00 0. -1.
        -13    1    3    3    0    0  0.16750269929E+02  0.80982824711E+02  0.30603544485E+03  0.31701180253E+03  0.00000000000E+00 0.  1.
         22    1    1    2    0    0  0.39989009899E+02 -0.10472612264E+03 -0.25819863931E+03  0.28148395872E+03  0.00000000000E+00 0.  1.
<mgrwt>
<rscale>  0 0.75250374E+03</rscale>
<asrwt>0</asrwt>
<pdfrwt beam="1">  1        1 0.77632995E-01 0.75250374E+03</pdfrwt>
<pdfrwt beam="2">  1       -1 0.43160282E-01 0.75250374E+03</pdfrwt>
<totfact> 0.23448412E+02</totfact>
</mgrwt>
</event>
<event>
 6    1  0.1780144E-005  0.5425540E+03  0.7818608E-02  0.1003232E+00
          2   -1    0    0  501    0  0.00000000000E+00  0.00000000000E+00  0.22451309556E+03  0.22451309556E+03  0.00000000000E+00 0. -1.
         -2   -1    0    0    0  501 -0.00000000000E+00 -0.00000000000E+00 -0.32778136732E+03  0.32778136732E+03  0.00000000000E+00 0.  1.
         23    2    1    2    0    0  0.10383517651E+03 -0.24151416211E+03 -0.30018812468E+02  0.27939096773E+03  0.89707019636E+02 0.  0.
         13    1    3    3    0    0  0.11210189484E+03 -0.16808010274E+03 -0.76384059379E+01  0.20217838907E+03  0.00000000000E+00 0.  1.
        -13    1    3    3    0    0 -0.82667183316E+01 -0.73434059366E+02 -0.22380406530E+02  0.77212578661E+02  0.00000000000E+00 0. -1.
         22    1    1    2    0    0 -0.10383517651E+03  0.24151416211E+03 -0.73249459292E+02  0.27290349515E+03  0.00000000000E+00 0. -1.
<mgrwt>
<rscale>  0 0.54255400E+03</rscale>
<asrwt>0</asrwt>
<pdfrwt beam="1">  1        2 0.34540476E-01 0.54255400E+03</pdfrwt>
<pdfrwt beam="2">  1       -2 0.50427903E-01 0.54255400E+03</pdfrwt>
<totfact> 0.56878506E+02</totfact>
</mgrwt>
</event>
<event>
 6    1  0.1780144E-005  0.2256504E+04  0.7818608E-02  0.8495271E-01
          2   -1    0    0  501    0  0.00000000000E+00  0.00000000000E+00  0.25733165680E+04  0.25733165680E+04  0.00000000000E+00 0. -1.
         -2   -1    0    0    0  501 -0.00000000000E+00 -0.00000000000E+00 -0.49467400300E+03  0.49467400300E+03  0.00000000000E+00 0.  1.
         23    2    1    2    0    0  0.21072304867E+03  0.62435594511E+03 -0.20088204012E+03  0.69513217346E+03  0.92900996220E+02 0.  0.
         11    1    3    3    0    0  0.12651666129E+03  0.23351201796E+03 -0.74953420519E+02  0.27595714045E+03  0.00000000000E+00 0.  1.
        -11    1    3    3    0    0  0.84206387376E+02  0.39084392715E+03 -0.12592861960E+03  0.41917503301E+03  0.00000000000E+00 0. -1.
         22    1    1    2    0    0 -0.21072304867E+03 -0.62435594511E+03  0.22795246051E+04  0.23728583976E+04  0.00000000000E+00 0. -1.
<mgrwt>
<rscale>  0 0.22565042E+04</rscale>
<asrwt>0</asrwt>
<pdfrwt beam="1">  1        2 0.39589485E+00 0.22565042E+04</pdfrwt>
<pdfrwt beam="2">  1       -2 0.76103694E-01 0.22565042E+04</pdfrwt>
<totfact> 0.44375450E+00</totfact>
</mgrwt>
</event>
<event>
 6    1  0.1780144E-005  0.4867461E+04  0.7818608E-02  0.7849284E-01
          2   -1    0    0  501    0  0.00000000000E+00  0.00000000000E+00  0.35985079092E+04  0.35985079092E+04  0.00000000000E+00 0. -1.
         -2   -1    0    0    0  501 -0.00000000000E+00 -0.00000000000E+00 -0.16459719132E+04  0.16459719132E+04  0.00000000000E+00 0.  1.
         23    2    1    2    0    0 -0.75359268314E+03  0.41819370559E+02 -0.15152763363E+04  0.16954837441E+04  0.94614795060E+02 0.  0.
         11    1    3    3    0    0 -0.35782631318E+03 -0.22236078441E+02 -0.66743203366E+03  0.75762763489E+03  0.00000000000E+00 0.  1.
        -11    1    3    3    0    0 -0.39576636995E+03  0.64055449000E+02 -0.84784430264E+03  0.93785610925E+03  0.00000000000E+00 0. -1.
         22    1    1    2    0    0  0.75359268314E+03 -0.41819370559E+02  0.34678123323E+04  0.35489960783E+04  0.00000000000E+00 0. -1.
<mgrwt>
<rscale>  0 0.48674605E+04</rscale>
<asrwt>0</asrwt>
<pdfrwt beam="1">  1        2 0.55361660E+00 0.48674605E+04</pdfrwt>
<pdfrwt beam="2">  1       -2 0.25322645E+00 0.48674605E+04</pdfrwt>
<totfact> 0.31186068E-02</totfact>
</mgrwt>
</event>
<event>
 6    1  0.1780144E-005  0.2820190E+04  0.7818608E-02  0.8297027E-01
          2   -1    0    0  501    0  0.00000000000E+00  0.00000000000E+00  0.36314723312E+04  0.36314723312E+04  0.00000000000E+00 0. -1.
         -2   -1    0    0    0  501 -0.00000000000E+00 -0.00000000000E+00 -0.54753781168E+03  0.54753781168E+03  0.00000000000E+00 0.  1.
         23    2    1    2    0    0 -0.12252405350E+04  0.41280411782E+02  0.51557843585E+03  0.13330706822E+04  0.91311988769E+02 0.  0.
         13    1    3    3    0    0 -0.56079135793E+03  0.28674859827E+02  0.28442001041E+03  0.62944732666E+03  0.00000000000E+00 0.  1.
        -13    1    3    3    0    0 -0.66444917708E+03  0.12605551955E+02  0.23115842544E+03  0.70362335558E+03  0.00000000000E+00 0. -1.
         22    1    1    2    0    0  0.12252405350E+04 -0.41280411782E+02  0.25683560836E+04  0.28459394606E+04  0.00000000000E+00 0. -1.
<mgrwt>
<rscale>  0 0.28201904E+04</rscale>
<asrwt>0</asrwt>
<pdfrwt beam="1">  1        2 0.55868804E+00 0.28201904E+04</pdfrwt>
<pdfrwt beam="2">  1       -2 0.84236589E-01 0.28201904E+04</pdfrwt>
<totfact> 0.69998202E-01</totfact>
</mgrwt>
</event>
<event>
 6    1  0.1780144E-005  0.1652875E+04  0.7818608E-02  0.8788707E-01
         -2   -1    0    0    0  501 -0.00000000000E+00  0.00000000000E+00  0.22305204559E+03  0.22305204559E+03  0.00000000000E+00 0.  1.
          2   -1    0    0  501    0  0.00000000000E+00 -0.00000000000E+00 -0.30620623288E+04  0.30620623288E+04  0.00000000000E+00 0. -1.
         23    2    1    2    0    0  0.63970219526E+03  0.41114940862E+03 -0.79315515932E+03  0.11025044865E+04  0.90323314397E+02 0.  0.
         13    1    3    3    0    0  0.61874515307E+03  0.37869280414E+03 -0.76775741142E+03  0.10562694955E+04  0.00000000000E+00 0.  1.
        -13    1    3    3    0    0  0.20957042190E+02  0.32456604473E+02 -0.25397747895E+02  0.46234990964E+02  0.00000000000E+00 0. -1.
         22    1    1    2    0    0 -0.63970219526E+03 -0.41114940862E+03 -0.20458551239E+04  0.21826098879E+04  0.00000000000E+00 0. -1.
<mgrwt>
<rscale>  0 0.16528754E+04</rscale>
<asrwt>0</asrwt>
<pdfrwt beam="1">  1        2 0.47108646E+00 0.16528754E+04</pdfrwt>
<pdfrwt beam="2">  1       -2 0.34315703E-01 0.16528754E+04</pdfrwt>
<totfact> 0.12160230E+01</totfact>
</mgrwt>
</event>
<event>
 6    1  0.1780144E-005  0.7139640E+03  0.7818608E-02  0.9693645E-01
         -4   -1    0    0    0  501 -0.00000000000E+00  0.00000000000E+00  0.95015513301E+02  0.95015513301E+02  0.00000000000E+00 0.  1.
          4   -1    0    0  501    0  0.00000000000E+00 -0.00000000000E+00 -0.13412141178E+04  0.13412141178E+04  0.00000000000E+00 0. -1.
         23    2    1    2    0    0 -0.10030358750E+03  0.23589065968E+03 -0.15062362361E+03  0.31106753090E+03  0.91489451850E+02 0.  0.
         13    1    3    3    0    0 -0.10010277274E+03  0.24282584767E+03 -0.15271587669E+03  0.30382082944E+03  0.00000000000E+00 0.  1.
        -13    1    3    3    0    0 -0.20081476221E+00 -0.69351879948E+01  0.20922530773E+01  0.72467014587E+01  0.00000000000E+00 0. -1.
         22    1    1    2    0    0  0.10030358750E+03 -0.23589065968E+03 -0.10955749809E+04  0.11251621002E+04  0.00000000000E+00 0. -1.
<mgrwt>
<rscale>  0 0.71396400E+03</rscale>
<asrwt>0</asrwt>
<pdfrwt beam="1">  1        4 0.20634062E+00 0.71396400E+03</pdfrwt>
<pdfrwt beam="2">  1       -4 0.14617773E-01 0.71396400E+03</pdfrwt>
<totfact> 0.98048223E+00</totfact>
</mgrwt>
</event>
<event>
 6    1  0.1780144E-005  0.3584818E+04  0.7818608E-02  0.8093978E-01
         -1   -1    0    0    0  501 -0.00000000000E+00  0.00000000000E+00  0.18801200045E+04  0.18801200045E+04  0.00000000000E+00 0. -1.
          1   -1    0    0  501    0  0.00000000000E+00 -0.00000000000E+00 -0.17087893968E+04  0.17087893968E+04  0.00000000000E+00 0.  1.
         23    2    1    2    0    0  0.38192579752E+03 -0.12192255510E+04  0.13427360684E+04  0.18555401353E+04  0.87811078133E+02 0.  0.
         11    1    3    3    0    0  0.18789947859E+03 -0.49169324957E+03  0.51115993675E+03  0.73372538913E+03  0.00000000000E+00 0.  1.
        -11    1    3    3    0    0  0.19402631893E+03 -0.72753230142E+03  0.83157613164E+03  0.11218147462E+04  0.00000000000E+00 0. -1.
         22    1    1    2    0    0 -0.38192579752E+03  0.12192255510E+04 -0.11714054606E+04  0.17333692660E+04  0.00000000000E+00 0.  1.
<mgrwt>
<rscale>  0 0.35848175E+04</rscale>
<asrwt>0</asrwt>
<pdfrwt beam="1">  1        1 0.26289068E+00 0.35848175E+04</pdfrwt>
<pdfrwt beam="2">  1       -1 0.28924923E+00 0.35848175E+04</pdfrwt>
<totfact> 0.14763045E-01</totfact>
</mgrwt>
</event>
<event>
 6    1  0.2632472E-005  0.3206019E+04  0.7818608E-02  0.8187229E-01
          2   -1    0    0  501    0  0.00000000000E+00  0.00000000000E+00  0.13966224816E+04  0.13966224816E+04  0.00000000000E+00 0. -1.
         -2   -1    0    0    0  501 -0.00000000000E+00 -0.00000000000E+00 -0.18398950167E+04  0.18398950167E+04  0.00000000000E+00 0.  1.
         23    2    1    2    0    0  0.38302148252E+03  0.13531044471E+03  0.13422596773E+04  0.14053594893E+04  0.91432381376E+02 0.  0.
         13    1    3    3    0    0  0.25098789979E+03  0.13359228530E+03  0.91190489653E+03  0.95520278729E+03  0.00000000000E+00 0.  1.
        -13    1    3    3    0    0  0.13203358273E+03  0.17181594135E+01  0.43035478077E+03  0.45015670202E+03  0.00000000000E+00 0. -1.
         22    1    1    2    0    0 -0.38302148252E+03 -0.13531044471E+03 -0.17855322124E+04  0.18311580090E+04  0.00000000000E+00 0.  1.
<mgrwt>
<rscale>  0 0.32060186E+04</rscale>
<asrwt>0</asrwt>
<pdfrwt beam="1">  1        2 0.21486500E+00 0.32060186E+04</pdfrwt>
<pdfrwt beam="2">  1       -2 0.28306077E+00 0.32060186E+04</pdfrwt>
<totfact> 0.49347969E-01</totfact>
</mgrwt>
</event>
<event>
 6    1  0.1780144E-005  0.3475683E+04  0.7818608E-02  0.8119577E-01
         -2   -1    0    0    0  501 -0.00000000000E+00  0.00000000000E+00  0.18557056827E+04  0.18557056827E+04  0.00000000000E+00 0.  1.
          2   -1    0    0  501    0  0.00000000000E+00 -0.00000000000E+00 -0.16274636772E+04  0.16274636772E+04  0.00000000000E+00 0. -1.
         23    2    1    2    0    0 -0.64907835189E+03  0.27679739736E+03 -0.14760747899E+04  0.16385514468E+04  0.90191752697E+02 0.  0.
         13    1    3    3    0    0 -0.56737724435E+03  0.27222738714E+03 -0.13194571123E+04  0.14618453266E+04  0.00000000000E+00 0. -1.
        -13    1    3    3    0    0 -0.81701107541E+02  0.45700102168E+01 -0.15661767756E+03  0.17670612013E+03  0.00000000000E+00 0.  1.
         22    1    1    2    0    0  0.64907835189E+03 -0.27679739736E+03  0.17043167954E+04  0.18446179130E+04  0.00000000000E+00 0.  1.
<mgrwt>
<rscale>  0 0.34756833E+04</rscale>
<asrwt>0</asrwt>
<pdfrwt beam="1">  1        2 0.25037903E+00 0.34756833E+04</pdfrwt>
<pdfrwt beam="2">  1       -2 0.28549318E+00 0.34756833E+04</pdfrwt>
<totfact> 0.34549421E-01</totfact>
</mgrwt>
</event>
<event>
 6    1  0.1780144E-005  0.2588167E+04  0.7818608E-02  0.8372232E-01
          2   -1    0    0  501    0  0.00000000000E+00  0.00000000000E+00  0.10927189444E+04  0.10927189444E+04  0.00000000000E+00 0. -1.
         -2   -1    0    0    0  501 -0.00000000000E+00 -0.00000000000E+00 -0.15325557810E+04  0.15325557810E+04  0.00000000000E+00 0.  1.
         23    2    1    2    0    0 -0.11304394086E+04  0.41511717751E+03 -0.69623254616E+03  0.13940337712E+04  0.91514312788E+02 0.  0.
         11    1    3    3    0    0 -0.77206673201E+03  0.24758414127E+03 -0.43695498654E+03  0.92103995893E+03  0.00000000000E+00 0.  1.
        -11    1    3    3    0    0 -0.35837267656E+03  0.16753303624E+03 -0.25927755962E+03  0.47299381228E+03  0.00000000000E+00 0. -1.
         22    1    1    2    0    0  0.11304394086E+04 -0.41511717751E+03  0.25639570955E+03  0.12312409542E+04  0.00000000000E+00 0.  1.
<mgrwt>
<rscale>  0 0.25881675E+04</rscale>
<asrwt>0</asrwt>
<pdfrwt beam="1">  1        2 0.16811061E+00 0.25881675E+04</pdfrwt>
<pdfrwt beam="2">  1       -2 0.23577781E+00 0.25881675E+04</pdfrwt>
<totfact> 0.15335221E+00</totfact>
</mgrwt>
</event>
<event>
 6    1  0.1780144E-005  0.4466717E+04  0.7818608E-02  0.7916490E-01
          1   -1    0    0  501    0  0.00000000000E+00  0.00000000000E+00  0.16434816638E+04  0.16434816638E+04  0.00000000000E+00 0. -1.
         -1   -1    0    0    0  501 -0.00000000000E+00 -0.00000000000E+00 -0.30349530293E+04  0.30349530293E+04  0.00000000000E+00 0.  1.
         23    2    1    2    0    0  0.13656701618E+04 -0.16843724181E+04 -0.14032970745E+03  0.21749329691E+04  0.92062801511E+02 0.  0.
         13    1    3    3    0    0  0.89405040834E+03 -0.11607254877E+04 -0.71832127940E+02  0.14668911497E+04  0.00000000000E+00 0. -1.
        -13    1    3    3    0    0  0.47161975349E+03 -0.52364693044E+03 -0.68497579513E+02  0.70804181941E+03  0.00000000000E+00 0.  1.
         22    1    1    2    0    0 -0.13656701618E+04  0.16843724181E+04 -0.12511416580E+04  0.25035017240E+04  0.00000000000E+00 0.  1.
<mgrwt>
<rscale>  0 0.44667168E+04</rscale>
<asrwt>0</asrwt>
<pdfrwt beam="1">  1        1 0.25284333E+00 0.44667168E+04</pdfrwt>
<pdfrwt beam="2">  1       -1 0.46691585E+00 0.44667168E+04</pdfrwt>
<totfact> 0.97376986E-03</totfact>
</mgrwt>
</event>
<event>
 6    1  0.1780144E-005  0.1821195E+04  0.7818608E-02  0.8695109E-01
         -2   -1    0    0    0  501 -0.00000000000E+00  0.00000000000E+00  0.13427862121E+04  0.13427862121E+04  0.00000000000E+00 0. -1.
          2   -1    0    0  501    0  0.00000000000E+00 -0.00000000000E+00 -0.61751280186E+03  0.61751280186E+03  0.00000000000E+00 0.  1.
         23    2    1    2    0    0 -0.22710938695E+03  0.81286324716E+03  0.23772100946E+01  0.84903655691E+03  0.92369321842E+02 0.  0.
         13    1    3    3    0    0 -0.19333717965E+03  0.55918739823E+03  0.24453394361E+02  0.59217208637E+03  0.00000000000E+00 0.  1.
        -13    1    3    3    0    0 -0.33772207297E+02  0.25367584893E+03 -0.22076184266E+02  0.25686447054E+03  0.00000000000E+00 0. -1.
         22    1    1    2    0    0  0.22710938695E+03 -0.81286324716E+03  0.72289620011E+03  0.11112624570E+04  0.00000000000E+00 0. -1.
<mgrwt>
<rscale>  0 0.18211949E+04</rscale>
<asrwt>0</asrwt>
<pdfrwt beam="1">  1        2 0.95001969E-01 0.18211949E+04</pdfrwt>
<pdfrwt beam="2">  1       -2 0.20658249E+00 0.18211949E+04</pdfrwt>
<totfact> 0.54335534E+00</totfact>
</mgrwt>
</event>
<event>
 6    1  0.1780144E-005  0.2671627E+04  0.7818608E-02  0.8344270E-01
          2   -1    0    0  501    0  0.00000000000E+00  0.00000000000E+00  0.14776695615E+04  0.14776695615E+04  0.00000000000E+00 0. -1.
         -2   -1    0    0    0  501 -0.00000000000E+00 -0.00000000000E+00 -0.12075755645E+04  0.12075755645E+04  0.00000000000E+00 0.  1.
         23    2    1    2    0    0 -0.97172740020E+03  0.54428094942E+03 -0.60328190245E+03  0.12698719053E+04  0.90164903010E+02 0.  0.
         13    1    3    3    0    0 -0.66300564891E+03  0.38121597474E+03 -0.46003354386E+03  0.89248695865E+03  0.00000000000E+00 0. -1.
        -13    1    3    3    0    0 -0.30872175129E+03  0.16306497468E+03 -0.14324835859E+03  0.37738494661E+03  0.00000000000E+00 0.  1.
         22    1    1    2    0    0  0.97172740020E+03 -0.54428094942E+03  0.87337589941E+03  0.14153732207E+04  0.00000000000E+00 0. -1.
<mgrwt>
<rscale>  0 0.26716270E+04</rscale>
<asrwt>0</asrwt>
<pdfrwt beam="1">  1        2 0.22733378E+00 0.26716270E+04</pdfrwt>
<pdfrwt beam="2">  1       -2 0.18578086E+00 0.26716270E+04</pdfrwt>
<totfact> 0.19023162E+00</totfact>
</mgrwt>
</event>
<event>
 6    1  0.1780144E-005  0.7148613E+04  0.7818608E-02  0.7562300E-01
         -2   -1    0    0    0  501 -0.00000000000E+00  0.00000000000E+00  0.35210147594E+04  0.35210147594E+04  0.00000000000E+00 0.  1.
          2   -1    0    0  501    0  0.00000000000E+00 -0.00000000000E+00 -0.36284049834E+04  0.36284049834E+04  0.00000000000E+00 0. -1.
         23    2    1    2    0    0  0.18215553580E+04  0.17051153868E+04  0.25050598589E+04  0.35368890731E+04  0.93685718391E+02 0.  0.
         13    1    3    3    0    0  0.10796992328E+04  0.10022721840E+04  0.14140675394E+04  0.20420301100E+04  0.00000000000E+00 0. -1.
        -13    1    3    3    0    0  0.74185612514E+03  0.70284320282E+03  0.10909923196E+04  0.14948589631E+04  0.00000000000E+00 0.  1.
         22    1    1    2    0    0 -0.18215553580E+04 -0.17051153868E+04 -0.26124500829E+04  0.36125306698E+04  0.00000000000E+00 0. -1.
<mgrwt>
<rscale>  0 0.71486132E+04</rscale>
<asrwt>0</asrwt>
<pdfrwt beam="1">  1        2 0.55821615E+00 0.71486132E+04</pdfrwt>
<pdfrwt beam="2">  1       -2 0.54169458E+00 0.71486132E+04</pdfrwt>
<totfact> 0.39144566E-04</totfact>
</mgrwt>
</event>
<event>
 6    1  0.1780144E-005  0.4805678E+04  0.7818608E-02  0.7859203E-01
          2   -1    0    0  501    0  0.00000000000E+00  0.00000000000E+00  0.24663506746E+04  0.24663506746E+04  0.00000000000E+00 0. -1.
         -2   -1    0    0    0  501 -0.00000000000E+00 -0.00000000000E+00 -0.23409630585E+04  0.23409630585E+04  0.00000000000E+00 0.  1.
         23    2    1    2    0    0 -0.14553058822E+04 -0.10551195558E+04 -0.15309403581E+04  0.23630112057E+04  0.94080232877E+02 0.  0.
         13    1    3    3    0    0 -0.14024590121E+04 -0.10367428722E+04 -0.14844507588E+04  0.22902666044E+04  0.00000000000E+00 0.  1.
        -13    1    3    3    0    0 -0.52846870029E+02 -0.18376683634E+02 -0.46489599321E+02  0.72744601299E+02  0.00000000000E+00 0. -1.
         22    1    1    2    0    0  0.14553058822E+04  0.10551195558E+04  0.16563279742E+04  0.24443025275E+04  0.00000000000E+00 0. -1.
<mgrwt>
<rscale>  0 0.48056782E+04</rscale>
<asrwt>0</asrwt>
<pdfrwt beam="1">  1        2 0.37943857E+00 0.48056782E+04</pdfrwt>
<pdfrwt beam="2">  1       -2 0.36014816E+00 0.48056782E+04</pdfrwt>
<totfact> 0.36123188E-02</totfact>
</mgrwt>
</event>
<event>
 6    1  0.1780144E-005  0.1652508E+04  0.7818608E-02  0.8788924E-01
         -1   -1    0    0    0  501 -0.00000000000E+00  0.00000000000E+00  0.59844495895E+03  0.59844495895E+03  0.00000000000E+00 0.  1.
          1   -1    0    0  501    0  0.00000000000E+00 -0.00000000000E+00 -0.11407823004E+04  0.11407823004E+04  0.00000000000E+00 0. -1.
         23    2    1    2    0    0 -0.36010993760E+03 -0.18654360575E+03  0.48301848279E+03  0.63657942331E+03  0.86306566787E+02 0.  0.
         13    1    3    3    0    0 -0.28693077987E+03 -0.12804538081E+03  0.41629227890E+03  0.52155934797E+03  0.00000000000E+00 0.  1.
        -13    1    3    3    0    0 -0.73179157722E+02 -0.58498224943E+02  0.66726203887E+02  0.11502007534E+03  0.00000000000E+00 0. -1.
         22    1    1    2    0    0  0.36010993760E+03  0.18654360575E+03 -0.10253558242E+04  0.11026478360E+04  0.00000000000E+00 0. -1.
<mgrwt>
<rscale>  0 0.16525077E+04</rscale>
<asrwt>0</asrwt>
<pdfrwt beam="1">  1        1 0.17550497E+00 0.16525077E+04</pdfrwt>
<pdfrwt beam="2">  1       -1 0.92068456E-01 0.16525077E+04</pdfrwt>
<totfact> 0.12969288E+01</totfact>
</mgrwt>
</event>
<event>
 6    1  0.1780144E-005  0.6474441E+03  0.7818608E-02  0.9811587E-01
          1   -1    0    0  501    0  0.00000000000E+00  0.00000000000E+00  0.21500735925E+03  0.21500735925E+03  0.00000000000E+00 0. -1.
         -1   -1    0    0    0  501 -0.00000000000E+00 -0.00000000000E+00 -0.48740645512E+03  0.48740645512E+03  0.00000000000E+00 0.  1.
         23    2    1    2    0    0 -0.23517424281E+03  0.81592771997E+02  0.74311770794E+02  0.27559683955E+03  0.92016703767E+02 0.  0.
         13    1    3    3    0    0 -0.35577431784E+02  0.44338896393E+02 -0.61751319984E+01  0.57182371767E+02  0.00000000000E+00 0. -1.
        -13    1    3    3    0    0 -0.19959681102E+03  0.37253875605E+02  0.80486902792E+02  0.21841446779E+03  0.00000000000E+00 0.  1.
         22    1    1    2    0    0  0.23517424281E+03 -0.81592771997E+02 -0.34671086667E+03  0.42681697481E+03  0.00000000000E+00 0.  1.
<mgrwt>
<rscale>  0 0.64744413E+03</rscale>
<asrwt>0</asrwt>
<pdfrwt beam="1">  1        1 0.33078055E-01 0.64744413E+03</pdfrwt>
<pdfrwt beam="2">  1       -1 0.74985608E-01 0.64744413E+03</pdfrwt>
<totfact> 0.24579800E+02</totfact>
</mgrwt>
</event>
<event>
 6    1  0.1780144E-005  0.1768207E+04  0.7818608E-02  0.8723392E-01
         -2   -1    0    0    0  501 -0.00000000000E+00  0.00000000000E+00  0.50271233662E+03  0.50271233662E+03  0.00000000000E+00 0.  1.
          2   -1    0    0  501    0  0.00000000000E+00 -0.00000000000E+00 -0.15548432536E+04  0.15548432536E+04  0.00000000000E+00 0. -1.
         23    2    1    2    0    0 -0.13310232077E+02 -0.69045938724E+03 -0.11659886259E+04  0.13576449491E+04  0.82213164428E+02 0.  0.
         11    1    3    3    0    0 -0.40580136600E+02 -0.21010608398E+03 -0.33933635236E+03  0.40117387009E+03  0.00000000000E+00 0.  1.
        -11    1    3    3    0    0  0.27269904524E+02 -0.48035330326E+03 -0.82665227350E+03  0.95647107898E+03  0.00000000000E+00 0. -1.
         22    1    1    2    0    0  0.13310232077E+02  0.69045938724E+03  0.11385770889E+03  0.69991064113E+03  0.00000000000E+00 0.  1.
<mgrwt>
<rscale>  0 0.17682069E+04</rscale>
<asrwt>0</asrwt>
<pdfrwt beam="1">  1        2 0.23920665E+00 0.17682069E+04</pdfrwt>
<pdfrwt beam="2">  1       -2 0.77340360E-01 0.17682069E+04</pdfrwt>
<totfact> 0.16683885E+01</totfact>
</mgrwt>
</event>
<event>
 6    1  0.1780144E-005  0.4482717E+04  0.7818608E-02  0.7913670E-01
         -2   -1    0    0    0  501 -0.00000000000E+00  0.00000000000E+00  0.13595687048E+04  0.13595687048E+04  0.00000000000E+00 0.  1.
          2   -1    0    0  501    0  0.00000000000E+00 -0.00000000000E+00 -0.36950596093E+04  0.36950596093E+04  0.00000000000E+00 0. -1.
         23    2    1    2    0    0 -0.58751260914E+03  0.86513463442E+03 -0.34023995886E+04  0.35606660851E+04  0.91602442988E+02 0.  0.
         11    1    3    3    0    0 -0.50805377473E+03  0.77410104849E+03 -0.30885466587E+04  0.32243559875E+04  0.00000000000E+00 0. -1.
        -11    1    3    3    0    0 -0.79458834408E+02  0.91033585927E+02 -0.31385292991E+03  0.33631009760E+03  0.00000000000E+00 0.  1.
         22    1    1    2    0    0  0.58751260914E+03 -0.86513463442E+03  0.10669086841E+04  0.14939622290E+04  0.00000000000E+00 0.  1.
<mgrwt>
<rscale>  0 0.44827168E+04</rscale>
<asrwt>0</asrwt>
<pdfrwt beam="1">  1        2 0.56847071E+00 0.44827168E+04</pdfrwt>
<pdfrwt beam="2">  1       -2 0.20916442E+00 0.44827168E+04</pdfrwt>
<totfact> 0.51642758E-02</totfact>
</mgrwt>
</event>
<event>
 6    1  0.1780144E-005  0.2142675E+04  0.7818608E-02  0.8542674E-01
          2   -1    0    0  501    0  0.00000000000E+00  0.00000000000E+00  0.13191547253E+04  0.13191547253E+04  0.00000000000E+00 0.  1.
         -2   -1    0    0    0  501 -0.00000000000E+00 -0.00000000000E+00 -0.87007498629E+03  0.87007498629E+03  0.00000000000E+00 0. -1.
         23    2    1    2    0    0 -0.10258855273E+04 -0.29311353481E+03  0.14932222288E+03  0.10809827951E+04  0.88713120873E+02 0.  0.
         13    1    3    3    0    0 -0.89787694312E+03 -0.24908516189E+03  0.10098570455E+03  0.93724305032E+03  0.00000000000E+00 0. -1.
        -13    1    3    3    0    0 -0.12800858415E+03 -0.44028372920E+02  0.48336518330E+02  0.14373974482E+03  0.00000000000E+00 0.  1.
         22    1    1    2    0    0  0.10258855273E+04  0.29311353481E+03  0.29975751612E+03  0.11082469164E+04  0.00000000000E+00 0.  1.
<mgrwt>
<rscale>  0 0.21426745E+04</rscale>
<asrwt>0</asrwt>
<pdfrwt beam="1">  1        2 0.20294688E+00 0.21426745E+04</pdfrwt>
<pdfrwt beam="2">  1       -2 0.13385769E+00 0.21426745E+04</pdfrwt>
<totfact> 0.59664799E+00</totfact>
</mgrwt>
</event>
<event>
 6    1  0.1780144E-005  0.1637504E+04  0.7818608E-02  0.8797834E-01
         -1   -1    0    0    0  501 -0.00000000000E+00  0.00000000000E+00  0.10215299066E+04  0.10215299066E+04  0.00000000000E+00 0.  1.
          1   -1    0    0  501    0  0.00000000000E+00 -0.00000000000E+00 -0.65622594804E+03  0.65622594804E+03  0.00000000000E+00 0. -1.
         23    2    1    2    0    0 -0.17608484185E+03 -0.79316694458E+03  0.26381934761E+03  0.85896479477E+03  0.90001094274E+02 0.  0.
         11    1    3    3    0    0 -0.77860964401E+02 -0.21359884991E+03  0.10258993383E+03  0.24942231853E+03  0.00000000000E+00 0. -1.
        -11    1    3    3    0    0 -0.98223877447E+02 -0.57956809467E+03  0.16122941378E+03  0.60954247623E+03  0.00000000000E+00 0.  1.
         22    1    1    2    0    0  0.17608484185E+03  0.79316694458E+03  0.10148461096E+03  0.81879105990E+03  0.00000000000E+00 0.  1.
<mgrwt>
<rscale>  0 0.16375035E+04</rscale>
<asrwt>0</asrwt>
<pdfrwt beam="1">  1        1 0.10095784E+00 0.16375035E+04</pdfrwt>
<pdfrwt beam="2">  1       -1 0.15715845E+00 0.16375035E+04</pdfrwt>
<totfact> 0.88234054E+00</totfact>
</mgrwt>
</event>
<event>
 6    1  0.1780144E-005  0.2481775E+04  0.7818608E-02  0.8409507E-01
         -3   -1    0    0    0  501 -0.00000000000E+00  0.00000000000E+00  0.16637202376E+04  0.16637202376E+04  0.00000000000E+00 0.  1.
          3   -1    0    0  501    0  0.00000000000E+00 -0.00000000000E+00 -0.92551717042E+03  0.92551717042E+03  0.00000000000E+00 0. -1.
         23    2    1    2    0    0 -0.62540553909E+03  0.74513199534E+01  0.14856898879E+04  0.16145968805E+04  0.91983874261E+02 0.  0.
         11    1    3    3    0    0 -0.56502784738E+03  0.30312205079E+02  0.12933704049E+04  0.14117302513E+04  0.00000000000E+00 0.  1.
        -11    1    3    3    0    0 -0.60377691707E+02 -0.22860885126E+02  0.19231948302E+03  0.20286662927E+03  0.00000000000E+00 0. -1.
         22    1    1    2    0    0  0.62540553909E+03 -0.74513199534E+01 -0.74748682077E+03  0.97464052743E+03  0.00000000000E+00 0. -1.
<mgrwt>
<rscale>  0 0.24817749E+04</rscale>
<asrwt>0</asrwt>
<pdfrwt beam="1">  1        3 0.14238726E+00 0.24817749E+04</pdfrwt>
<pdfrwt beam="2">  1       -3 0.25595696E+00 0.24817749E+04</pdfrwt>
<totfact> 0.58123196E-02</totfact>
</mgrwt>
</event>
<event>
 6    1  0.1780144E-005  0.1173231E+04  0.7818608E-02  0.9136616E-01
          2   -1    0    0  501    0  0.00000000000E+00  0.00000000000E+00  0.11602175758E+04  0.11602175758E+04  0.00000000000E+00 0. -1.
         -2   -1    0    0    0  501 -0.00000000000E+00 -0.00000000000E+00 -0.29659759512E+03  0.29659759512E+03  0.00000000000E+00 0.  1.
         23    2    1    2    0    0  0.36713641488E+03  0.26247672102E+03 -0.24189943575E+02  0.46087860777E+03  0.90226168727E+02 0.  0.
         11    1    3    3    0    0  0.27302973906E+02  0.56658799426E+02 -0.10072157123E+01  0.62902197259E+02  0.00000000000E+00 0.  1.
        -11    1    3    3    0    0  0.33983344097E+03  0.20581792160E+03 -0.23182727863E+02  0.39797641051E+03  0.00000000000E+00 0. -1.
         22    1    1    2    0    0 -0.36713641488E+03 -0.26247672102E+03  0.88780992423E+03  0.99593656313E+03  0.00000000000E+00 0. -1.
<mgrwt>
<rscale>  0 0.11732310E+04</rscale>
<asrwt>0</asrwt>
<pdfrwt beam="1">  1        2 0.17849501E+00 0.11732310E+04</pdfrwt>
<pdfrwt beam="2">  1       -2 0.45630400E-01 0.11732310E+04</pdfrwt>
<totfact> 0.90058731E+01</totfact>
</mgrwt>
</event>
<event>
 6    1  0.1780144E-005  0.2924878E+04  0.7818608E-02  0.8265514E-01
         -2   -1    0    0    0  501 -0.00000000000E+00  0.00000000000E+00  0.13580936035E+04  0.13580936035E+04  0.00000000000E+00 0.  1.
          2   -1    0    0  501    0  0.00000000000E+00 -0.00000000000E+00 -0.15748012608E+04  0.15748012608E+04  0.00000000000E+00 0. -1.
         23    2    1    2    0    0 -0.12681822104E+04 -0.53348180353E+03 -0.60111270185E+03  0.15043794840E+04  0.94510307527E+02 0.  0.
         13    1    3    3    0    0 -0.38694780188E+03 -0.20903473818E+03 -0.20375857310E+03  0.48470782876E+03  0.00000000000E+00 0.  1.
        -13    1    3    3    0    0 -0.88123440848E+03 -0.32444706535E+03 -0.39735412875E+03  0.10196716553E+04  0.00000000000E+00 0. -1.
         22    1    1    2    0    0  0.12681822104E+04  0.53348180353E+03  0.38440504458E+03  0.14285153803E+04  0.00000000000E+00 0.  1.
<mgrwt>
<rscale>  0 0.29248778E+04</rscale>
<asrwt>0</asrwt>
<pdfrwt beam="1">  1        2 0.24227712E+00 0.29248778E+04</pdfrwt>
<pdfrwt beam="2">  1       -2 0.20893748E+00 0.29248778E+04</pdfrwt>
<totfact> 0.11544080E+00</totfact>
</mgrwt>
</event>
<event>
 6    1  0.1780144E-005  0.2540221E+04  0.7818608E-02  0.8388795E-01
         -1   -1    0    0    0  501 -0.00000000000E+00  0.00000000000E+00  0.99370170737E+03  0.99370170737E+03  0.00000000000E+00 0. -1.
          1   -1    0    0  501    0  0.00000000000E+00 -0.00000000000E+00 -0.16234048800E+04  0.16234048800E+04  0.00000000000E+00 0.  1.
         23    2    1    2    0    0 -0.72844966789E+03  0.96537056410E+03  0.78917472518E+02  0.12154210080E+04  0.91874994211E+02 0.  0.
         11    1    3    3    0    0 -0.58816159167E+03  0.82867516005E+03  0.82339810645E+02  0.10195177405E+04  0.00000000000E+00 0. -1.
        -11    1    3    3    0    0 -0.14028807622E+03  0.13669540405E+03 -0.34223381276E+01  0.19590326750E+03  0.00000000000E+00 0.  1.
         22    1    1    2    0    0  0.72844966789E+03 -0.96537056410E+03 -0.70862064517E+03  0.14016855794E+04  0.00000000000E+00 0.  1.
<mgrwt>
<rscale>  0 0.25402206E+04</rscale>
<asrwt>0</asrwt>
<pdfrwt beam="1">  1        1 0.24975460E+00 0.25402206E+04</pdfrwt>
<pdfrwt beam="2">  1       -1 0.15287719E+00 0.25402206E+04</pdfrwt>
<totfact> 0.15776259E+00</totfact>
</mgrwt>
</event>
<event>
 6    1  0.1780144E-005  0.5073104E+03  0.7818608E-02  0.1011888E+00
         -1   -1    0    0    0  501 -0.00000000000E+00  0.00000000000E+00  0.74624936273E+02  0.74624936273E+02  0.00000000000E+00 0.  1.
          1   -1    0    0  501    0  0.00000000000E+00 -0.00000000000E+00 -0.86219131395E+03  0.86219131395E+03  0.00000000000E+00 0. -1.
         23    2    1    2    0    0  0.44001051160E+02 -0.20751542672E+03 -0.63501049279E+03  0.67552705633E+03  0.89998516968E+02 0.  0.
         11    1    3    3    0    0  0.27388904331E+02 -0.15124338131E+03 -0.31878831807E+03  0.35390776229E+03  0.00000000000E+00 0.  1.
        -11    1    3    3    0    0  0.16612146829E+02 -0.56272045404E+02 -0.31622217472E+03  0.32161929404E+03  0.00000000000E+00 0. -1.
         22    1    1    2    0    0 -0.44001051160E+02  0.20751542672E+03 -0.15255588488E+03  0.26128919389E+03  0.00000000000E+00 0. -1.
<mgrwt>
<rscale>  0 0.50731044E+03</rscale>
<asrwt>0</asrwt>
<pdfrwt beam="1">  1        1 0.13264481E+00 0.50731044E+03</pdfrwt>
<pdfrwt beam="2">  1       -1 0.11480760E-01 0.50731044E+03</pdfrwt>
<totfact> 0.10014492E+03</totfact>
</mgrwt>
</event>
<event>
 6    1  0.1780144E-005  0.2018196E+04  0.7818608E-02  0.8598161E-01
          1   -1    0    0  501    0  0.00000000000E+00  0.00000000000E+00  0.56331617276E+03  0.56331617276E+03  0.00000000000E+00 0. -1.
         -1   -1    0    0    0  501 -0.00000000000E+00 -0.00000000000E+00 -0.18076498682E+04  0.18076498682E+04  0.00000000000E+00 0.  1.
         23    2    1    2    0    0 -0.35586076398E+03  0.12836326447E+03 -0.17199515644E+04  0.17632437621E+04  0.87642283246E+02 0.  0.
         13    1    3    3    0    0 -0.26080421789E+03  0.58290437220E+02 -0.12885752129E+04  0.13159949447E+04  0.00000000000E+00 0.  1.
        -13    1    3    3    0    0 -0.95056546094E+02  0.70072827246E+02 -0.43137635146E+03  0.44724881741E+03  0.00000000000E+00 0. -1.
         22    1    1    2    0    0  0.35586076398E+03 -0.12836326447E+03  0.47561786892E+03  0.60772227887E+03  0.00000000000E+00 0. -1.
<mgrwt>
<rscale>  0 0.20181956E+04</rscale>
<asrwt>0</asrwt>
<pdfrwt beam="1">  1        1 0.86664028E-01 0.20181956E+04</pdfrwt>
<pdfrwt beam="2">  1       -1 0.27809998E+00 0.20181956E+04</pdfrwt>
<totfact> 0.15905589E+00</totfact>
</mgrwt>
</event>
<event>
 6    1  0.1780144E-005  0.3155205E+04  0.7818608E-02  0.8200749E-01
         -2   -1    0    0    0  501 -0.00000000000E+00  0.00000000000E+00  0.83352237370E+03  0.83352237370E+03  0.00000000000E+00 0.  1.
          2   -1    0    0  501    0  0.00000000000E+00 -0.00000000000E+00 -0.29859177545E+04  0.29859177545E+04  0.00000000000E+00 0. -1.
         23    2    1    2    0    0 -0.10242906188E+04 -0.68369207429E+03 -0.22681159786E+04  0.25825094992E+04  0.91646587454E+02 0.  0.
         11    1    3    3    0    0 -0.66956361284E+03 -0.46829188221E+03 -0.14198228311E+04  0.16381421154E+04  0.00000000000E+00 0.  1.
        -11    1    3    3    0    0 -0.35472700593E+03 -0.21540019208E+03 -0.84829314750E+03  0.94436738380E+03  0.00000000000E+00 0. -1.
         22    1    1    2    0    0  0.10242906188E+04  0.68369207429E+03  0.11572059781E+03  0.12369306290E+04  0.00000000000E+00 0.  1.
<mgrwt>
<rscale>  0 0.31552048E+04</rscale>
<asrwt>0</asrwt>
<pdfrwt beam="1">  1        2 0.45937197E+00 0.31552048E+04</pdfrwt>
<pdfrwt beam="2">  1       -2 0.12823421E+00 0.31552048E+04</pdfrwt>
<totfact> 0.67473100E-01</totfact>
</mgrwt>
</event>
<event>
 6    1  0.1780144E-005  0.2495218E+04  0.7818608E-02  0.8404691E-01
         -3   -1    0    0    0  501 -0.00000000000E+00  0.00000000000E+00  0.15575879680E+04  0.15575879680E+04  0.00000000000E+00 0.  1.
          3   -1    0    0  501    0  0.00000000000E+00 -0.00000000000E+00 -0.99931963488E+03  0.99931963488E+03  0.00000000000E+00 0. -1.
         23    2    1    2    0    0 -0.12424377545E+04  0.92530237907E+02  0.29651311053E+03  0.12838289661E+04  0.89907568560E+02 0.  0.
         11    1    3    3    0    0 -0.51498027226E+03  0.79276097079E+02  0.14155183421E+03  0.53993175694E+03  0.00000000000E+00 0.  1.
        -11    1    3    3    0    0 -0.72745748222E+03  0.13254140828E+02  0.15496127633E+03  0.74389720920E+03  0.00000000000E+00 0. -1.
         22    1    1    2    0    0  0.12424377545E+04 -0.92530237907E+02  0.26175522255E+03  0.12730786367E+04  0.00000000000E+00 0. -1.
<mgrwt>
<rscale>  0 0.24952180E+04</rscale>
<asrwt>0</asrwt>
<pdfrwt beam="1">  1        3 0.15374148E+00 0.24952180E+04</pdfrwt>
<pdfrwt beam="2">  1       -3 0.23962892E+00 0.24952180E+04</pdfrwt>
<totfact> 0.59274230E-02</totfact>
</mgrwt>
</event>
<event>
 6    1  0.1780144E-005  0.3246871E+04  0.7818608E-02  0.8176547E-01
         -2   -1    0    0    0  501 -0.00000000000E+00  0.00000000000E+00  0.95489871180E+03  0.95489871180E+03  0.00000000000E+00 0.  1.
          2   -1    0    0  501    0  0.00000000000E+00 -0.00000000000E+00 -0.27600231481E+04  0.27600231481E+04  0.00000000000E+00 0. -1.
         23    2    1    2    0    0  0.73111986299E+03  0.11012395172E+04 -0.19790748524E+04  0.23816838933E+04  0.91739674930E+02 0.  0.
         13    1    3    3    0    0  0.49356837783E+03  0.76926130597E+03 -0.12947029857E+04  0.15848118253E+04  0.00000000000E+00 0.  1.
        -13    1    3    3    0    0  0.23755148516E+03  0.33197821122E+03 -0.68437186670E+03  0.79687206800E+03  0.00000000000E+00 0. -1.
         22    1    1    2    0    0 -0.73111986299E+03 -0.11012395172E+04  0.17395041612E+03  0.13332379666E+04  0.00000000000E+00 0.  1.
<mgrwt>
<rscale>  0 0.32468708E+04</rscale>
<asrwt>0</asrwt>
<pdfrwt beam="1">  1        2 0.42461894E+00 0.32468708E+04</pdfrwt>
<pdfrwt beam="2">  1       -2 0.14690750E+00 0.32468708E+04</pdfrwt>
<totfact> 0.64890555E-01</totfact>
</mgrwt>
</event>
<event>
 6    1  0.1780144E-005  0.1589056E+04  0.7818608E-02  0.8827300E-01
         -1   -1    0    0    0  501 -0.00000000000E+00  0.00000000000E+00  0.70587313853E+03  0.70587313853E+03  0.00000000000E+00 0.  1.
          1   -1    0    0  501    0  0.00000000000E+00 -0.00000000000E+00 -0.89431708942E+03  0.89431708942E+03  0.00000000000E+00 0. -1.
         23    2    1    2    0    0 -0.29638198659E+02  0.75926684525E+03  0.12982008471E+03  0.77638408481E+03  0.92490148806E+02 0.  0.
         13    1    3    3    0    0 -0.45386092444E+02  0.33959867411E+03  0.24952804731E+02  0.34352554390E+03  0.00000000000E+00 0. -1.
        -13    1    3    3    0    0  0.15747893785E+02  0.41966817114E+03  0.10486727998E+03  0.43285854091E+03  0.00000000000E+00 0.  1.
         22    1    1    2    0    0  0.29638198659E+02 -0.75926684525E+03 -0.31826403561E+03  0.82380614314E+03  0.00000000000E+00 0. -1.
<mgrwt>
<rscale>  0 0.15890556E+04</rscale>
<asrwt>0</asrwt>
<pdfrwt beam="1">  1        1 0.13758724E+00 0.15890556E+04</pdfrwt>
<pdfrwt beam="2">  1       -1 0.10859587E+00 0.15890556E+04</pdfrwt>
<totfact> 0.13901099E+01</totfact>
</mgrwt>
</event>
<event>
 6    1  0.1780144E-005  0.5539548E+04  0.7818608E-02  0.7750271E-01
         -1   -1    0    0    0  501 -0.00000000000E+00  0.00000000000E+00  0.21000080144E+04  0.21000080144E+04  0.00000000000E+00 0. -1.
          1   -1    0    0  501    0  0.00000000000E+00 -0.00000000000E+00 -0.36531518961E+04  0.36531518961E+04  0.00000000000E+00 0.  1.
         23    2    1    2    0    0  0.22907209019E+04 -0.78841561095E+03  0.61597063074E+03  0.25013820593E+04  0.92146418348E+02 0.  0.
         11    1    3    3    0    0  0.13554855506E+04 -0.49557450575E+03  0.40387620236E+03  0.14986831405E+04  0.00000000000E+00 0. -1.
        -11    1    3    3    0    0  0.93523535127E+03 -0.29284110519E+03  0.21209442838E+03  0.10026989188E+04  0.00000000000E+00 0.  1.
         22    1    1    2    0    0 -0.22907209019E+04  0.78841561095E+03 -0.21691145124E+04  0.32517778512E+04  0.00000000000E+00 0.  1.
<mgrwt>
<rscale>  0 0.55395481E+04</rscale>
<asrwt>0</asrwt>
<pdfrwt beam="1">  1        1 0.56202336E+00 0.55395481E+04</pdfrwt>
<pdfrwt beam="2">  1       -1 0.32307816E+00 0.55395481E+04</pdfrwt>
<totfact> 0.30418832E-03</totfact>
</mgrwt>
</event>
<event>
 6    1  0.1780144E-005  0.1708427E+04  0.7818608E-02  0.8756573E-01
          2   -1    0    0  501    0  0.00000000000E+00  0.00000000000E+00  0.65177382827E+03  0.65177382827E+03  0.00000000000E+00 0. -1.
         -2   -1    0    0    0  501 -0.00000000000E+00 -0.00000000000E+00 -0.11195308034E+04  0.11195308034E+04  0.00000000000E+00 0.  1.
         23    2    1    2    0    0 -0.65782940095E+03 -0.33018021941E+03 -0.67898605521E+03  0.10055525684E+04  0.91407913764E+02 0.  0.
         11    1    3    3    0    0 -0.67268061881E+02 -0.91610726808E+01 -0.82853912089E+02  0.10711530306E+03  0.00000000000E+00 0.  1.
        -11    1    3    3    0    0 -0.59056133907E+03 -0.32101914673E+03 -0.59613214312E+03  0.89843726539E+03  0.00000000000E+00 0. -1.
         22    1    1    2    0    0  0.65782940095E+03  0.33018021941E+03  0.21122908008E+03  0.76575206321E+03  0.00000000000E+00 0. -1.
<mgrwt>
<rscale>  0 0.17084272E+04</rscale>
<asrwt>0</asrwt>
<pdfrwt beam="1">  1        2 0.10027290E+00 0.17084272E+04</pdfrwt>
<pdfrwt beam="2">  1       -2 0.17223551E+00 0.17084272E+04</pdfrwt>
<totfact> 0.87493349E+00</totfact>
</mgrwt>
</event>
<event>
 6    1  0.1780144E-005  0.1872265E+04  0.7818608E-02  0.8668786E-01
          2   -1    0    0  501    0  0.00000000000E+00  0.00000000000E+00  0.16637016473E+04  0.16637016473E+04  0.00000000000E+00 0. -1.
         -2   -1    0    0    0  501 -0.00000000000E+00 -0.00000000000E+00 -0.52674355354E+03  0.52674355354E+03  0.00000000000E+00 0.  1.
         23    2    1    2    0    0  0.77597635675E+03 -0.51967207023E+03  0.56434400873E+03  0.10949611721E+04  0.90870464919E+02 0.  0.
         13    1    3    3    0    0  0.23914503026E+03 -0.18831103643E+03  0.22584452806E+03  0.37902129596E+03  0.00000000000E+00 0. -1.
        -13    1    3    3    0    0  0.53683132649E+03 -0.33136103381E+03  0.33849948067E+03  0.71593987614E+03  0.00000000000E+00 0.  1.
         22    1    1    2    0    0 -0.77597635675E+03  0.51967207023E+03  0.57261408500E+03  0.10954840287E+04  0.00000000000E+00 0.  1.
<mgrwt>
<rscale>  0 0.18722651E+04</rscale>
<asrwt>0</asrwt>
<pdfrwt beam="1">  1        2 0.25595410E+00 0.18722651E+04</pdfrwt>
<pdfrwt beam="2">  1       -2 0.81037470E-01 0.18722651E+04</pdfrwt>
<totfact> 0.12948497E+01</totfact>
</mgrwt>
</event>
<event>
 6    1  0.1780144E-005  0.8616756E+03  0.7818608E-02  0.9474799E-01
          2   -1    0    0  501    0  0.00000000000E+00  0.00000000000E+00  0.14763062463E+04  0.14763062463E+04  0.00000000000E+00 0. -1.
         -2   -1    0    0    0  501 -0.00000000000E+00 -0.00000000000E+00 -0.12573352510E+03  0.12573352510E+03  0.00000000000E+00 0.  1.
         23    2    1    2    0    0 -0.26677430008E+03  0.32142619451E+03  0.52915847146E+03  0.68051674110E+03  0.92795588788E+02 0.  0.
         13    1    3    3    0    0 -0.86112487651E+02  0.17003651331E+03  0.26593680943E+03  0.32718521207E+03  0.00000000000E+00 0. -1.
        -13    1    3    3    0    0 -0.18066181243E+03  0.15138968120E+03  0.26322166203E+03  0.35333152903E+03  0.00000000000E+00 0.  1.
         22    1    1    2    0    0  0.26677430008E+03 -0.32142619451E+03  0.82141424970E+03  0.92152303027E+03  0.00000000000E+00 0. -1.
<mgrwt>
<rscale>  0 0.86167555E+03</rscale>
<asrwt>0</asrwt>
<pdfrwt beam="1">  1        2 0.22712403E+00 0.86167555E+03</pdfrwt>
<pdfrwt beam="2">  1       -2 0.19343620E-01 0.86167555E+03</pdfrwt>
<totfact> 0.29798430E+02</totfact>
</mgrwt>
</event>
<event>
 6    1  0.1780144E-005  0.2247941E+04  0.7818608E-02  0.8498735E-01
         -2   -1    0    0    0  501 -0.00000000000E+00  0.00000000000E+00  0.14595858144E+04  0.14595858144E+04  0.00000000000E+00 0. -1.
          2   -1    0    0  501    0  0.00000000000E+00 -0.00000000000E+00 -0.86552614612E+03  0.86552614612E+03  0.00000000000E+00 0.  1.
         23    2    1    2    0    0 -0.46119308523E+03 -0.10028498100E+04  0.50720686359E+03  0.12178856003E+04  0.87061642687E+02 0.  0.
         11    1    3    3    0    0 -0.17989616247E+03 -0.36432464216E+03  0.23156051725E+03  0.46767012659E+03  0.00000000000E+00 0. -1.
        -11    1    3    3    0    0 -0.28129692276E+03 -0.63852516782E+03  0.27564634633E+03  0.75021547368E+03  0.00000000000E+00 0.  1.
         22    1    1    2    0    0  0.46119308523E+03  0.10028498100E+04  0.86852804743E+02  0.11072263603E+04  0.00000000000E+00 0.  1.
<mgrwt>
<rscale>  0 0.22479410E+04</rscale>
<asrwt>0</asrwt>
<pdfrwt beam="1">  1        2 0.13315787E+00 0.22479410E+04</pdfrwt>
<pdfrwt beam="2">  1       -2 0.22455166E+00 0.22479410E+04</pdfrwt>
<totfact> 0.26066034E+00</totfact>
</mgrwt>
</event>
<event>
 6    1  0.1780144E-005  0.8341974E+03  0.7818608E-02  0.9511796E-01
          2   -1    0    0  501    0  0.00000000000E+00  0.00000000000E+00  0.55813971892E+03  0.55813971892E+03  0.00000000000E+00 0. -1.
         -2   -1    0    0    0  501 -0.00000000000E+00 -0.00000000000E+00 -0.31169851549E+03  0.31169851549E+03  0.00000000000E+00 0.  1.
         23    2    1    2    0    0 -0.23328277653E+03 -0.16364416268E+03 -0.18569941814E+03  0.35220343785E+03  0.91447919229E+02 0.  0.
         11    1    3    3    0    0 -0.31147062073E+02 -0.14906383668E+02 -0.65272209276E+02  0.73843083993E+02  0.00000000000E+00 0. -1.
        -11    1    3    3    0    0 -0.20213571446E+03 -0.14873777901E+03 -0.12042720886E+03  0.27836035386E+03  0.00000000000E+00 0.  1.
         22    1    1    2    0    0  0.23328277653E+03  0.16364416268E+03  0.43214062157E+03  0.51763479657E+03  0.00000000000E+00 0. -1.
<mgrwt>
<rscale>  0 0.83419739E+03</rscale>
<asrwt>0</asrwt>
<pdfrwt beam="1">  1        2 0.85867649E-01 0.83419739E+03</pdfrwt>
<pdfrwt beam="2">  1       -2 0.47953618E-01 0.83419739E+03</pdfrwt>
<totfact> 0.22417828E+02</totfact>
</mgrwt>
</event>
<event>
 6    1  0.1780144E-005  0.1682214E+04  0.7818608E-02  0.8771574E-01
          2   -1    0    0  501    0  0.00000000000E+00  0.00000000000E+00  0.48891768190E+03  0.48891768190E+03  0.00000000000E+00 0. -1.
         -2   -1    0    0    0  501 -0.00000000000E+00 -0.00000000000E+00 -0.14469934357E+04  0.14469934357E+04  0.00000000000E+00 0.  1.
         23    2    1    2    0    0  0.69499849729E+03 -0.25281368904E+03 -0.25106017164E+02  0.74537753888E+03  0.89552726173E+02 0.  0.
         13    1    3    3    0    0  0.23270318371E+03 -0.41798453680E+02  0.26562076043E+01  0.23644225062E+03  0.00000000000E+00 0. -1.
        -13    1    3    3    0    0  0.46229531359E+03 -0.21101523536E+03 -0.27762224769E+02  0.50893528826E+03  0.00000000000E+00 0.  1.
         22    1    1    2    0    0 -0.69499849729E+03  0.25281368904E+03 -0.93296973668E+03  0.11905335788E+04  0.00000000000E+00 0.  1.
<mgrwt>
<rscale>  0 0.16822136E+04</rscale>
<asrwt>0</asrwt>
<pdfrwt beam="1">  1        2 0.75218105E-01 0.16822136E+04</pdfrwt>
<pdfrwt beam="2">  1       -2 0.22261437E+00 0.16822136E+04</pdfrwt>
<totfact> 0.57263556E+00</totfact>
</mgrwt>
</event>
<event>
 6    1  0.1780144E-005  0.9765161E+03  0.7818608E-02  0.9334683E-01
         -2   -1    0    0    0  501 -0.00000000000E+00  0.00000000000E+00  0.61610639087E+03  0.61610639087E+03  0.00000000000E+00 0.  1.
          2   -1    0    0  501    0  0.00000000000E+00 -0.00000000000E+00 -0.38693950648E+03  0.38693950648E+03  0.00000000000E+00 0. -1.
         23    2    1    2    0    0 -0.18000166848E+03  0.40834313374E+03 -0.75683836725E+02  0.46260285902E+03  0.95543950621E+02 0.  0.
         11    1    3    3    0    0 -0.77055455711E+02  0.23129011698E+03 -0.83377740563E+02  0.25765191459E+03  0.00000000000E+00 0. -1.
        -11    1    3    3    0    0 -0.10294621277E+03  0.17705301676E+03  0.76939038373E+01  0.20495094443E+03  0.00000000000E+00 0.  1.
         22    1    1    2    0    0  0.18000166848E+03 -0.40834313374E+03  0.30485072111E+03  0.54044303834E+03  0.00000000000E+00 0. -1.
<mgrwt>
<rscale>  0 0.97651606E+03</rscale>
<asrwt>0</asrwt>
<pdfrwt beam="1">  1        2 0.59529155E-01 0.97651606E+03</pdfrwt>
<pdfrwt beam="2">  1       -2 0.94785599E-01 0.97651606E+03</pdfrwt>
<totfact> 0.77349146E+01</totfact>
</mgrwt>
</event>
<event>
 6    1  0.1780144E-005  0.3987777E+04  0.7818608E-02  0.8007017E-01
         -1   -1    0    0    0  501 -0.00000000000E+00  0.00000000000E+00  0.10424437557E+04  0.10424437557E+04  0.00000000000E+00 0.  1.
          1   -1    0    0  501    0  0.00000000000E+00 -0.00000000000E+00 -0.38137226031E+04  0.38137226031E+04  0.00000000000E+00 0. -1.
         23    2    1    2    0    0  0.61395158009E+03 -0.12549516180E+04 -0.31168856478E+04  0.34169706923E+04  0.94193757252E+02 0.  0.
         11    1    3    3    0    0  0.42131510546E+03 -0.95299331756E+03 -0.23006346982E+04  0.25255935334E+04  0.00000000000E+00 0.  1.
        -11    1    3    3    0    0  0.19263647463E+03 -0.30195830044E+03 -0.81625094965E+03  0.89137715888E+03  0.00000000000E+00 0. -1.
         22    1    1    2    0    0 -0.61395158009E+03  0.12549516180E+04  0.34560680041E+03  0.14391956666E+04  0.00000000000E+00 0.  1.
<mgrwt>
<rscale>  0 0.39877770E+04</rscale>
<asrwt>0</asrwt>
<pdfrwt beam="1">  1        1 0.58672655E+00 0.39877770E+04</pdfrwt>
<pdfrwt beam="2">  1       -1 0.16037596E+00 0.39877770E+04</pdfrwt>
<totfact> 0.31487259E-02</totfact>
</mgrwt>
</event>
<event>
 6    1  0.1780144E-005  0.3420685E+04  0.7818608E-02  0.8132848E-01
          1   -1    0    0  501    0  0.00000000000E+00  0.00000000000E+00  0.12283827826E+04  0.12283827826E+04  0.00000000000E+00 0. -1.
         -1   -1    0    0    0  501 -0.00000000000E+00 -0.00000000000E+00 -0.23814005840E+04  0.23814005840E+04  0.00000000000E+00 0.  1.
         23    2    1    2    0    0  0.30060421334E+03  0.13433297643E+04  0.49204706924E+03  0.14647574513E+04  0.92229736614E+02 0.  0.
         13    1    3    3    0    0  0.20168381349E+03  0.69725363365E+03  0.27126998721E+03  0.77487185794E+03  0.00000000000E+00 0. -1.
        -13    1    3    3    0    0  0.98920399848E+02  0.64607613060E+03  0.22077708203E+03  0.68988559340E+03  0.00000000000E+00 0.  1.
         22    1    1    2    0    0 -0.30060421334E+03 -0.13433297643E+04 -0.16450648706E+04  0.21450259153E+04  0.00000000000E+00 0.  1.
<mgrwt>
<rscale>  0 0.34206850E+04</rscale>
<asrwt>0</asrwt>
<pdfrwt beam="1">  1        1 0.18898197E+00 0.34206850E+04</pdfrwt>
<pdfrwt beam="2">  1       -1 0.36636932E+00 0.34206850E+04</pdfrwt>
<totfact> 0.10105997E-01</totfact>
</mgrwt>
</event>
<event>
 6    1  0.1780144E-005  0.4998565E+04  0.7818608E-02  0.7828729E-01
          1   -1    0    0  501    0  0.00000000000E+00  0.00000000000E+00  0.34026199266E+04  0.34026199266E+04  0.00000000000E+00 0. -1.
         -1   -1    0    0    0  501 -0.00000000000E+00 -0.00000000000E+00 -0.18357655641E+04  0.18357655641E+04  0.00000000000E+00 0.  1.
         23    2    1    2    0    0 -0.19497216072E+04 -0.42190934471E+03  0.23602124998E+04  0.30915648241E+04  0.88023725694E+02 0.  0.
         13    1    3    3    0    0 -0.50194149185E+03 -0.78576045159E+02  0.63940344706E+03  0.81667387874E+03  0.00000000000E+00 0. -1.
        -13    1    3    3    0    0 -0.14477801154E+04 -0.34333329955E+03  0.17208090528E+04  0.22748909453E+04  0.00000000000E+00 0.  1.
         22    1    1    2    0    0  0.19497216072E+04  0.42190934471E+03 -0.79335813729E+03  0.21468206667E+04  0.00000000000E+00 0.  1.
<mgrwt>
<rscale>  0 0.49985648E+04</rscale>
<asrwt>0</asrwt>
<pdfrwt beam="1">  1        1 0.52347999E+00 0.49985648E+04</pdfrwt>
<pdfrwt beam="2">  1       -1 0.28242547E+00 0.49985648E+04</pdfrwt>
<totfact> 0.92223560E-03</totfact>
</mgrwt>
</event>
<event>
 6    1  0.1780144E-005  0.3368931E+04  0.7818608E-02  0.8145574E-01
          2   -1    0    0  501    0  0.00000000000E+00  0.00000000000E+00  0.35775799547E+04  0.35775799547E+04  0.00000000000E+00 0. -1.
         -2   -1    0    0    0  501 -0.00000000000E+00 -0.00000000000E+00 -0.79311290537E+03  0.79311290537E+03  0.00000000000E+00 0.  1.
         23    2    1    2    0    0  0.70648968557E+03  0.57963173125E+03  0.32271361121E+04  0.33552833275E+04  0.91750216443E+02 0.  0.
         11    1    3    3    0    0  0.32501519115E+03  0.25446475795E+03  0.12956507088E+04  0.13598154091E+04  0.00000000000E+00 0.  1.
        -11    1    3    3    0    0  0.38147449442E+03  0.32516697330E+03  0.19314854033E+04  0.19954679184E+04  0.00000000000E+00 0. -1.
         22    1    1    2    0    0 -0.70648968557E+03 -0.57963173125E+03 -0.44266906277E+03  0.10154095326E+04  0.00000000000E+00 0.  1.
<mgrwt>
<rscale>  0 0.33689315E+04</rscale>
<asrwt>0</asrwt>
<pdfrwt beam="1">  1        2 0.55039691E+00 0.33689315E+04</pdfrwt>
<pdfrwt beam="2">  1       -2 0.12201737E+00 0.33689315E+04</pdfrwt>
<totfact> 0.30260546E-01</totfact>
</mgrwt>
</event>
<event>
 6    1  0.1780144E-005  0.3240028E+04  0.7818608E-02  0.8178325E-01
         -2   -1    0    0    0  501 -0.00000000000E+00  0.00000000000E+00  0.10071407895E+04  0.10071407895E+04  0.00000000000E+00 0.  1.
          2   -1    0    0  501    0  0.00000000000E+00 -0.00000000000E+00 -0.26058376239E+04  0.26058376239E+04  0.00000000000E+00 0. -1.
         23    2    1    2    0    0  0.13561578171E+04 -0.53377181406E+03 -0.14386014585E+02  0.14602784464E+04  0.90165453990E+02 0.  0.
         11    1    3    3    0    0  0.47216678007E+03 -0.16818335470E+03  0.34604892319E+02  0.50241875719E+03  0.00000000000E+00 0.  1.
        -11    1    3    3    0    0  0.88399103705E+03 -0.36558845937E+03 -0.48990906904E+02  0.95785968919E+03  0.00000000000E+00 0. -1.
         22    1    1    2    0    0 -0.13561578171E+04  0.53377181406E+03 -0.15843108198E+04  0.21526999671E+04  0.00000000000E+00 0. -1.
<mgrwt>
<rscale>  0 0.32400280E+04</rscale>
<asrwt>0</asrwt>
<pdfrwt beam="1">  1        2 0.40089810E+00 0.32400280E+04</pdfrwt>
<pdfrwt beam="2">  1       -2 0.15494474E+00 0.32400280E+04</pdfrwt>
<totfact> 0.69613103E-01</totfact>
</mgrwt>
</event>
<event>
 6    1  0.1780144E-005  0.2509614E+04  0.7818608E-02  0.8399568E-01
         -2   -1    0    0    0  501 -0.00000000000E+00  0.00000000000E+00  0.98643900486E+03  0.98643900486E+03  0.00000000000E+00 0.  1.
          2   -1    0    0  501    0  0.00000000000E+00 -0.00000000000E+00 -0.15961866949E+04  0.15961866949E+04  0.00000000000E+00 0. -1.
         23    2    1    2    0    0  0.98853537023E+03  0.30391459047E+03 -0.10329908299E+04  0.14651727871E+04  0.10047380207E+03 0.  0.
         11    1    3    3    0    0  0.25383902070E+03  0.12291600638E+03 -0.29807318970E+03  0.41035377356E+03  0.00000000000E+00 0. -1.
        -11    1    3    3    0    0  0.73469634953E+03  0.18099858409E+03 -0.73491764024E+03  0.10548190136E+04  0.00000000000E+00 0.  1.
         22    1    1    2    0    0 -0.98853537023E+03 -0.30391459047E+03  0.42324313989E+03  0.11174529126E+04  0.00000000000E+00 0.  1.
<mgrwt>
<rscale>  0 0.25096142E+04</rscale>
<asrwt>0</asrwt>
<pdfrwt beam="1">  1        2 0.24556718E+00 0.25096142E+04</pdfrwt>
<pdfrwt beam="2">  1       -2 0.15175985E+00 0.25096142E+04</pdfrwt>
<totfact> 0.29014893E+00</totfact>
</mgrwt>
</event>
<event>
 6    1  0.1780144E-005  0.2227651E+04  0.7818608E-02  0.8507007E-01
          2   -1    0    0  501    0  0.00000000000E+00  0.00000000000E+00  0.20911740137E+04  0.20911740137E+04  0.00000000000E+00 0. -1.
         -2   -1    0    0    0  501 -0.00000000000E+00 -0.00000000000E+00 -0.59325859837E+03  0.59325859837E+03  0.00000000000E+00 0.  1.
         23    2    1    2    0    0  0.71525317792E+03  0.43355926876E+03 -0.13276942889E+03  0.85175866147E+03  0.91128195916E+02 0.  0.
         13    1    3    3    0    0  0.54190112660E+03  0.33381335447E+03 -0.13978623770E+03  0.65163515780E+03  0.00000000000E+00 0.  1.
        -13    1    3    3    0    0  0.17335205133E+03  0.99745914289E+02  0.70168088170E+01  0.20012350367E+03  0.00000000000E+00 0. -1.
         22    1    1    2    0    0 -0.71525317792E+03 -0.43355926876E+03  0.16306848443E+04  0.18326739506E+04  0.00000000000E+00 0. -1.
<mgrwt>
<rscale>  0 0.22276507E+04</rscale>
<asrwt>0</asrwt>
<pdfrwt beam="1">  1        2 0.32171908E+00 0.22276507E+04</pdfrwt>
<pdfrwt beam="2">  1       -2 0.91270555E-01 0.22276507E+04</pdfrwt>
<totfact> 0.55443374E+00</totfact>
</mgrwt>
</event>
<event>
 6    1  0.1780144E-005  0.2005215E+04  0.7818608E-02  0.8604186E-01
         -1   -1    0    0    0  501 -0.00000000000E+00  0.00000000000E+00  0.78106057919E+03  0.78106057919E+03  0.00000000000E+00 0.  1.
          1   -1    0    0  501    0  0.00000000000E+00 -0.00000000000E+00 -0.12869959530E+04  0.12869959530E+04  0.00000000000E+00 0. -1.
         23    2    1    2    0    0 -0.50258257985E+03  0.52766451734E+03  0.45329815797E+03  0.86342046227E+03  0.94850314828E+02 0.  0.
         11    1    3    3    0    0 -0.17124477851E+03  0.22656723044E+03  0.21526825249E+03  0.35636765370E+03  0.00000000000E+00 0.  1.
        -11    1    3    3    0    0 -0.33133780134E+03  0.30109728690E+03  0.23802990549E+03  0.50705280857E+03  0.00000000000E+00 0. -1.
         22    1    1    2    0    0  0.50258257985E+03 -0.52766451734E+03 -0.95923353174E+03  0.12046360699E+04  0.00000000000E+00 0. -1.
<mgrwt>
<rscale>  0 0.20052150E+04</rscale>
<asrwt>0</asrwt>
<pdfrwt beam="1">  1        1 0.19799938E+00 0.20052150E+04</pdfrwt>
<pdfrwt beam="2">  1       -1 0.12016317E+00 0.20052150E+04</pdfrwt>
<totfact> 0.52878163E+00</totfact>
</mgrwt>
</event>
<event>
 6    1  0.1780144E-005  0.2273995E+04  0.7818608E-02  0.8488246E-01
          1   -1    0    0  501    0  0.00000000000E+00  0.00000000000E+00  0.19661806410E+04  0.19661806410E+04  0.00000000000E+00 0. -1.
         -1   -1    0    0    0  501 -0.00000000000E+00 -0.00000000000E+00 -0.65749955897E+03  0.65749955897E+03  0.00000000000E+00 0.  1.
         23    2    1    2    0    0  0.39811321612E+03  0.90571843214E+03  0.13004869488E+02  0.99346645358E+03  0.89366977046E+02 0.  0.
         13    1    3    3    0    0  0.25060843835E+03  0.62870843131E+03 -0.25393468982E+02  0.67729145074E+03  0.00000000000E+00 0.  1.
        -13    1    3    3    0    0  0.14750477777E+03  0.27701000082E+03  0.38398338470E+02  0.31617500284E+03  0.00000000000E+00 0. -1.
         22    1    1    2    0    0 -0.39811321612E+03 -0.90571843214E+03  0.12956762125E+04  0.16302137464E+04  0.00000000000E+00 0. -1.
<mgrwt>
<rscale>  0 0.22739946E+04</rscale>
<asrwt>0</asrwt>
<pdfrwt beam="1">  1        1 0.30248933E+00 0.22739946E+04</pdfrwt>
<pdfrwt beam="2">  1       -1 0.10115378E+00 0.22739946E+04</pdfrwt>
<totfact> 0.26416442E+00</totfact>
</mgrwt>
</event>
<event>
 6    1  0.1780144E-005  0.1772851E+04  0.7818608E-02  0.8720872E-01
         -2   -1    0    0    0  501 -0.00000000000E+00  0.00000000000E+00  0.91560084557E+03  0.91560084557E+03  0.00000000000E+00 0.  1.
          2   -1    0    0  501    0  0.00000000000E+00 -0.00000000000E+00 -0.85818010733E+03  0.85818010733E+03  0.00000000000E+00 0. -1.
         23    2    1    2    0    0  0.46995034844E+02  0.33913318148E+03 -0.78679933400E+03  0.86277745211E+03  0.90066041321E+02 0.  0.
         13    1    3    3    0    0 -0.15697130810E+02  0.12409219684E+03 -0.35403192648E+03  0.37547819937E+03  0.00000000000E+00 0.  1.
        -13    1    3    3    0    0  0.62692165654E+02  0.21504098464E+03 -0.43276740752E+03  0.48729925274E+03  0.00000000000E+00 0. -1.
         22    1    1    2    0    0 -0.46995034844E+02 -0.33913318148E+03  0.84422007224E+03  0.91100350080E+03  0.00000000000E+00 0.  1.
<mgrwt>
<rscale>  0 0.17728513E+04</rscale>
<asrwt>0</asrwt>
<pdfrwt beam="1">  1        2 0.13202771E+00 0.17728513E+04</pdfrwt>
<pdfrwt beam="2">  1       -2 0.14086167E+00 0.17728513E+04</pdfrwt>
<totfact> 0.10473200E+01</totfact>
</mgrwt>
</event>
<event>
 6    1  0.1780144E-005  0.3576569E+04  0.7818608E-02  0.8095880E-01
         -2   -1    0    0    0  501 -0.00000000000E+00  0.00000000000E+00  0.14943436568E+04  0.14943436568E+04  0.00000000000E+00 0.  1.
          2   -1    0    0  501    0  0.00000000000E+00 -0.00000000000E+00 -0.21400438205E+04  0.21400438205E+04  0.00000000000E+00 0. -1.
         23    2    1    2    0    0  0.76482182682E+02  0.46435272890E+03 -0.20749794705E+04  0.21296242675E+04  0.91031513590E+02 0.  0.
         13    1    3    3    0    0  0.51770988386E+02  0.19259915342E+03 -0.10603134595E+04  0.10789065305E+04  0.00000000000E+00 0. -1.
        -13    1    3    3    0    0  0.24711194296E+02  0.27175357548E+03 -0.10146660110E+04  0.10507177369E+04  0.00000000000E+00 0.  1.
         22    1    1    2    0    0 -0.76482182682E+02 -0.46435272890E+03  0.14292793067E+04  0.15047632099E+04  0.00000000000E+00 0.  1.
<mgrwt>
<rscale>  0 0.35765687E+04</rscale>
<asrwt>0</asrwt>
<pdfrwt beam="1">  1        2 0.32923751E+00 0.35765687E+04</pdfrwt>
<pdfrwt beam="2">  1       -2 0.22989903E+00 0.35765687E+04</pdfrwt>
<totfact> 0.39018841E-01</totfact>
</mgrwt>
</event>
<event>
 6    1  0.1780144E-005  0.1981222E+04  0.7818608E-02  0.8615451E-01
          2   -1    0    0  501    0  0.00000000000E+00  0.00000000000E+00  0.26406207233E+04  0.26406207233E+04  0.00000000000E+00 0. -1.
         -2   -1    0    0    0  501 -0.00000000000E+00 -0.00000000000E+00 -0.37162108945E+03  0.37162108945E+03  0.00000000000E+00 0.  1.
         23    2    1    2    0    0 -0.21872833281E+03 -0.35885696424E+02  0.26015442411E+04  0.26125972425E+04  0.92206540792E+02 0.  0.
         13    1    3    3    0    0 -0.15115274803E+03  0.17936707391E+01  0.13007546354E+04  0.13095086834E+04  0.00000000000E+00 0. -1.
        -13    1    3    3    0    0 -0.67575584779E+02 -0.37679367164E+02  0.13007896057E+04  0.13030885591E+04  0.00000000000E+00 0.  1.
         22    1    1    2    0    0  0.21872833281E+03  0.35885696424E+02 -0.33254460722E+03  0.39964457031E+03  0.00000000000E+00 0.  1.
<mgrwt>
<rscale>  0 0.19812222E+04</rscale>
<asrwt>0</asrwt>
<pdfrwt beam="1">  1        2 0.40624933E+00 0.19812222E+04</pdfrwt>
<pdfrwt beam="2">  1       -2 0.57172477E-01 0.19812222E+04</pdfrwt>
<totfact> 0.76912415E+00</totfact>
</mgrwt>
</event>
<event>
 6    1  0.1780144E-005  0.2189103E+04  0.7818608E-02  0.8522977E-01
         -2   -1    0    0    0  501 -0.00000000000E+00  0.00000000000E+00  0.10891200799E+04  0.10891200799E+04  0.00000000000E+00 0.  1.
          2   -1    0    0  501    0  0.00000000000E+00 -0.00000000000E+00 -0.11000100136E+04  0.11000100136E+04  0.00000000000E+00 0. -1.
         23    2    1    2    0    0 -0.29508360028E+03 -0.13490396188E+03  0.10379331887E+04  0.10912670090E+04  0.91021813811E+02 0.  0.
         13    1    3    3    0    0 -0.80536009520E+01 -0.77811808751E+01  0.13222588042E+03  0.13269924912E+03  0.00000000000E+00 0. -1.
        -13    1    3    3    0    0 -0.28702999933E+03 -0.12712278101E+03  0.90570730829E+03  0.95856775987E+03  0.00000000000E+00 0.  1.
         22    1    1    2    0    0  0.29508360028E+03  0.13490396188E+03 -0.10488231225E+04  0.10978630845E+04  0.00000000000E+00 0. -1.
<mgrwt>
<rscale>  0 0.21891030E+04</rscale>
<asrwt>0</asrwt>
<pdfrwt beam="1">  1        2 0.16923231E+00 0.21891030E+04</pdfrwt>
<pdfrwt beam="2">  1       -2 0.16755694E+00 0.21891030E+04</pdfrwt>
<totfact> 0.44221105E+00</totfact>
</mgrwt>
</event>
<event>
 6    1  0.1780144E-005  0.7030399E+03  0.7818608E-02  0.9712048E-01
         -1   -1    0    0    0  501 -0.00000000000E+00  0.00000000000E+00  0.46176939886E+03  0.46176939886E+03  0.00000000000E+00 0.  1.
          1   -1    0    0  501    0  0.00000000000E+00 -0.00000000000E+00 -0.26759305908E+03  0.26759305908E+03  0.00000000000E+00 0. -1.
         23    2    1    2    0    0 -0.15131593977E+02 -0.11757101853E+03 -0.23773949137E+03  0.28147497795E+03  0.93038636713E+02 0.  0.
         11    1    3    3    0    0 -0.45357438904E+02 -0.21931625862E+02 -0.80908965619E+02  0.95312927740E+02  0.00000000000E+00 0. -1.
        -11    1    3    3    0    0  0.30225844926E+02 -0.95639392673E+02 -0.15683052575E+03  0.18616205021E+03  0.00000000000E+00 0.  1.
         22    1    1    2    0    0  0.15131593977E+02  0.11757101853E+03  0.43191583115E+03  0.44788747999E+03  0.00000000000E+00 0.  1.
<mgrwt>
<rscale>  0 0.70303993E+03</rscale>
<asrwt>0</asrwt>
<pdfrwt beam="1">  1        1 0.41168163E-01 0.70303993E+03</pdfrwt>
<pdfrwt beam="2">  1       -1 0.71041446E-01 0.70303993E+03</pdfrwt>
<totfact> 0.20667476E+02</totfact>
</mgrwt>
</event>
<event>
 6    1  0.1780144E-005  0.2564167E+04  0.7818608E-02  0.8380476E-01
         -2   -1    0    0    0  501 -0.00000000000E+00  0.00000000000E+00  0.59169334425E+03  0.59169334425E+03  0.00000000000E+00 0. -1.
          2   -1    0    0  501    0  0.00000000000E+00 -0.00000000000E+00 -0.27780227149E+04  0.27780227149E+04  0.00000000000E+00 0.  1.
         23    2    1    2    0    0  0.50007252417E+03  0.11531312874E+03 -0.26361907171E+04  0.26872610217E+04  0.92198995236E+02 0.  0.
         13    1    3    3    0    0  0.18572557542E+03 -0.64095338588E+00 -0.10045305954E+04  0.10215557338E+04  0.00000000000E+00 0. -1.
        -13    1    3    3    0    0  0.31434694875E+03  0.11595408213E+03 -0.16316601218E+04  0.16657052879E+04  0.00000000000E+00 0.  1.
         22    1    1    2    0    0 -0.50007252417E+03 -0.11531312874E+03  0.44986134647E+03  0.68245503744E+03  0.00000000000E+00 0. -1.
<mgrwt>
<rscale>  0 0.25641666E+04</rscale>
<asrwt>0</asrwt>
<pdfrwt beam="1">  1        2 0.42738811E+00 0.25641666E+04</pdfrwt>
<pdfrwt beam="2">  1       -2 0.91029746E-01 0.25641666E+04</pdfrwt>
<totfact> 0.21770265E+00</totfact>
</mgrwt>
</event>
<event>
 6    1  0.1780144E-005  0.1436595E+04  0.7818608E-02  0.8927747E-01
          1   -1    0    0  501    0  0.00000000000E+00  0.00000000000E+00  0.17469164236E+04  0.17469164236E+04  0.00000000000E+00 0. -1.
         -1   -1    0    0    0  501 -0.00000000000E+00 -0.00000000000E+00 -0.29534981352E+03  0.29534981352E+03  0.00000000000E+00 0.  1.
         23    2    1    2    0    0  0.28073772606E+03  0.10147902577E+03  0.16529282108E+04  0.16821854716E+04  0.92003410226E+02 0.  0.
         11    1    3    3    0    0  0.92934473041E+02 -0.92464104038E+01  0.55832660109E+03  0.56608383290E+03  0.00000000000E+00 0. -1.
        -11    1    3    3    0    0  0.18780325302E+03  0.11072543617E+03  0.10946016097E+04  0.11161016387E+04  0.00000000000E+00 0.  1.
         22    1    1    2    0    0 -0.28073772606E+03 -0.10147902577E+03 -0.20136160064E+03  0.36008076555E+03  0.00000000000E+00 0.  1.
<mgrwt>
<rscale>  0 0.14365952E+04</rscale>
<asrwt>0</asrwt>
<pdfrwt beam="1">  1        1 0.26875637E+00 0.14365952E+04</pdfrwt>
<pdfrwt beam="2">  1       -1 0.45438434E-01 0.14365952E+04</pdfrwt>
<totfact> 0.20706455E+01</totfact>
</mgrwt>
</event>
<event>
 6    1  0.1780144E-005  0.3981685E+04  0.7818608E-02  0.8008251E-01
         -1   -1    0    0    0  501 -0.00000000000E+00  0.00000000000E+00  0.13584581896E+04  0.13584581896E+04  0.00000000000E+00 0.  1.
          1   -1    0    0  501    0  0.00000000000E+00 -0.00000000000E+00 -0.29176122334E+04  0.29176122334E+04  0.00000000000E+00 0. -1.
         23    2    1    2    0    0 -0.14933101095E+04  0.12185993385E+04 -0.24906721040E+03  0.19455582600E+04  0.90570616897E+02 0.  0.
         13    1    3    3    0    0 -0.60141757537E+03  0.52834195012E+03 -0.13754065240E+03  0.81225965509E+03  0.00000000000E+00 0. -1.
        -13    1    3    3    0    0 -0.89189253413E+03  0.69025738841E+03 -0.11152655799E+03  0.11332986049E+04  0.00000000000E+00 0.  1.
         22    1    1    2    0    0  0.14933101095E+04 -0.12185993385E+04 -0.13100868334E+04  0.23305121631E+04  0.00000000000E+00 0. -1.
<mgrwt>
<rscale>  0 0.39816852E+04</rscale>
<asrwt>0</asrwt>
<pdfrwt beam="1">  1        1 0.44886341E+00 0.39816852E+04</pdfrwt>
<pdfrwt beam="2">  1       -1 0.20899357E+00 0.39816852E+04</pdfrwt>
<totfact> 0.70204685E-02</totfact>
</mgrwt>
</event>
<event>
 6    1  0.1780144E-005  0.2489151E+04  0.7818608E-02  0.8406861E-01
         -1   -1    0    0    0  501 -0.00000000000E+00  0.00000000000E+00  0.83966179422E+03  0.83966179422E+03  0.00000000000E+00 0.  1.
          1   -1    0    0  501    0  0.00000000000E+00 -0.00000000000E+00 -0.18447520937E+04  0.18447520937E+04  0.00000000000E+00 0. -1.
         23    2    1    2    0    0  0.25474803256E+03  0.87167918187E+03 -0.14181907420E+04  0.16867300042E+04  0.95246891213E+02 0.  0.
         11    1    3    3    0    0  0.94834087180E+02  0.18290663449E+03 -0.32028075652E+03  0.38082555590E+03  0.00000000000E+00 0.  1.
        -11    1    3    3    0    0  0.15991394538E+03  0.68877254738E+03 -0.10979099854E+04  0.13059044483E+04  0.00000000000E+00 0. -1.
         22    1    1    2    0    0 -0.25474803256E+03 -0.87167918187E+03  0.41310044251E+03  0.99768388370E+03  0.00000000000E+00 0. -1.
<mgrwt>
<rscale>  0 0.24891507E+04</rscale>
<asrwt>0</asrwt>
<pdfrwt beam="1">  1        1 0.28380801E+00 0.24891507E+04</pdfrwt>
<pdfrwt beam="2">  1       -1 0.12917874E+00 0.24891507E+04</pdfrwt>
<totfact> 0.17404709E+00</totfact>
</mgrwt>
</event>
<event>
 6    1  0.1780144E-005  0.2784971E+04  0.7818608E-02  0.8307949E-01
         -2   -1    0    0    0  501 -0.00000000000E+00  0.00000000000E+00  0.78157978482E+03  0.78157978482E+03  0.00000000000E+00 0.  1.
          2   -1    0    0  501    0  0.00000000000E+00 -0.00000000000E+00 -0.24808938158E+04  0.24808938158E+04  0.00000000000E+00 0. -1.
         23    2    1    2    0    0  0.96190185847E+03  0.59145432677E+03  0.10112781123E+03  0.11372290892E+04  0.89385464362E+02 0.  0.
         11    1    3    3    0    0  0.27838156787E+03  0.12776829944E+03  0.12904913851E+02  0.30657392661E+03  0.00000000000E+00 0. -1.
        -11    1    3    3    0    0  0.68352029060E+03  0.46368602732E+03  0.88222897379E+02  0.83065516264E+03  0.00000000000E+00 0.  1.
         22    1    1    2    0    0 -0.96190185847E+03 -0.59145432677E+03 -0.18004418422E+04  0.21252445114E+04  0.00000000000E+00 0. -1.
<mgrwt>
<rscale>  0 0.27849714E+04</rscale>
<asrwt>0</asrwt>
<pdfrwt beam="1">  1        2 0.38167596E+00 0.27849714E+04</pdfrwt>
<pdfrwt beam="2">  1       -2 0.12024305E+00 0.27849714E+04</pdfrwt>
<totfact> 0.16433726E+00</totfact>
</mgrwt>
</event>
<event>
 6    1  0.1780144E-005  0.4143250E+04  0.7818608E-02  0.7976256E-01
         -2   -1    0    0    0  501 -0.00000000000E+00  0.00000000000E+00  0.17681145170E+04  0.17681145170E+04  0.00000000000E+00 0.  1.
          2   -1    0    0  501    0  0.00000000000E+00 -0.00000000000E+00 -0.24272349520E+04  0.24272349520E+04  0.00000000000E+00 0. -1.
         23    2    1    2    0    0  0.17913139836E+04  0.56205904435E+03 -0.12140669350E+04  0.22376258484E+04  0.91075558042E+02 0.  0.
         13    1    3    3    0    0  0.10502003968E+04  0.28421322331E+03 -0.68804340294E+03  0.12872846438E+04  0.00000000000E+00 0.  1.
        -13    1    3    3    0    0  0.74111358676E+03  0.27784582103E+03 -0.52602353210E+03  0.95034120455E+03  0.00000000000E+00 0. -1.
         22    1    1    2    0    0 -0.17913139836E+04 -0.56205904435E+03  0.55494650005E+03  0.19577236207E+04  0.00000000000E+00 0. -1.
<mgrwt>
<rscale>  0 0.41432496E+04</rscale>
<asrwt>0</asrwt>
<pdfrwt beam="1">  1        2 0.37342076E+00 0.41432496E+04</pdfrwt>
<pdfrwt beam="2">  1       -2 0.27201762E+00 0.41432496E+04</pdfrwt>
<totfact> 0.14089183E-01</totfact>
</mgrwt>
</event>
<event>
 6    1  0.1780144E-005  0.1934357E+04  0.7818608E-02  0.8637941E-01
         -1   -1    0    0    0  501 -0.00000000000E+00  0.00000000000E+00  0.58439822033E+03  0.58439822033E+03  0.00000000000E+00 0.  1.
          1   -1    0    0  501    0  0.00000000000E+00 -0.00000000000E+00 -0.16006796907E+04  0.16006796907E+04  0.00000000000E+00 0. -1.
         23    2    1    2    0    0 -0.53383491234E+03  0.26065189062E+03 -0.13682335086E+04  0.14945785563E+04  0.93717688521E+02 0.  0.
         13    1    3    3    0    0 -0.56791054697E+02  0.61772387928E+02 -0.16780548603E+03  0.18761591869E+03  0.00000000000E+00 0. -1.
        -13    1    3    3    0    0 -0.47704385764E+03  0.19887950269E+03 -0.12004280226E+04  0.13069626376E+04  0.00000000000E+00 0.  1.
         22    1    1    2    0    0  0.53383491234E+03 -0.26065189062E+03  0.35195203821E+03  0.69049935476E+03  0.00000000000E+00 0.  1.
<mgrwt>
<rscale>  0 0.19343571E+04</rscale>
<asrwt>0</asrwt>
<pdfrwt beam="1">  1        1 0.24625841E+00 0.19343571E+04</pdfrwt>
<pdfrwt beam="2">  1       -1 0.89907419E-01 0.19343571E+04</pdfrwt>
<totfact> 0.62951155E+00</totfact>
</mgrwt>
</event>
<event>
 6    1  0.1780144E-005  0.1548425E+04  0.7818608E-02  0.8852874E-01
          1   -1    0    0  501    0  0.00000000000E+00  0.00000000000E+00  0.82824536348E+03  0.82824536348E+03  0.00000000000E+00 0. -1.
         -1   -1    0    0    0  501 -0.00000000000E+00 -0.00000000000E+00 -0.72370493598E+03  0.72370493598E+03  0.00000000000E+00 0.  1.
         23    2    1    2    0    0 -0.44529087446E+03 -0.25369089203E+03 -0.52565971551E+03  0.73967248257E+03  0.90300683161E+02 0.  0.
         13    1    3    3    0    0 -0.11337819297E+03 -0.98445272698E+02 -0.11380037576E+03  0.18840544547E+03  0.00000000000E+00 0. -1.
        -13    1    3    3    0    0 -0.33191268150E+03 -0.15524561933E+03 -0.41185933974E+03  0.55126703710E+03  0.00000000000E+00 0.  1.
         22    1    1    2    0    0  0.44529087446E+03  0.25369089203E+03  0.63020014300E+03  0.81227781689E+03  0.00000000000E+00 0. -1.
<mgrwt>
<rscale>  0 0.15484253E+04</rscale>
<asrwt>0</asrwt>
<pdfrwt beam="1">  1        1 0.12742236E+00 0.15484253E+04</pdfrwt>
<pdfrwt beam="2">  1       -1 0.11133922E+00 0.15484253E+04</pdfrwt>
<totfact> 0.14939044E+01</totfact>
</mgrwt>
</event>
<event>
 6    1  0.1780144E-005  0.1984572E+04  0.7818608E-02  0.8613868E-01
          1   -1    0    0  501    0  0.00000000000E+00  0.00000000000E+00  0.14571126326E+04  0.14571126326E+04  0.00000000000E+00 0. -1.
         -1   -1    0    0    0  501 -0.00000000000E+00 -0.00000000000E+00 -0.67574120695E+03  0.67574120695E+03  0.00000000000E+00 0.  1.
         23    2    1    2    0    0 -0.29604599665E+03  0.56942449482E+03 -0.41883085546E+03  0.77183473498E+03  0.91771919430E+02 0.  0.
         11    1    3    3    0    0 -0.58735293738E+02  0.18370497710E+03 -0.94305443830E+02  0.21468784334E+03  0.00000000000E+00 0. -1.
        -11    1    3    3    0    0 -0.23731070291E+03  0.38571951773E+03 -0.32452541163E+03  0.55714689164E+03  0.00000000000E+00 0.  1.
         22    1    1    2    0    0  0.29604599665E+03 -0.56942449482E+03  0.12002022811E+04  0.13610191046E+04  0.00000000000E+00 0. -1.
<mgrwt>
<rscale>  0 0.19845715E+04</rscale>
<asrwt>0</asrwt>
<pdfrwt beam="1">  1        1 0.22417117E+00 0.19845715E+04</pdfrwt>
<pdfrwt beam="2">  1       -1 0.10396019E+00 0.19845715E+04</pdfrwt>
<totfact> 0.56709926E+00</totfact>
</mgrwt>
</event>
<event>
 6    1  0.1780144E-005  0.3802399E+04  0.7818608E-02  0.8045640E-01
         -2   -1    0    0    0  501 -0.00000000000E+00  0.00000000000E+00  0.25343796668E+04  0.25343796668E+04  0.00000000000E+00 0.  1.
          2   -1    0    0  501    0  0.00000000000E+00 -0.00000000000E+00 -0.14262107133E+04  0.14262107133E+04  0.00000000000E+00 0. -1.
         23    2    1    2    0    0 -0.14225932314E+04 -0.53975904588E+03 -0.63086227322E+03  0.16498889850E+04  0.95053277897E+02 0.  0.
         13    1    3    3    0    0 -0.62727074766E+03 -0.28119924520E+03 -0.25800761783E+03  0.73424078968E+03  0.00000000000E+00 0. -1.
        -13    1    3    3    0    0 -0.79532248371E+03 -0.25855980068E+03 -0.37285465540E+03  0.91564819536E+03  0.00000000000E+00 0.  1.
         22    1    1    2    0    0  0.14225932314E+04  0.53975904588E+03  0.17390312267E+04  0.23107013951E+04  0.00000000000E+00 0.  1.
<mgrwt>
<rscale>  0 0.38023989E+04</rscale>
<asrwt>0</asrwt>
<pdfrwt beam="1">  1        2 0.21941703E+00 0.38023989E+04</pdfrwt>
<pdfrwt beam="2">  1       -2 0.38990456E+00 0.38023989E+04</pdfrwt>
<totfact> 0.96736864E-02</totfact>
</mgrwt>
</event>
<event>
 6    1  0.1780144E-005  0.1219052E+04  0.7818608E-02  0.9096342E-01
          1   -1    0    0  501    0  0.00000000000E+00  0.00000000000E+00  0.13991833774E+04  0.13991833774E+04  0.00000000000E+00 0. -1.
         -1   -1    0    0    0  501 -0.00000000000E+00 -0.00000000000E+00 -0.26552752526E+03  0.26552752526E+03  0.00000000000E+00 0.  1.
         23    2    1    2    0    0  0.35116525378E+03 -0.27890540705E+03  0.11268826038E+04  0.12162121419E+04  0.90566603942E+02 0.  0.
         11    1    3    3    0    0  0.10391436197E+03 -0.10161123189E+03  0.47674645206E+03  0.49840768114E+03  0.00000000000E+00 0.  1.
        -11    1    3    3    0    0  0.24725089181E+03 -0.17729417516E+03  0.65013615174E+03  0.71780446074E+03  0.00000000000E+00 0. -1.
         22    1    1    2    0    0 -0.35116525378E+03  0.27890540705E+03  0.67732483592E+01  0.44849876080E+03  0.00000000000E+00 0.  1.
<mgrwt>
<rscale>  0 0.12190516E+04</rscale>
<asrwt>0</asrwt>
<pdfrwt beam="1">  1        1 0.21525898E+00 0.12190516E+04</pdfrwt>
<pdfrwt beam="2">  1       -1 0.40850389E-01 0.12190516E+04</pdfrwt>
<totfact> 0.44542682E+01</totfact>
</mgrwt>
</event>
<event>
 6    1  0.1780144E-005  0.2800760E+04  0.7818608E-02  0.8303032E-01
          2   -1    0    0  501    0  0.00000000000E+00  0.00000000000E+00  0.33967739861E+04  0.33967739861E+04  0.00000000000E+00 0. -1.
         -2   -1    0    0    0  501 -0.00000000000E+00 -0.00000000000E+00 -0.57733138814E+03  0.57733138814E+03  0.00000000000E+00 0.  1.
         23    2    1    2    0    0  0.44964150496E+03 -0.99280994675E+03  0.16757345279E+03  0.11070059626E+04  0.97633322831E+02 0.  0.
         13    1    3    3    0    0  0.52115973409E+02 -0.12401425558E+03 -0.11260812566E+02  0.13499042993E+03  0.00000000000E+00 0. -1.
        -13    1    3    3    0    0  0.39752553155E+03 -0.86879569117E+03  0.17883426536E+03  0.97201553264E+03  0.00000000000E+00 0.  1.
         22    1    1    2    0    0 -0.44964150496E+03  0.99280994675E+03  0.26518691452E+04  0.28670994117E+04  0.00000000000E+00 0. -1.
<mgrwt>
<rscale>  0 0.28007601E+04</rscale>
<asrwt>0</asrwt>
<pdfrwt beam="1">  1        2 0.52258060E+00 0.28007601E+04</pdfrwt>
<pdfrwt beam="2">  1       -2 0.88820216E-01 0.28007601E+04</pdfrwt>
<totfact> 0.90812822E-01</totfact>
</mgrwt>
</event>
<event>
 6    1  0.1780144E-005  0.8424581E+03  0.7818608E-02  0.9500516E-01
         -2   -1    0    0    0  501 -0.00000000000E+00  0.00000000000E+00  0.63402685175E+02  0.63402685175E+02  0.00000000000E+00 0.  1.
          2   -1    0    0  501    0  0.00000000000E+00 -0.00000000000E+00 -0.27985233263E+04  0.27985233263E+04  0.00000000000E+00 0. -1.
         23    2    1    2    0    0 -0.34504029555E+03 -0.15401148578E+03 -0.79037949678E+03  0.88081761923E+03  0.91474510746E+02 0.  0.
         11    1    3    3    0    0 -0.23098906717E+03 -0.13585575538E+03 -0.61475831301E+03  0.67062695953E+03  0.00000000000E+00 0. -1.
        -11    1    3    3    0    0 -0.11405122838E+03 -0.18155730399E+02 -0.17562118376E+03  0.21019065971E+03  0.00000000000E+00 0.  1.
         22    1    1    2    0    0  0.34504029555E+03  0.15401148578E+03 -0.19447411444E+04  0.19811083923E+04  0.00000000000E+00 0. -1.
<mgrwt>
<rscale>  0 0.84245805E+03</rscale>
<asrwt>0</asrwt>
<pdfrwt beam="1">  1        2 0.43054185E+00 0.84245805E+03</pdfrwt>
<pdfrwt beam="2">  1       -2 0.97542638E-02 0.84245805E+03</pdfrwt>
<totfact> 0.17185824E+02</totfact>
</mgrwt>
</event>
<event>
 6    1  0.1780144E-005  0.5425287E+03  0.7818608E-02  0.1003238E+00
          2   -1    0    0  501    0  0.00000000000E+00  0.00000000000E+00  0.17778164878E+03  0.17778164878E+03  0.00000000000E+00 0. -1.
         -2   -1    0    0    0  501 -0.00000000000E+00 -0.00000000000E+00 -0.41390289203E+03  0.41390289203E+03  0.00000000000E+00 0.  1.
         23    2    1    2    0    0 -0.12044251922E+03 -0.80784440570E+02  0.11889036356E+03  0.20819299300E+03  0.90426088684E+02 0.  0.
         11    1    3    3    0    0 -0.69616141096E+02 -0.30272061352E+02  0.82303146110E+01  0.76357991581E+02  0.00000000000E+00 0. -1.
        -11    1    3    3    0    0 -0.50826378124E+02 -0.50512379218E+02  0.11066004895E+03  0.13183500142E+03  0.00000000000E+00 0.  1.
         22    1    1    2    0    0  0.12044251922E+03  0.80784440570E+02 -0.35501160680E+03  0.38349154780E+03  0.00000000000E+00 0.  1.
<mgrwt>
<rscale>  0 0.54252867E+03</rscale>
<asrwt>0</asrwt>
<pdfrwt beam="1">  1        2 0.27351023E-01 0.54252867E+03</pdfrwt>
<pdfrwt beam="2">  1       -2 0.63677367E-01 0.54252867E+03</pdfrwt>
<totfact> 0.45517902E+02</totfact>
</mgrwt>
</event>
<event>
 6    1  0.1780144E-005  0.8650787E+03  0.7818608E-02  0.9470319E-01
         -1   -1    0    0    0  501 -0.00000000000E+00  0.00000000000E+00  0.15794294364E+04  0.15794294364E+04  0.00000000000E+00 0.  1.
          1   -1    0    0  501    0  0.00000000000E+00 -0.00000000000E+00 -0.11845433875E+03  0.11845433875E+03  0.00000000000E+00 0. -1.
         23    2    1    2    0    0 -0.26419852641E+03  0.29653309601E+03  0.42682332110E+03  0.59009199177E+03  0.91091563412E+02 0.  0.
         13    1    3    3    0    0 -0.20455290872E+03  0.20504642270E+03  0.36004807834E+03  0.46208283526E+03  0.00000000000E+00 0. -1.
        -13    1    3    3    0    0 -0.59645617691E+02  0.91486673317E+02  0.66775242765E+02  0.12800915651E+03  0.00000000000E+00 0.  1.
         22    1    1    2    0    0  0.26419852641E+03 -0.29653309601E+03  0.10341517766E+04  0.11077917834E+04  0.00000000000E+00 0.  1.
<mgrwt>
<rscale>  0 0.86507865E+03</rscale>
<asrwt>0</asrwt>
<pdfrwt beam="1">  1        1 0.18223746E-01 0.86507865E+03</pdfrwt>
<pdfrwt beam="2">  1       -1 0.24298913E+00 0.86507865E+03</pdfrwt>
<totfact> 0.23467057E+01</totfact>
</mgrwt>
</event>
<event>
 6    1  0.1780144E-005  0.4268925E+04  0.7818608E-02  0.7952389E-01
          2   -1    0    0  501    0  0.00000000000E+00  0.00000000000E+00  0.47744087880E+04  0.47744087880E+04  0.00000000000E+00 0. -1.
         -2   -1    0    0    0  501 -0.00000000000E+00 -0.00000000000E+00 -0.95423952101E+03  0.95423952101E+03  0.00000000000E+00 0.  1.
         23    2    1    2    0    0  0.10097616714E+04 -0.10385475469E+04 -0.19103916643E+03  0.14639100126E+04  0.91306745864E+02 0.  0.
         11    1    3    3    0    0  0.17958134810E+03 -0.23035474825E+03 -0.56736348561E+02  0.29754291098E+03  0.00000000000E+00 0. -1.
        -11    1    3    3    0    0  0.83018032326E+03 -0.80819279868E+03 -0.13430281787E+03  0.11663671017E+04  0.00000000000E+00 0.  1.
         22    1    1    2    0    0 -0.10097616714E+04  0.10385475469E+04  0.40112084334E+04  0.42647382963E+04  0.00000000000E+00 0. -1.
<mgrwt>
<rscale>  0 0.42689247E+04</rscale>
<asrwt>0</asrwt>
<pdfrwt beam="1">  1        2 0.73452442E+00 0.42689247E+04</pdfrwt>
<pdfrwt beam="2">  1       -2 0.14680608E+00 0.42689247E+04</pdfrwt>
<totfact> 0.15404543E-02</totfact>
</mgrwt>
</event>
<event>
 6    1  0.1780144E-005  0.4774234E+04  0.7818608E-02  0.7864310E-01
         -2   -1    0    0    0  501 -0.00000000000E+00  0.00000000000E+00  0.18050484710E+04  0.18050484710E+04  0.00000000000E+00 0. -1.
          2   -1    0    0  501    0  0.00000000000E+00 -0.00000000000E+00 -0.31568829493E+04  0.31568829493E+04  0.00000000000E+00 0.  1.
         23    2    1    2    0    0 -0.14088495080E+03  0.62792531403E+03  0.17120355364E+04  0.18312065464E+04  0.90072016952E+02 0.  0.
         11    1    3    3    0    0 -0.71846620164E+02  0.19109801769E+03  0.63107424155E+03  0.66327602666E+03  0.00000000000E+00 0. -1.
        -11    1    3    3    0    0 -0.69038330636E+02  0.43682729634E+03  0.10809612949E+04  0.11679305197E+04  0.00000000000E+00 0.  1.
         22    1    1    2    0    0  0.14088495080E+03 -0.62792531403E+03 -0.30638700147E+04  0.31307248740E+04  0.00000000000E+00 0.  1.
<mgrwt>
<rscale>  0 0.47742337E+04</rscale>
<asrwt>0</asrwt>
<pdfrwt beam="1">  1        2 0.48567430E+00 0.47742337E+04</pdfrwt>
<pdfrwt beam="2">  1       -2 0.27769977E+00 0.47742337E+04</pdfrwt>
<totfact> 0.44554021E-02</totfact>
</mgrwt>
</event>
<event>
 6    1  0.1780144E-005  0.1654127E+04  0.7818608E-02  0.8787969E-01
         -1   -1    0    0    0  501 -0.00000000000E+00  0.00000000000E+00  0.19580196329E+04  0.19580196329E+04  0.00000000000E+00 0.  1.
          1   -1    0    0  501    0  0.00000000000E+00 -0.00000000000E+00 -0.34934974417E+03  0.34934974417E+03  0.00000000000E+00 0. -1.
         23    2    1    2    0    0  0.46908670789E+03  0.13459762022E+03  0.17338995610E+04  0.18035426909E+04  0.90552147627E+02 0.  0.
         13    1    3    3    0    0  0.28983983148E+03  0.92621262481E+02  0.91733864048E+03  0.96648642385E+03  0.00000000000E+00 0. -1.
        -13    1    3    3    0    0  0.17924687641E+03  0.41976357739E+02  0.81656092050E+03  0.83705626704E+03  0.00000000000E+00 0.  1.
         22    1    1    2    0    0 -0.46908670789E+03 -0.13459762022E+03 -0.12522967225E+03  0.50382668617E+03  0.00000000000E+00 0. -1.
<mgrwt>
<rscale>  0 0.16541265E+04</rscale>
<asrwt>0</asrwt>
<pdfrwt beam="1">  1        1 0.53746116E-01 0.16541265E+04</pdfrwt>
<pdfrwt beam="2">  1       -1 0.30123378E+00 0.16541265E+04</pdfrwt>
<totfact> 0.22275346E+00</totfact>
</mgrwt>
</event>
<event>
 6    1  0.1780144E-005  0.1947124E+04  0.7818608E-02  0.8631749E-01
          1   -1    0    0  501    0  0.00000000000E+00  0.00000000000E+00  0.18912529703E+04  0.18912529703E+04  0.00000000000E+00 0. -1.
         -1   -1    0    0    0  501 -0.00000000000E+00 -0.00000000000E+00 -0.50116150088E+03  0.50116150088E+03  0.00000000000E+00 0.  1.
         23    2    1    2    0    0 -0.76861364445E+02  0.95270495072E+03  0.48330133060E+03  0.10749082099E+04  0.91066410891E+02 0.  0.
         11    1    3    3    0    0  0.17640492637E+02  0.21058211478E+03  0.12357950595E+03  0.24480177356E+03  0.00000000000E+00 0. -1.
        -11    1    3    3    0    0 -0.94501857082E+02  0.74212283594E+03  0.35972182464E+03  0.83010643639E+03  0.00000000000E+00 0.  1.
         22    1    1    2    0    0  0.76861364445E+02 -0.95270495072E+03  0.90679013878E+03  0.13175062612E+04  0.00000000000E+00 0. -1.
<mgrwt>
<rscale>  0 0.19471242E+04</rscale>
<asrwt>0</asrwt>
<pdfrwt beam="1">  1        1 0.29096199E+00 0.19471242E+04</pdfrwt>
<pdfrwt beam="2">  1       -1 0.77101770E-01 0.19471242E+04</pdfrwt>
<totfact> 0.55519831E+00</totfact>
</mgrwt>
</event>
<event>
 6    1  0.1780144E-005  0.3700091E+04  0.7818608E-02  0.8067942E-01
          1   -1    0    0  501    0  0.00000000000E+00  0.00000000000E+00  0.13210012681E+04  0.13210012681E+04  0.00000000000E+00 0. -1.
         -1   -1    0    0    0  501 -0.00000000000E+00 -0.00000000000E+00 -0.25909656420E+04  0.25909656420E+04  0.00000000000E+00 0.  1.
         23    2    1    2    0    0 -0.39060508474E+03  0.18024700717E+04 -0.49710401355E+03  0.19122709761E+04  0.90538356563E+02 0.  0.
         11    1    3    3    0    0 -0.14068667561E+03  0.83488546335E+03 -0.25090252111E+03  0.88305070790E+03  0.00000000000E+00 0.  1.
        -11    1    3    3    0    0 -0.24991840913E+03  0.96758460839E+03 -0.24620149243E+03  0.10292202682E+04  0.00000000000E+00 0. -1.
         22    1    1    2    0    0  0.39060508474E+03 -0.18024700717E+04 -0.77286036043E+03  0.19996959340E+04  0.00000000000E+00 0.  1.
<mgrwt>
<rscale>  0 0.37000913E+04</rscale>
<asrwt>0</asrwt>
<pdfrwt beam="1">  1        1 0.20323097E+00 0.37000913E+04</pdfrwt>
<pdfrwt beam="2">  1       -1 0.39861010E+00 0.37000913E+04</pdfrwt>
<totfact> 0.51222966E-02</totfact>
</mgrwt>
</event>
<event>
 6    1  0.1780144E-005  0.9826966E+03  0.7818608E-02  0.9327729E-01
         -1   -1    0    0    0  501 -0.00000000000E+00  0.00000000000E+00  0.81584013140E+03  0.81584013140E+03  0.00000000000E+00 0.  1.
          1   -1    0    0  501    0  0.00000000000E+00 -0.00000000000E+00 -0.29591966796E+03  0.29591966796E+03  0.00000000000E+00 0. -1.
         23    2    1    2    0    0  0.31259221719E+03 -0.52056509720E+02 -0.15625419709E+03  0.36500954258E+03  0.91612322408E+02 0.  0.
         13    1    3    3    0    0  0.13002283703E+03  0.15614854452E+02 -0.34707538101E+02  0.13547831941E+03  0.00000000000E+00 0. -1.
        -13    1    3    3    0    0  0.18256938016E+03 -0.67671364171E+02 -0.12154665899E+03  0.22953122317E+03  0.00000000000E+00 0.  1.
         22    1    1    2    0    0 -0.31259221719E+03  0.52056509720E+02  0.67617466053E+03  0.74675025677E+03  0.00000000000E+00 0.  1.
<mgrwt>
<rscale>  0 0.98269658E+03</rscale>
<asrwt>0</asrwt>
<pdfrwt beam="1">  1        1 0.45526103E-01 0.98269658E+03</pdfrwt>
<pdfrwt beam="2">  1       -1 0.12551387E+00 0.98269658E+03</pdfrwt>
<totfact> 0.49639459E+01</totfact>
</mgrwt>
</event>
<event>
 6    1  0.1780144E-005  0.1566272E+04  0.7818608E-02  0.8841541E-01
          2   -1    0    0  501    0  0.00000000000E+00  0.00000000000E+00  0.22186635723E+04  0.22186635723E+04  0.00000000000E+00 0. -1.
         -2   -1    0    0    0  501 -0.00000000000E+00 -0.00000000000E+00 -0.27642844349E+03  0.27642844349E+03  0.00000000000E+00 0.  1.
         23    2    1    2    0    0  0.19254417964E+03 -0.37668408010E+03 -0.70458660319E+02  0.43841983820E+03  0.91013045201E+02 0.  0.
         13    1    3    3    0    0  0.83865522065E+02 -0.18614291554E+03 -0.78957821419E+02  0.21889940238E+03  0.00000000000E+00 0. -1.
        -13    1    3    3    0    0  0.10867865757E+03 -0.19054116455E+03  0.84991610997E+01  0.21952043582E+03  0.00000000000E+00 0.  1.
         22    1    1    2    0    0 -0.19254417964E+03  0.37668408010E+03  0.20126937891E+04  0.20566721775E+04  0.00000000000E+00 0. -1.
<mgrwt>
<rscale>  0 0.15662716E+04</rscale>
<asrwt>0</asrwt>
<pdfrwt beam="1">  1        2 0.34133285E+00 0.15662716E+04</pdfrwt>
<pdfrwt beam="2">  1       -2 0.42527454E-01 0.15662716E+04</pdfrwt>
<totfact> 0.25421864E+01</totfact>
</mgrwt>
</event>
<event>
 6    1  0.1780144E-005  0.3648019E+04  0.7818608E-02  0.8079580E-01
          2   -1    0    0  501    0  0.00000000000E+00  0.00000000000E+00  0.23336856306E+04  0.23336856306E+04  0.00000000000E+00 0.  1.
         -2   -1    0    0    0  501 -0.00000000000E+00 -0.00000000000E+00 -0.14256467222E+04  0.14256467222E+04  0.00000000000E+00 0. -1.
         23    2    1    2    0    0  0.46293404858E+03 -0.23007932243E+02 -0.13623397287E+04  0.14421235893E+04  0.94411928370E+02 0.  0.
         13    1    3    3    0    0  0.16085115121E+03  0.36271813381E+02 -0.49944704481E+03  0.52596205934E+03  0.00000000000E+00 0. -1.
        -13    1    3    3    0    0  0.30208289737E+03 -0.59279745624E+02 -0.86289268387E+03  0.91616152997E+03  0.00000000000E+00 0.  1.
         22    1    1    2    0    0 -0.46293404858E+03  0.23007932243E+02  0.22703786371E+04  0.23172087636E+04  0.00000000000E+00 0.  1.
<mgrwt>
<rscale>  0 0.36480193E+04</rscale>
<asrwt>0</asrwt>
<pdfrwt beam="1">  1        2 0.35902856E+00 0.36480193E+04</pdfrwt>
<pdfrwt beam="2">  1       -2 0.21933027E+00 0.36480193E+04</pdfrwt>
<totfact> 0.35149955E-01</totfact>
</mgrwt>
</event>
<event>
 6    1  0.1780144E-005  0.1476720E+04  0.7818608E-02  0.8900083E-01
          1   -1    0    0  501    0  0.00000000000E+00  0.00000000000E+00  0.41213478276E+03  0.41213478276E+03  0.00000000000E+00 0. -1.
         -1   -1    0    0    0  501 -0.00000000000E+00 -0.00000000000E+00 -0.13228083393E+04  0.13228083393E+04  0.00000000000E+00 0.  1.
         23    2    1    2    0    0  0.15912951540E+03  0.47818168860E+03 -0.10864563910E+04  0.12012020473E+04  0.92298098151E+02 0.  0.
         13    1    3    3    0    0  0.10573929710E+03  0.41824371948E+03 -0.93747368156E+03  0.10319716621E+04  0.00000000000E+00 0. -1.
        -13    1    3    3    0    0  0.53390218304E+02  0.59937969120E+02 -0.14898270949E+03  0.16923038521E+03  0.00000000000E+00 0.  1.
         22    1    1    2    0    0 -0.15912951540E+03 -0.47818168860E+03  0.17578283446E+03  0.53374107475E+03  0.00000000000E+00 0. -1.
<mgrwt>
<rscale>  0 0.14767198E+04</rscale>
<asrwt>0</asrwt>
<pdfrwt beam="1">  1        1 0.63405351E-01 0.14767198E+04</pdfrwt>
<pdfrwt beam="2">  1       -1 0.20350898E+00 0.14767198E+04</pdfrwt>
<totfact> 0.79526132E+00</totfact>
</mgrwt>
</event>
<event>
 6    1  0.1780144E-005  0.2261922E+04  0.7818608E-02  0.8493088E-01
          2   -1    0    0  501    0  0.00000000000E+00  0.00000000000E+00  0.91903138883E+03  0.91903138883E+03  0.00000000000E+00 0. -1.
         -2   -1    0    0    0  501 -0.00000000000E+00 -0.00000000000E+00 -0.13917617214E+04  0.13917617214E+04  0.00000000000E+00 0.  1.
         23    2    1    2    0    0 -0.29409149212E+03 -0.64685324876E+03 -0.11332601187E+04  0.13406340874E+04  0.90068465399E+02 0.  0.
         13    1    3    3    0    0 -0.25585058217E+03 -0.53440644489E+03 -0.87954453476E+03  0.10604943929E+04  0.00000000000E+00 0. -1.
        -13    1    3    3    0    0 -0.38240909953E+02 -0.11244680388E+03 -0.25371558399E+03  0.28013969454E+03  0.00000000000E+00 0.  1.
         22    1    1    2    0    0  0.29409149212E+03  0.64685324876E+03  0.66052978615E+03  0.97015902283E+03  0.00000000000E+00 0. -1.
<mgrwt>
<rscale>  0 0.22619219E+04</rscale>
<asrwt>0</asrwt>
<pdfrwt beam="1">  1        2 0.14138944E+00 0.22619219E+04</pdfrwt>
<pdfrwt beam="2">  1       -2 0.21411719E+00 0.22619219E+04</pdfrwt>
<totfact> 0.27886024E+00</totfact>
</mgrwt>
</event>
<event>
 6    1  0.1780144E-005  0.1399292E+04  0.7818608E-02  0.8954331E-01
         -2   -1    0    0    0  501 -0.00000000000E+00  0.00000000000E+00  0.87501188599E+03  0.87501188599E+03  0.00000000000E+00 0. -1.
          2   -1    0    0  501    0  0.00000000000E+00 -0.00000000000E+00 -0.55942606843E+03  0.55942606843E+03  0.00000000000E+00 0.  1.
         23    2    1    2    0    0  0.10404077555E+03  0.52736498723E+03 -0.29607738810E+03  0.62014673508E+03  0.89341146971E+02 0.  0.
         13    1    3    3    0    0  0.56114980861E+02  0.32797212107E+03 -0.23075440098E+03  0.40492245782E+03  0.00000000000E+00 0. -1.
        -13    1    3    3    0    0  0.47925794686E+02  0.19939286616E+03 -0.65322987125E+02  0.21522427725E+03  0.00000000000E+00 0.  1.
         22    1    1    2    0    0 -0.10404077555E+03 -0.52736498723E+03  0.61166320567E+03  0.81429121935E+03  0.00000000000E+00 0. -1.
<mgrwt>
<rscale>  0 0.13992919E+04</rscale>
<asrwt>0</asrwt>
<pdfrwt beam="1">  1        2 0.86065549E-01 0.13992919E+04</pdfrwt>
<pdfrwt beam="2">  1       -2 0.13461721E+00 0.13992919E+04</pdfrwt>
<totfact> 0.20856392E+01</totfact>
</mgrwt>
</event>
<event>
 6    1  0.1780144E-005  0.2501445E+04  0.7818608E-02  0.8402471E-01
         -3   -1    0    0    0  501 -0.00000000000E+00  0.00000000000E+00  0.23831203091E+04  0.23831203091E+04  0.00000000000E+00 0.  1.
          3   -1    0    0  501    0  0.00000000000E+00 -0.00000000000E+00 -0.65641107598E+03  0.65641107598E+03  0.00000000000E+00 0. -1.
         23    2    1    2    0    0 -0.94365568890E+03 -0.16234068255E+03 -0.10993204006E+03  0.96827772539E+03  0.92930854126E+02 0.  0.
         11    1    3    3    0    0 -0.62120798368E+03 -0.10077162112E+03 -0.28083545573E+02  0.62995473182E+03  0.00000000000E+00 0.  1.
        -11    1    3    3    0    0 -0.32244770522E+03 -0.61569061428E+02 -0.81848494492E+02  0.33832299357E+03  0.00000000000E+00 0. -1.
         22    1    1    2    0    0  0.94365568890E+03  0.16234068255E+03  0.18366412732E+04  0.20712536597E+04  0.00000000000E+00 0.  1.
<mgrwt>
<rscale>  0 0.25014448E+04</rscale>
<asrwt>0</asrwt>
<pdfrwt beam="1">  1        3 0.10098632E+00 0.25014448E+04</pdfrwt>
<pdfrwt beam="2">  1       -3 0.36663389E+00 0.25014448E+04</pdfrwt>
<totfact> 0.32147478E-02</totfact>
</mgrwt>
</event>
<event>
 6    1  0.1780144E-005  0.4034677E+04  0.7818608E-02  0.7997587E-01
          2   -1    0    0  501    0  0.00000000000E+00  0.00000000000E+00  0.32765479287E+04  0.32765479287E+04  0.00000000000E+00 0. -1.
         -2   -1    0    0    0  501 -0.00000000000E+00 -0.00000000000E+00 -0.12420557473E+04  0.12420557473E+04  0.00000000000E+00 0.  1.
         23    2    1    2    0    0  0.15703187433E+04  0.12642874497E+04  0.10539281475E+04  0.22767674788E+04  0.92638552912E+02 0.  0.
         11    1    3    3    0    0  0.29604791726E+03  0.19933458402E+03  0.16628398608E+03  0.39373723437E+03  0.00000000000E+00 0.  1.
        -11    1    3    3    0    0  0.12742708260E+04  0.10649528656E+04  0.88764416139E+03  0.18830302444E+04  0.00000000000E+00 0. -1.
         22    1    1    2    0    0 -0.15703187433E+04 -0.12642874497E+04  0.98056403394E+03  0.22418361973E+04  0.00000000000E+00 0.  1.
<mgrwt>
<rscale>  0 0.40346773E+04</rscale>
<asrwt>0</asrwt>
<pdfrwt beam="1">  1        2 0.50408429E+00 0.40346773E+04</pdfrwt>
<pdfrwt beam="2">  1       -2 0.19108550E+00 0.40346773E+04</pdfrwt>
<totfact> 0.13828621E-01</totfact>
</mgrwt>
</event>
<event>
 6    1  0.1780144E-005  0.2877500E+04  0.7818608E-02  0.8279604E-01
         -2   -1    0    0    0  501 -0.00000000000E+00  0.00000000000E+00  0.98882392193E+03  0.98882392193E+03  0.00000000000E+00 0. -1.
          2   -1    0    0  501    0  0.00000000000E+00 -0.00000000000E+00 -0.20933975391E+04  0.20933975391E+04  0.00000000000E+00 0.  1.
         23    2    1    2    0    0  0.84846864204E+03  0.91138432063E+02  0.68650338252E+03  0.10982451333E+04  0.81548931269E+02 0.  0.
         11    1    3    3    0    0  0.48672266089E+03  0.12715745860E+02  0.37825242802E+03  0.61655132643E+03  0.00000000000E+00 0. -1.
        -11    1    3    3    0    0  0.36174598115E+03  0.78422686202E+02  0.30825095450E+03  0.48169380683E+03  0.00000000000E+00 0.  1.
         22    1    1    2    0    0 -0.84846864204E+03 -0.91138432063E+02 -0.17910769996E+04  0.19839763277E+04  0.00000000000E+00 0.  1.
<mgrwt>
<rscale>  0 0.28775000E+04</rscale>
<asrwt>0</asrwt>
<pdfrwt beam="1">  1        2 0.32206115E+00 0.28775000E+04</pdfrwt>
<pdfrwt beam="2">  1       -2 0.15212676E+00 0.28775000E+04</pdfrwt>
<totfact> 0.14788547E+00</totfact>
</mgrwt>
</event>
<event>
 6    1  0.1780144E-005  0.1575728E+04  0.7818608E-02  0.8835600E-01
          1   -1    0    0  501    0  0.00000000000E+00  0.00000000000E+00  0.17999728428E+04  0.17999728428E+04  0.00000000000E+00 0. -1.
         -1   -1    0    0    0  501 -0.00000000000E+00 -0.00000000000E+00 -0.34485482611E+03  0.34485482611E+03  0.00000000000E+00 0.  1.
         23    2    1    2    0    0  0.27191180929E+03  0.31770255182E+03  0.16346665515E+04  0.16897357883E+04  0.90561339946E+02 0.  0.
         13    1    3    3    0    0  0.19372020985E+03  0.27459201741E+03  0.12109224324E+04  0.12566866885E+04  0.00000000000E+00 0.  1.
        -13    1    3    3    0    0  0.78191599434E+02  0.43110534412E+02  0.42374411912E+03  0.43304909986E+03  0.00000000000E+00 0. -1.
         22    1    1    2    0    0 -0.27191180929E+03 -0.31770255182E+03 -0.17954853478E+03  0.45509188062E+03  0.00000000000E+00 0.  1.
<mgrwt>
<rscale>  0 0.15757275E+04</rscale>
<asrwt>0</asrwt>
<pdfrwt beam="1">  1        1 0.27691889E+00 0.15757275E+04</pdfrwt>
<pdfrwt beam="2">  1       -1 0.53054590E-01 0.15757275E+04</pdfrwt>
<totfact> 0.14034315E+01</totfact>
</mgrwt>
</event>
<event>
 6    1  0.1780144E-005  0.1282695E+04  0.7818608E-02  0.9043402E-01
          2   -1    0    0  501    0  0.00000000000E+00  0.00000000000E+00  0.66840235229E+03  0.66840235229E+03  0.00000000000E+00 0. -1.
         -2   -1    0    0    0  501 -0.00000000000E+00 -0.00000000000E+00 -0.61538784766E+03  0.61538784766E+03  0.00000000000E+00 0.  1.
         23    2    1    2    0    0 -0.19534067379E+03  0.95637768166E+02  0.62714789974E+03  0.66984092117E+03  0.89820988615E+02 0.  0.
         13    1    3    3    0    0 -0.50739105645E+02  0.30639258297E+02  0.76211265059E+02  0.96547283299E+02  0.00000000000E+00 0. -1.
        -13    1    3    3    0    0 -0.14460156815E+03  0.64998509869E+02  0.55093663468E+03  0.57329363787E+03  0.00000000000E+00 0.  1.
         22    1    1    2    0    0  0.19534067379E+03 -0.95637768166E+02 -0.57413339510E+03  0.61394927878E+03  0.00000000000E+00 0.  1.
<mgrwt>
<rscale>  0 0.12826951E+04</rscale>
<asrwt>0</asrwt>
<pdfrwt beam="1">  1        2 0.10283113E+00 0.12826951E+04</pdfrwt>
<pdfrwt beam="2">  1       -2 0.94675054E-01 0.12826951E+04</pdfrwt>
<totfact> 0.40051567E+01</totfact>
</mgrwt>
</event>
<event>
 6    1  0.1780144E-005  0.9276726E+03  0.7818608E-02  0.9391635E-01
          2   -1    0    0  501    0  0.00000000000E+00  0.00000000000E+00  0.61362786706E+03  0.61362786706E+03  0.00000000000E+00 0. -1.
         -2   -1    0    0    0  501 -0.00000000000E+00 -0.00000000000E+00 -0.35061010983E+03  0.35061010983E+03  0.00000000000E+00 0.  1.
         23    2    1    2    0    0  0.32425556535E+03  0.15869646320E+03 -0.16273790996E+03  0.40603180778E+03  0.89732728120E+02 0.  0.
         13    1    3    3    0    0  0.22658755252E+03  0.12416181212E+03 -0.71749734702E+02  0.26815312599E+03  0.00000000000E+00 0.  1.
        -13    1    3    3    0    0  0.97668012830E+02  0.34534651071E+02 -0.90988175258E+02  0.13787868179E+03  0.00000000000E+00 0. -1.
         22    1    1    2    0    0 -0.32425556535E+03 -0.15869646320E+03  0.42575566719E+03  0.55820616911E+03  0.00000000000E+00 0. -1.
<mgrwt>
<rscale>  0 0.92767264E+03</rscale>
<asrwt>0</asrwt>
<pdfrwt beam="1">  1        2 0.94404288E-01 0.92767264E+03</pdfrwt>
<pdfrwt beam="2">  1       -2 0.53940017E-01 0.92767264E+03</pdfrwt>
<totfact> 0.15659529E+02</totfact>
</mgrwt>
</event>
<event>
 6    1  0.1780144E-005  0.1307229E+04  0.7818608E-02  0.9023852E-01
         -2   -1    0    0    0  501 -0.00000000000E+00  0.00000000000E+00  0.24395781949E+03  0.24395781949E+03  0.00000000000E+00 0.  1.
          2   -1    0    0  501    0  0.00000000000E+00 -0.00000000000E+00 -0.17511709992E+04  0.17511709992E+04  0.00000000000E+00 0. -1.
         23    2    1    2    0    0 -0.14917753160E+03 -0.58734673443E+03 -0.39686576562E+03  0.73017763293E+03  0.91797697885E+02 0.  0.
         11    1    3    3    0    0 -0.10480855834E+03 -0.39352857722E+03 -0.21404182034E+03  0.46006899031E+03  0.00000000000E+00 0. -1.
        -11    1    3    3    0    0 -0.44368973258E+02 -0.19381815721E+03 -0.18282394528E+03  0.27010864262E+03  0.00000000000E+00 0.  1.
         22    1    1    2    0    0  0.14917753160E+03  0.58734673443E+03 -0.11103474140E+04  0.12649511857E+04  0.00000000000E+00 0. -1.
<mgrwt>
<rscale>  0 0.13072289E+04</rscale>
<asrwt>0</asrwt>
<pdfrwt beam="1">  1        2 0.26941092E+00 0.13072289E+04</pdfrwt>
<pdfrwt beam="2">  1       -2 0.37531972E-01 0.13072289E+04</pdfrwt>
<totfact> 0.60250519E+01</totfact>
</mgrwt>
</event>
<event>
 6    1  0.1780144E-005  0.1407665E+04  0.7818608E-02  0.8948289E-01
         -2   -1    0    0    0  501 -0.00000000000E+00  0.00000000000E+00  0.26730550636E+03  0.26730550636E+03  0.00000000000E+00 0.  1.
          2   -1    0    0  501    0  0.00000000000E+00 -0.00000000000E+00 -0.18532365868E+04  0.18532365868E+04  0.00000000000E+00 0. -1.
         23    2    1    2    0    0 -0.63979544090E+03  0.27357711962E+03 -0.66892138791E+03  0.96941680773E+03  0.90169159549E+02 0.  0.
         11    1    3    3    0    0 -0.12895139513E+03  0.19637124639E+02 -0.10767518736E+03  0.16913906983E+03  0.00000000000E+00 0. -1.
        -11    1    3    3    0    0 -0.51084404577E+03  0.25393999498E+03 -0.56124620055E+03  0.80027773790E+03  0.00000000000E+00 0.  1.
         22    1    1    2    0    0  0.63979544090E+03 -0.27357711962E+03 -0.91700969254E+03  0.11511252854E+04  0.00000000000E+00 0. -1.
<mgrwt>
<rscale>  0 0.14076652E+04</rscale>
<asrwt>0</asrwt>
<pdfrwt beam="1">  1        2 0.28511333E+00 0.14076652E+04</pdfrwt>
<pdfrwt beam="2">  1       -2 0.41123922E-01 0.14076652E+04</pdfrwt>
<totfact> 0.43925801E+01</totfact>
</mgrwt>
</event>
<event>
 6    1  0.1780144E-005  0.2505266E+04  0.7818608E-02  0.8401112E-01
          1   -1    0    0  501    0  0.00000000000E+00  0.00000000000E+00  0.26667529642E+04  0.26667529642E+04  0.00000000000E+00 0. -1.
         -1   -1    0    0    0  501 -0.00000000000E+00 -0.00000000000E+00 -0.58838972199E+03  0.58838972199E+03  0.00000000000E+00 0.  1.
         23    2    1    2    0    0  0.47715679678E+03 -0.16472092658E+03  0.25277588669E+04  0.25792965351E+04  0.91619507660E+02 0.  0.
         11    1    3    3    0    0  0.12750675250E+03 -0.88271427002E+02  0.74845114273E+03  0.76434869648E+03  0.00000000000E+00 0.  1.
        -11    1    3    3    0    0  0.34965004428E+03 -0.76449499580E+02  0.17793077242E+04  0.18149478386E+04  0.00000000000E+00 0. -1.
         22    1    1    2    0    0 -0.47715679678E+03  0.16472092658E+03 -0.44939562476E+03  0.67584615107E+03  0.00000000000E+00 0.  1.
<mgrwt>
<rscale>  0 0.25052665E+04</rscale>
<asrwt>0</asrwt>
<pdfrwt beam="1">  1        1 0.41026968E+00 0.25052665E+04</pdfrwt>
<pdfrwt beam="2">  1       -1 0.90521498E-01 0.25052665E+04</pdfrwt>
<totfact> 0.10966547E+00</totfact>
</mgrwt>
</event>
<event>
 6    1  0.1780144E-005  0.2849966E+04  0.7818608E-02  0.8287922E-01
         -2   -1    0    0    0  501 -0.00000000000E+00  0.00000000000E+00  0.67810246894E+03  0.67810246894E+03  0.00000000000E+00 0. -1.
          2   -1    0    0  501    0  0.00000000000E+00 -0.00000000000E+00 -0.29944977593E+04  0.29944977593E+04  0.00000000000E+00 0.  1.
         23    2    1    2    0    0  0.63292194360E+03 -0.11569365996E+04 -0.46883026152E+03  0.14026687275E+04  0.92656693427E+02 0.  0.
         13    1    3    3    0    0  0.32765111907E+03 -0.54039690064E+03 -0.26353356635E+03  0.68471454391E+03  0.00000000000E+00 0.  1.
        -13    1    3    3    0    0  0.30527082453E+03 -0.61653969896E+03 -0.20529669517E+03  0.71795418360E+03  0.00000000000E+00 0. -1.
         22    1    1    2    0    0 -0.63292194360E+03  0.11569365996E+04 -0.18475650289E+04  0.22699315007E+04  0.00000000000E+00 0.  1.
<mgrwt>
<rscale>  0 0.28499658E+04</rscale>
<asrwt>0</asrwt>
<pdfrwt beam="1">  1        2 0.46069196E+00 0.28499658E+04</pdfrwt>
<pdfrwt beam="2">  1       -2 0.10432346E+00 0.28499658E+04</pdfrwt>
<totfact> 0.11349634E+00</totfact>
</mgrwt>
</event>
<event>
 6    1  0.1780144E-005  0.3948304E+04  0.7818608E-02  0.8015057E-01
         -2   -1    0    0    0  501 -0.00000000000E+00  0.00000000000E+00  0.29797720556E+04  0.29797720556E+04  0.00000000000E+00 0.  1.
          2   -1    0    0  501    0  0.00000000000E+00 -0.00000000000E+00 -0.13079110124E+04  0.13079110124E+04  0.00000000000E+00 0. -1.
         23    2    1    2    0    0 -0.16116909979E+04 -0.11337643998E+04  0.72572811386E+03  0.21017880323E+04  0.88668204553E+02 0.  0.
         13    1    3    3    0    0 -0.72175435209E+03 -0.47621976378E+03  0.35641265499E+03  0.93527781371E+03  0.00000000000E+00 0. -1.
        -13    1    3    3    0    0 -0.88993664583E+03 -0.65754463606E+03  0.36931545887E+03  0.11665102186E+04  0.00000000000E+00 0.  1.
         22    1    1    2    0    0  0.16116909979E+04  0.11337643998E+04  0.94613292927E+03  0.21858950357E+04  0.00000000000E+00 0.  1.
<mgrwt>
<rscale>  0 0.39483043E+04</rscale>
<asrwt>0</asrwt>
<pdfrwt beam="1">  1        2 0.20121708E+00 0.39483043E+04</pdfrwt>
<pdfrwt beam="2">  1       -2 0.45842647E+00 0.39483043E+04</pdfrwt>
<totfact> 0.39566705E-02</totfact>
</mgrwt>
</event>
<event>
 6    1  0.1780144E-005  0.1384797E+04  0.7818608E-02  0.8964898E-01
          3   -1    0    0  501    0  0.00000000000E+00  0.00000000000E+00  0.92507825755E+03  0.92507825755E+03  0.00000000000E+00 0. -1.
         -3   -1    0    0    0  501 -0.00000000000E+00 -0.00000000000E+00 -0.51824312970E+03  0.51824312970E+03  0.00000000000E+00 0.  1.
         23    2    1    2    0    0 -0.45110183299E+03  0.43958273346E+03 -0.87683108719E+02  0.64252545221E+03  0.91786632442E+02 0.  0.
         11    1    3    3    0    0 -0.20027404795E+03  0.14680742894E+03 -0.57390529516E+01  0.24838488723E+03  0.00000000000E+00 0. -1.
        -11    1    3    3    0    0 -0.25082778503E+03  0.29277530453E+03 -0.81944055767E+02  0.39414056498E+03  0.00000000000E+00 0.  1.
         22    1    1    2    0    0  0.45110183299E+03 -0.43958273346E+03  0.49451823657E+03  0.80079593505E+03  0.00000000000E+00 0. -1.
<mgrwt>
<rscale>  0 0.13847967E+04</rscale>
<asrwt>0</asrwt>
<pdfrwt beam="1">  1        3 0.14231973E+00 0.13847967E+04</pdfrwt>
<pdfrwt beam="2">  1       -3 0.79729712E-01 0.13847967E+04</pdfrwt>
<totfact> 0.13854819E+00</totfact>
</mgrwt>
</event>
<event>
 6    1  0.1783099E-005  0.3295466E+04  0.7818608E-02  0.8164050E-01
         -2   -1    0    0    0  501 -0.00000000000E+00  0.00000000000E+00  0.12231828575E+04  0.12231828575E+04  0.00000000000E+00 0.  1.
          2   -1    0    0  501    0  0.00000000000E+00 -0.00000000000E+00 -0.22196388645E+04  0.22196388645E+04  0.00000000000E+00 0. -1.
         23    2    1    2    0    0  0.15178519343E+04 -0.62682173068E+03 -0.62225094441E+03  0.17585386682E+04  0.92097955074E+02 0.  0.
         11    1    3    3    0    0  0.86435440302E+03 -0.37431458801E+03 -0.31113707221E+03  0.99198095875E+03  0.00000000000E+00 0.  1.
        -11    1    3    3    0    0  0.65349753124E+03 -0.25250714267E+03 -0.31111387220E+03  0.76655770945E+03  0.00000000000E+00 0. -1.
         22    1    1    2    0    0 -0.15178519343E+04  0.62682173068E+03 -0.37420506256E+03  0.16842830538E+04  0.00000000000E+00 0.  1.
<mgrwt>
<rscale>  0 0.32954661E+04</rscale>
<asrwt>0</asrwt>
<pdfrwt beam="1">  1        2 0.34148290E+00 0.32954661E+04</pdfrwt>
<pdfrwt beam="2">  1       -2 0.18818198E+00 0.32954661E+04</pdfrwt>
<totfact> 0.67055956E-01</totfact>
</mgrwt>
</event>
<event>
 6    1  0.1780144E-005  0.3304425E+04  0.7818608E-02  0.8161770E-01
          2   -1    0    0  501    0  0.00000000000E+00  0.00000000000E+00  0.15081355655E+04  0.15081355655E+04  0.00000000000E+00 0. -1.
         -2   -1    0    0    0  501 -0.00000000000E+00 -0.00000000000E+00 -0.18100532419E+04  0.18100532419E+04  0.00000000000E+00 0.  1.
         23    2    1    2    0    0  0.60242791529E+03 -0.13685609008E+04  0.55160301386E+03  0.15964525032E+04  0.92284222740E+02 0.  0.
         13    1    3    3    0    0  0.40654376357E+03 -0.88697499969E+03  0.40369858007E+03  0.10559237782E+04  0.00000000000E+00 0. -1.
        -13    1    3    3    0    0  0.19588415172E+03 -0.48158590109E+03  0.14790443379E+03  0.54052872501E+03  0.00000000000E+00 0.  1.
         22    1    1    2    0    0 -0.60242791529E+03  0.13685609008E+04 -0.85352069027E+03  0.17217363041E+04  0.00000000000E+00 0. -1.
<mgrwt>
<rscale>  0 0.33044247E+04</rscale>
<asrwt>0</asrwt>
<pdfrwt beam="1">  1        2 0.23202086E+00 0.33044247E+04</pdfrwt>
<pdfrwt beam="2">  1       -2 0.27846973E+00 0.33044247E+04</pdfrwt>
<totfact> 0.45119555E-01</totfact>
</mgrwt>
</event>
<event>
 6    1  0.1780144E-005  0.1907045E+04  0.7818608E-02  0.8651357E-01
          1   -1    0    0  501    0  0.00000000000E+00  0.00000000000E+00  0.96261909593E+03  0.96261909593E+03  0.00000000000E+00 0. -1.
         -1   -1    0    0    0  501 -0.00000000000E+00 -0.00000000000E+00 -0.94451208648E+03  0.94451208648E+03  0.00000000000E+00 0.  1.
         23    2    1    2    0    0  0.54860275337E+03 -0.55206015002E+03 -0.53766381342E+03  0.95077528747E+03  0.95686366614E+02 0.  0.
         11    1    3    3    0    0  0.38799854708E+03 -0.44308497223E+03 -0.38216906031E+03  0.70208286961E+03  0.00000000000E+00 0. -1.
        -11    1    3    3    0    0  0.16060420629E+03 -0.10897517779E+03 -0.15549475310E+03  0.24869241785E+03  0.00000000000E+00 0.  1.
         22    1    1    2    0    0 -0.54860275337E+03  0.55206015002E+03  0.55577082287E+03  0.95635589495E+03  0.00000000000E+00 0. -1.
<mgrwt>
<rscale>  0 0.19070452E+04</rscale>
<asrwt>0</asrwt>
<pdfrwt beam="1">  1        1 0.14809525E+00 0.19070452E+04</pdfrwt>
<pdfrwt beam="2">  1       -1 0.14530955E+00 0.19070452E+04</pdfrwt>
<totfact> 0.57536557E+00</totfact>
</mgrwt>
</event>
<event>
 6    1  0.1780144E-005  0.1398804E+04  0.7818608E-02  0.8954684E-01
          1   -1    0    0  501    0  0.00000000000E+00  0.00000000000E+00  0.67438207238E+03  0.67438207238E+03  0.00000000000E+00 0. -1.
         -1   -1    0    0    0  501 -0.00000000000E+00 -0.00000000000E+00 -0.72535064784E+03  0.72535064784E+03  0.00000000000E+00 0.  1.
         23    2    1    2    0    0 -0.25979493918E+02 -0.15319742813E+03  0.65349267928E+03  0.67833820574E+03  0.94581464441E+02 0.  0.
         13    1    3    3    0    0 -0.14153956090E+02 -0.72373988192E+01  0.22407457167E+03  0.22463777083E+03  0.00000000000E+00 0.  1.
        -13    1    3    3    0    0 -0.11825537828E+02 -0.14596002931E+03  0.42941810761E+03  0.45370043491E+03  0.00000000000E+00 0. -1.
         22    1    1    2    0    0  0.25979493918E+02  0.15319742813E+03 -0.70446125473E+03  0.72139451447E+03  0.00000000000E+00 0.  1.
<mgrwt>
<rscale>  0 0.13988045E+04</rscale>
<asrwt>0</asrwt>
<pdfrwt beam="1">  1        1 0.10375109E+00 0.13988045E+04</pdfrwt>
<pdfrwt beam="2">  1       -1 0.11159241E+00 0.13988045E+04</pdfrwt>
<totfact> 0.20741666E+01</totfact>
</mgrwt>
</event>
<event>
 6    1  0.1780144E-005  0.2713489E+04  0.7818608E-02  0.8330641E-01
          1   -1    0    0  501    0  0.00000000000E+00  0.00000000000E+00  0.10355457278E+04  0.10355457278E+04  0.00000000000E+00 0. -1.
         -1   -1    0    0    0  501 -0.00000000000E+00 -0.00000000000E+00 -0.17775709846E+04  0.17775709846E+04  0.00000000000E+00 0.  1.
         23    2    1    2    0    0 -0.93421248385E+03 -0.92385097183E+03 -0.71587818487E+03  0.14989868662E+04  0.90699869426E+02 0.  0.
         13    1    3    3    0    0 -0.40119207700E+03 -0.46012527472E+03 -0.33617606627E+03  0.69691082544E+03  0.00000000000E+00 0. -1.
        -13    1    3    3    0    0 -0.53302040686E+03 -0.46372569711E+03 -0.37970211860E+03  0.80207604076E+03  0.00000000000E+00 0.  1.
         22    1    1    2    0    0  0.93421248385E+03  0.92385097183E+03 -0.26147071943E+02  0.13141298461E+04  0.00000000000E+00 0. -1.
<mgrwt>
<rscale>  0 0.27134893E+04</rscale>
<asrwt>0</asrwt>
<pdfrwt beam="1">  1        1 0.15931473E+00 0.27134893E+04</pdfrwt>
<pdfrwt beam="2">  1       -1 0.27347246E+00 0.27134893E+04</pdfrwt>
<totfact> 0.60745561E-01</totfact>
</mgrwt>
</event>
<event>
 6    1  0.1780144E-005  0.2277113E+04  0.7818608E-02  0.8487000E-01
         -1   -1    0    0    0  501 -0.00000000000E+00  0.00000000000E+00  0.66871286135E+03  0.66871286135E+03  0.00000000000E+00 0.  1.
          1   -1    0    0  501    0  0.00000000000E+00 -0.00000000000E+00 -0.19385164796E+04  0.19385164796E+04  0.00000000000E+00 0. -1.
         23    2    1    2    0    0 -0.21593797003E+03  0.67496591300E+03  0.38172114601E+03  0.81008097824E+03  0.91169991678E+02 0.  0.
         11    1    3    3    0    0 -0.11949483356E+03  0.50619013893E+03  0.27545178107E+03  0.58854154967E+03  0.00000000000E+00 0.  1.
        -11    1    3    3    0    0 -0.96443136470E+02  0.16877577407E+03  0.10626936494E+03  0.22153942857E+03  0.00000000000E+00 0. -1.
         22    1    1    2    0    0  0.21593797003E+03 -0.67496591300E+03 -0.16515247643E+04  0.17971483627E+04  0.00000000000E+00 0. -1.
<mgrwt>
<rscale>  0 0.22771130E+04</rscale>
<asrwt>0</asrwt>
<pdfrwt beam="1">  1        1 0.29823331E+00 0.22771130E+04</pdfrwt>
<pdfrwt beam="2">  1       -1 0.10287890E+00 0.22771130E+04</pdfrwt>
<totfact> 0.26519432E+00</totfact>
</mgrwt>
</event>
<event>
 6    1  0.1780144E-005  0.5275012E+03  0.7818608E-02  0.1006840E+00
         -2   -1    0    0    0  501 -0.00000000000E+00  0.00000000000E+00  0.24620280240E+02  0.24620280240E+02  0.00000000000E+00 0.  1.
          2   -1    0    0  501    0  0.00000000000E+00 -0.00000000000E+00 -0.28254911460E+04  0.28254911460E+04  0.00000000000E+00 0. -1.
         23    2    1    2    0    0 -0.67805996678E+02  0.10574875758E+03 -0.26468172763E+04  0.26513327520E+04  0.90239762094E+02 0.  0.
         11    1    3    3    0    0  0.37951478938E+01  0.28480387361E+01 -0.90409914875E+03  0.90411160000E+03  0.00000000000E+00 0.  1.
        -11    1    3    3    0    0 -0.71601144572E+02  0.10290071884E+03 -0.17427181276E+04  0.17472211520E+04  0.00000000000E+00 0. -1.
         22    1    1    2    0    0  0.67805996678E+02 -0.10574875758E+03 -0.15405358943E+03  0.19877867423E+03  0.00000000000E+00 0.  1.
<mgrwt>
<rscale>  0 0.52750122E+03</rscale>
<asrwt>0</asrwt>
<pdfrwt beam="1">  1        2 0.43469112E+00 0.52750122E+03</pdfrwt>
<pdfrwt beam="2">  1       -2 0.37877339E-02 0.52750122E+03</pdfrwt>
<totfact> 0.75809372E+02</totfact>
</mgrwt>
</event>
<event>
 6    1  0.1780144E-005  0.2420079E+04  0.7818608E-02  0.8432024E-01
         -2   -1    0    0    0  501 -0.00000000000E+00  0.00000000000E+00  0.87261214656E+03  0.87261214656E+03  0.00000000000E+00 0.  1.
          2   -1    0    0  501    0  0.00000000000E+00 -0.00000000000E+00 -0.16779452903E+04  0.16779452903E+04  0.00000000000E+00 0. -1.
         23    2    1    2    0    0 -0.35863093177E+03 -0.11043993498E+04 -0.51165074114E+02  0.11659695753E+04  0.92483061058E+02 0.  0.
         13    1    3    3    0    0 -0.19464746236E+03 -0.45246989345E+03 -0.16401620301E+02  0.49283430504E+03  0.00000000000E+00 0.  1.
        -13    1    3    3    0    0 -0.16398346942E+03 -0.65192945639E+03 -0.34763453813E+02  0.67313527026E+03  0.00000000000E+00 0. -1.
         22    1    1    2    0    0  0.35863093177E+03  0.11043993498E+04 -0.75416806961E+03  0.13845878616E+04  0.00000000000E+00 0.  1.
<mgrwt>
<rscale>  0 0.24200789E+04</rscale>
<asrwt>0</asrwt>
<pdfrwt beam="1">  1        2 0.25814543E+00 0.24200789E+04</pdfrwt>
<pdfrwt beam="2">  1       -2 0.13424802E+00 0.24200789E+04</pdfrwt>
<totfact> 0.36249350E+00</totfact>
</mgrwt>
</event>
<event>
 6    1  0.1780144E-005  0.1600143E+04  0.7818608E-02  0.8820460E-01
         -1   -1    0    0    0  501 -0.00000000000E+00  0.00000000000E+00  0.36678133267E+03  0.36678133267E+03  0.00000000000E+00 0.  1.
          1   -1    0    0  501    0  0.00000000000E+00 -0.00000000000E+00 -0.17452197546E+04  0.17452197546E+04  0.00000000000E+00 0. -1.
         23    2    1    2    0    0 -0.25027404227E+03  0.34052036161E+03 -0.15841162879E+04  0.16420068347E+04  0.90392580702E+02 0.  0.
         13    1    3    3    0    0 -0.22633441783E+03  0.27091038372E+03 -0.13974950986E+04  0.14413924709E+04  0.00000000000E+00 0. -1.
        -13    1    3    3    0    0 -0.23939624436E+02  0.69609977893E+02 -0.18662118936E+03  0.20061436379E+03  0.00000000000E+00 0.  1.
         22    1    1    2    0    0  0.25027404227E+03 -0.34052036161E+03  0.20567786598E+03  0.46999425258E+03  0.00000000000E+00 0.  1.
<mgrwt>
<rscale>  0 0.16001425E+04</rscale>
<asrwt>0</asrwt>
<pdfrwt beam="1">  1        1 0.26849535E+00 0.16001425E+04</pdfrwt>
<pdfrwt beam="2">  1       -1 0.56427897E-01 0.16001425E+04</pdfrwt>
<totfact> 0.13538919E+01</totfact>
</mgrwt>
</event>
<event>
 6    1  0.1780144E-005  0.1127187E+04  0.7818608E-02  0.9179092E-01
          2   -1    0    0  501    0  0.00000000000E+00  0.00000000000E+00  0.53804623598E+03  0.53804623598E+03  0.00000000000E+00 0. -1.
         -2   -1    0    0    0  501 -0.00000000000E+00 -0.00000000000E+00 -0.59035350602E+03  0.59035350602E+03  0.00000000000E+00 0.  1.
         23    2    1    2    0    0 -0.30587418321E+03  0.43829167625E+03  0.14060204857E+03  0.56018093324E+03  0.91515749927E+02 0.  0.
         11    1    3    3    0    0 -0.19807086641E+03  0.33705188034E+03  0.12968019171E+03  0.41188953651E+03  0.00000000000E+00 0. -1.
        -11    1    3    3    0    0 -0.10780331680E+03  0.10123979590E+03  0.10921856859E+02  0.14829139673E+03  0.00000000000E+00 0.  1.
         22    1    1    2    0    0  0.30587418321E+03 -0.43829167625E+03 -0.19290931862E+03  0.56821880876E+03  0.00000000000E+00 0. -1.
<mgrwt>
<rscale>  0 0.11271867E+04</rscale>
<asrwt>0</asrwt>
<pdfrwt beam="1">  1        2 0.82776344E-01 0.11271867E+04</pdfrwt>
<pdfrwt beam="2">  1       -2 0.90823616E-01 0.11271867E+04</pdfrwt>
<totfact> 0.57983628E+01</totfact>
</mgrwt>
</event>
<event>
 6    1  0.1780144E-005  0.9394056E+03  0.7818608E-02  0.9377620E-01
          1   -1    0    0  501    0  0.00000000000E+00  0.00000000000E+00  0.51162487097E+03  0.51162487097E+03  0.00000000000E+00 0. -1.
         -1   -1    0    0    0  501 -0.00000000000E+00 -0.00000000000E+00 -0.43121574726E+03  0.43121574726E+03  0.00000000000E+00 0.  1.
         23    2    1    2    0    0  0.14326892523E+03  0.31802147781E+03 -0.26858759352E+03  0.44942157327E+03  0.90425714495E+02 0.  0.
         11    1    3    3    0    0  0.44047382235E+02  0.20612307993E+03 -0.15811504377E+03  0.26349053689E+03  0.00000000000E+00 0.  1.
        -11    1    3    3    0    0  0.99221542996E+02  0.11189839788E+03 -0.11047254976E+03  0.18593103639E+03  0.00000000000E+00 0. -1.
         22    1    1    2    0    0 -0.14326892523E+03 -0.31802147781E+03  0.34899671724E+03  0.49341904496E+03  0.00000000000E+00 0. -1.
<mgrwt>
<rscale>  0 0.93940556E+03</rscale>
<asrwt>0</asrwt>
<pdfrwt beam="1">  1        1 0.78711518E-01 0.93940556E+03</pdfrwt>
<pdfrwt beam="2">  1       -1 0.66340884E-01 0.93940556E+03</pdfrwt>
<totfact> 0.99475235E+01</totfact>
</mgrwt>
</event>
<event>
 6    1  0.1780144E-005  0.2892223E+04  0.7818608E-02  0.8275195E-01
          2   -1    0    0  501    0  0.00000000000E+00  0.00000000000E+00  0.32902903469E+04  0.32902903469E+04  0.00000000000E+00 0. -1.
         -2   -1    0    0    0  501 -0.00000000000E+00 -0.00000000000E+00 -0.63557849937E+03  0.63557849937E+03  0.00000000000E+00 0.  1.
         23    2    1    2    0    0 -0.13070838607E+04 -0.56800244877E+03  0.16487558533E+04  0.21814370009E+04  0.95794176823E+02 0.  0.
         13    1    3    3    0    0 -0.62208091883E+03 -0.23593588024E+03  0.71425930927E+03  0.97612333751E+03  0.00000000000E+00 0.  1.
        -13    1    3    3    0    0 -0.68500294191E+03 -0.33206656852E+03  0.93449654402E+03  0.12053136634E+04  0.00000000000E+00 0. -1.
         22    1    1    2    0    0  0.13070838607E+04  0.56800244877E+03  0.10059559942E+04  0.17444318454E+04  0.00000000000E+00 0.  1.
<mgrwt>
<rscale>  0 0.28922225E+04</rscale>
<asrwt>0</asrwt>
<pdfrwt beam="1">  1        2 0.50619851E+00 0.28922225E+04</pdfrwt>
<pdfrwt beam="2">  1       -2 0.97781309E-01 0.28922225E+04</pdfrwt>
<totfact> 0.84994596E-01</totfact>
</mgrwt>
</event>
<event>
 6    1  0.1780144E-005  0.1172459E+04  0.7818608E-02  0.9137310E-01
         -2   -1    0    0    0  501 -0.00000000000E+00  0.00000000000E+00  0.13405555668E+03  0.13405555668E+03  0.00000000000E+00 0.  1.
          2   -1    0    0  501    0  0.00000000000E+00 -0.00000000000E+00 -0.25636031972E+04  0.25636031972E+04  0.00000000000E+00 0. -1.
         23    2    1    2    0    0 -0.37809288401E+03 -0.21255599608E+03 -0.32683163513E+03  0.55067275493E+03  0.91034525829E+02 0.  0.
         13    1    3    3    0    0 -0.32307109064E+03 -0.17513096756E+03 -0.31297963725E+03  0.48270284724E+03  0.00000000000E+00 0.  1.
        -13    1    3    3    0    0 -0.55021793369E+02 -0.37425028526E+02 -0.13851997880E+02  0.67969907687E+02  0.00000000000E+00 0. -1.
         22    1    1    2    0    0  0.37809288401E+03  0.21255599608E+03 -0.21027160054E+04  0.21469859990E+04  0.00000000000E+00 0. -1.
<mgrwt>
<rscale>  0 0.11724594E+04</rscale>
<asrwt>0</asrwt>
<pdfrwt beam="1">  1        2 0.39440046E+00 0.11724594E+04</pdfrwt>
<pdfrwt beam="2">  1       -2 0.20623933E-01 0.11724594E+04</pdfrwt>
<totfact> 0.64485506E+01</totfact>
</mgrwt>
</event>
<event>
 6    1  0.1780144E-005  0.1441040E+04  0.7818608E-02  0.8924636E-01
         -2   -1    0    0    0  501 -0.00000000000E+00  0.00000000000E+00  0.18881075842E+03  0.18881075842E+03  0.00000000000E+00 0.  1.
          2   -1    0    0  501    0  0.00000000000E+00 -0.00000000000E+00 -0.27495725545E+04  0.27495725545E+04  0.00000000000E+00 0. -1.
         23    2    1    2    0    0 -0.33915605502E+03  0.37687386392E+03 -0.23211705121E+04  0.23776117709E+04  0.90246594098E+02 0.  0.
         13    1    3    3    0    0 -0.25463145113E+02  0.53477285073E+02 -0.39725780867E+03  0.40164904870E+03  0.00000000000E+00 0. -1.
        -13    1    3    3    0    0 -0.31369290991E+03  0.32339657885E+03 -0.19239127035E+04  0.19759627222E+04  0.00000000000E+00 0.  1.
         22    1    1    2    0    0  0.33915605502E+03 -0.37687386392E+03 -0.23959128392E+03  0.56077154198E+03  0.00000000000E+00 0.  1.
<mgrwt>
<rscale>  0 0.14410397E+04</rscale>
<asrwt>0</asrwt>
<pdfrwt beam="1">  1        2 0.42301115E+00 0.14410397E+04</pdfrwt>
<pdfrwt beam="2">  1       -2 0.29047810E-01 0.14410397E+04</pdfrwt>
<totfact> 0.26354741E+01</totfact>
</mgrwt>
</event>
<event>
 6    1  0.1780144E-005  0.3487856E+04  0.7818608E-02  0.8116674E-01
         -2   -1    0    0    0  501 -0.00000000000E+00  0.00000000000E+00  0.80060388823E+03  0.80060388823E+03  0.00000000000E+00 0.  1.
          2   -1    0    0  501    0  0.00000000000E+00 -0.00000000000E+00 -0.37987386217E+04  0.37987386217E+04  0.00000000000E+00 0. -1.
         23    2    1    2    0    0  0.59495355290E+03  0.16379923014E+04 -0.14891550760E+04  0.22941292625E+04  0.91965879380E+02 0.  0.
         11    1    3    3    0    0  0.26604261174E+03  0.60402893452E+03 -0.55254429506E+03  0.86077571004E+03  0.00000000000E+00 0.  1.
        -11    1    3    3    0    0  0.32891094115E+03  0.10339633669E+04 -0.93661078093E+03  0.14333535524E+04  0.00000000000E+00 0. -1.
         22    1    1    2    0    0 -0.59495355290E+03 -0.16379923014E+04 -0.15089796575E+04  0.23052132474E+04  0.00000000000E+00 0. -1.
<mgrwt>
<rscale>  0 0.34878560E+04</rscale>
<asrwt>0</asrwt>
<pdfrwt beam="1">  1        2 0.58442135E+00 0.34878560E+04</pdfrwt>
<pdfrwt beam="2">  1       -2 0.12316982E+00 0.34878560E+04</pdfrwt>
<totfact> 0.20099278E-01</totfact>
</mgrwt>
</event>
<event>
 6    1  0.1780144E-005  0.3488952E+04  0.7818608E-02  0.8116413E-01
          2   -1    0    0  501    0  0.00000000000E+00  0.00000000000E+00  0.22883790147E+04  0.22883790147E+04  0.00000000000E+00 0. -1.
         -2   -1    0    0    0  501 -0.00000000000E+00 -0.00000000000E+00 -0.13298477995E+04  0.13298477995E+04  0.00000000000E+00 0.  1.
         23    2    1    2    0    0  0.58046416726E+03  0.13594560112E+04 -0.47878031902E+03  0.15564499731E+04  0.90810950682E+02 0.  0.
         11    1    3    3    0    0  0.88823074078E+02  0.29034949206E+03 -0.11645868523E+03  0.32519992526E+03  0.00000000000E+00 0. -1.
        -11    1    3    3    0    0  0.49164109319E+03  0.10691065192E+04 -0.36232163379E+03  0.12312500478E+04  0.00000000000E+00 0.  1.
         22    1    1    2    0    0 -0.58046416726E+03 -0.13594560112E+04  0.14373115342E+04  0.20617768411E+04  0.00000000000E+00 0. -1.
<mgrwt>
<rscale>  0 0.34889516E+04</rscale>
<asrwt>0</asrwt>
<pdfrwt beam="1">  1        2 0.35205831E+00 0.34889516E+04</pdfrwt>
<pdfrwt beam="2">  1       -2 0.20459197E+00 0.34889516E+04</pdfrwt>
<totfact> 0.46986838E-01</totfact>
</mgrwt>
</event>
<event>
 6    1  0.1780144E-005  0.3007253E+04  0.7818608E-02  0.8241663E-01
          1   -1    0    0  501    0  0.00000000000E+00  0.00000000000E+00  0.18212340655E+04  0.18212340655E+04  0.00000000000E+00 0. -1.
         -1   -1    0    0    0  501 -0.00000000000E+00 -0.00000000000E+00 -0.12414068504E+04  0.12414068504E+04  0.00000000000E+00 0.  1.
         23    2    1    2    0    0 -0.33520226603E+03  0.74664837671E+03 -0.99276151475E+03  0.12898240413E+04  0.90698812868E+02 0.  0.
         11    1    3    3    0    0 -0.73193142125E+02  0.13412456469E+03 -0.13624113029E+03  0.20471512032E+03  0.00000000000E+00 0. -1.
        -11    1    3    3    0    0 -0.26200912390E+03  0.61252381203E+03 -0.85652038446E+03  0.10851089209E+04  0.00000000000E+00 0.  1.
         22    1    1    2    0    0  0.33520226603E+03 -0.74664837671E+03  0.15725887298E+04  0.17728168746E+04  0.00000000000E+00 0. -1.
<mgrwt>
<rscale>  0 0.30072529E+04</rscale>
<asrwt>0</asrwt>
<pdfrwt beam="1">  1        1 0.28018986E+00 0.30072529E+04</pdfrwt>
<pdfrwt beam="2">  1       -1 0.19098567E+00 0.30072529E+04</pdfrwt>
<totfact> 0.58292655E-01</totfact>
</mgrwt>
</event>
<event>
 6    1  0.1780144E-005  0.1139459E+04  0.7818608E-02  0.9167564E-01
         -2   -1    0    0    0  501 -0.00000000000E+00  0.00000000000E+00  0.52063182702E+03  0.52063182702E+03  0.00000000000E+00 0.  1.
          2   -1    0    0  501    0  0.00000000000E+00 -0.00000000000E+00 -0.62345688856E+03  0.62345688856E+03  0.00000000000E+00 0. -1.
         23    2    1    2    0    0 -0.24246384043E+03 -0.24726357936E+03 -0.50109416972E+03  0.61631388279E+03  0.93911892710E+02 0.  0.
         13    1    3    3    0    0 -0.19623481494E+03 -0.18491883813E+03 -0.44586380853E+03  0.52105433023E+03  0.00000000000E+00 0.  1.
        -13    1    3    3    0    0 -0.46229025489E+02 -0.62344741232E+02 -0.55230361194E+02  0.95259552563E+02  0.00000000000E+00 0. -1.
         22    1    1    2    0    0  0.24246384043E+03  0.24726357936E+03  0.39826910818E+03  0.52777483279E+03  0.00000000000E+00 0.  1.
<mgrwt>
<rscale>  0 0.11394586E+04</rscale>
<asrwt>0</asrwt>
<pdfrwt beam="1">  1        2 0.95916445E-01 0.11394586E+04</pdfrwt>
<pdfrwt beam="2">  1       -2 0.80097204E-01 0.11394586E+04</pdfrwt>
<totfact> 0.64667182E+01</totfact>
</mgrwt>
</event>
<event>
 6    1  0.1780144E-005  0.1509894E+04  0.7818608E-02  0.8877900E-01
          1   -1    0    0  501    0  0.00000000000E+00  0.00000000000E+00  0.33354415498E+04  0.33354415498E+04  0.00000000000E+00 0. -1.
         -1   -1    0    0    0  501 -0.00000000000E+00 -0.00000000000E+00 -0.17087534612E+03  0.17087534612E+03  0.00000000000E+00 0.  1.
         23    2    1    2    0    0  0.26937521226E+03  0.37120477569E+03  0.29726982246E+04  0.30091556426E+04  0.87903106302E+02 0.  0.
         11    1    3    3    0    0  0.18503127118E+03  0.18676806213E+03  0.15666406484E+04  0.15885470725E+04  0.00000000000E+00 0.  1.
        -11    1    3    3    0    0  0.84343941087E+02  0.18443671356E+03  0.14060575762E+04  0.14206085701E+04  0.00000000000E+00 0. -1.
         22    1    1    2    0    0 -0.26937521226E+03 -0.37120477569E+03  0.19186797911E+03  0.49716125340E+03  0.00000000000E+00 0.  1.
<mgrwt>
<rscale>  0 0.15098937E+04</rscale>
<asrwt>0</asrwt>
<pdfrwt beam="1">  1        1 0.51314480E+00 0.15098937E+04</pdfrwt>
<pdfrwt beam="2">  1       -1 0.26288517E-01 0.15098937E+04</pdfrwt>
<totfact> 0.42055292E+00</totfact>
</mgrwt>
</event>
<event>
 6    1  0.1780144E-005  0.4150128E+04  0.7818608E-02  0.7974927E-01
         -1   -1    0    0    0  501 -0.00000000000E+00  0.00000000000E+00  0.15885795998E+04  0.15885795998E+04  0.00000000000E+00 0.  1.
          1   -1    0    0  501    0  0.00000000000E+00 -0.00000000000E+00 -0.27105283922E+04  0.27105283922E+04  0.00000000000E+00 0. -1.
         23    2    1    2    0    0 -0.13959679220E+04  0.13117098374E+04 -0.13850183697E+04  0.23655840745E+04  0.91667836560E+02 0.  0.
         13    1    3    3    0    0 -0.72013567180E+03  0.73471828899E+03 -0.72174959238E+03  0.12567135012E+04  0.00000000000E+00 0.  1.
        -13    1    3    3    0    0 -0.67583225024E+03  0.57699154844E+03 -0.66326877733E+03  0.11088705733E+04  0.00000000000E+00 0. -1.
         22    1    1    2    0    0  0.13959679220E+04 -0.13117098374E+04  0.26306957723E+03  0.19335239175E+04  0.00000000000E+00 0.  1.
<mgrwt>
<rscale>  0 0.41501278E+04</rscale>
<asrwt>0</asrwt>
<pdfrwt beam="1">  1        1 0.41700436E+00 0.41501278E+04</pdfrwt>
<pdfrwt beam="2">  1       -1 0.24439686E+00 0.41501278E+04</pdfrwt>
<totfact> 0.56575714E-02</totfact>
</mgrwt>
</event>
<event>
 6    1  0.1780144E-005  0.3730634E+04  0.7818608E-02  0.8061207E-01
          2   -1    0    0  501    0  0.00000000000E+00  0.00000000000E+00  0.27577074089E+04  0.27577074089E+04  0.00000000000E+00 0. -1.
         -2   -1    0    0    0  501 -0.00000000000E+00 -0.00000000000E+00 -0.12617027333E+04  0.12617027333E+04  0.00000000000E+00 0.  1.
         23    2    1    2    0    0 -0.55981162219E+03  0.14930147014E+04  0.17893295228E+04  0.23981385989E+04  0.82985826412E+02 0.  0.
         13    1    3    3    0    0 -0.34483003582E+03  0.10266257658E+04  0.11993207072E+04  0.16159326643E+04  0.00000000000E+00 0. -1.
        -13    1    3    3    0    0 -0.21498158637E+03  0.46638893558E+03  0.59000881562E+03  0.78220593466E+03  0.00000000000E+00 0.  1.
         22    1    1    2    0    0  0.55981162219E+03 -0.14930147014E+04 -0.29332484717E+03  0.16212715433E+04  0.00000000000E+00 0.  1.
<mgrwt>
<rscale>  0 0.37306337E+04</rscale>
<asrwt>0</asrwt>
<pdfrwt beam="1">  1        2 0.42426268E+00 0.37306337E+04</pdfrwt>
<pdfrwt beam="2">  1       -2 0.19410811E+00 0.37306337E+04</pdfrwt>
<totfact> 0.28763679E-01</totfact>
</mgrwt>
</event>
<event>
 6    1  0.1780144E-005  0.9648502E+03  0.7818608E-02  0.9347959E-01
          1   -1    0    0  501    0  0.00000000000E+00  0.00000000000E+00  0.37187345767E+03  0.37187345767E+03  0.00000000000E+00 0. -1.
         -1   -1    0    0    0  501 -0.00000000000E+00 -0.00000000000E+00 -0.62584187069E+03  0.62584187069E+03  0.00000000000E+00 0.  1.
         23    2    1    2    0    0  0.13400987549E+03 -0.18710561292E+03 -0.56150682698E+03  0.61359681386E+03  0.90796344197E+02 0.  0.
         13    1    3    3    0    0  0.29286241775E+02 -0.10502396036E+03 -0.31705553749E+03  0.33527888401E+03  0.00000000000E+00 0.  1.
        -13    1    3    3    0    0  0.10472363371E+03 -0.82081652566E+02 -0.24445128949E+03  0.27831792986E+03  0.00000000000E+00 0. -1.
         22    1    1    2    0    0 -0.13400987549E+03  0.18710561292E+03  0.30753841396E+03  0.38411851449E+03  0.00000000000E+00 0. -1.
<mgrwt>
<rscale>  0 0.96485021E+03</rscale>
<asrwt>0</asrwt>
<pdfrwt beam="1">  1        1 0.57211302E-01 0.96485021E+03</pdfrwt>
<pdfrwt beam="2">  1       -1 0.96283363E-01 0.96485021E+03</pdfrwt>
<totfact> 0.69029493E+01</totfact>
</mgrwt>
</event>
<event>
 6    1  0.1780144E-005  0.2390976E+04  0.7818608E-02  0.8442890E-01
         -1   -1    0    0    0  501 -0.00000000000E+00  0.00000000000E+00  0.39761515568E+03  0.39761515568E+03  0.00000000000E+00 0.  1.
          1   -1    0    0  501    0  0.00000000000E+00 -0.00000000000E+00 -0.35944092836E+04  0.35944092836E+04  0.00000000000E+00 0. -1.
         23    2    1    2    0    0  0.44989052058E+03 -0.10791131907E+04 -0.20031126622E+04  0.23211677128E+04  0.92045937779E+02 0.  0.
         13    1    3    3    0    0  0.34254072333E+03 -0.89765353701E+03 -0.16022113349E+04  0.18682069429E+04  0.00000000000E+00 0. -1.
        -13    1    3    3    0    0  0.10734979724E+03 -0.18145965370E+03 -0.40090132727E+03  0.45296076993E+03  0.00000000000E+00 0.  1.
         22    1    1    2    0    0 -0.44989052058E+03  0.10791131907E+04 -0.11936814658E+04  0.16708567265E+04  0.00000000000E+00 0.  1.
<mgrwt>
<rscale>  0 0.23909760E+04</rscale>
<asrwt>0</asrwt>
<pdfrwt beam="1">  1        1 0.55298602E+00 0.23909760E+04</pdfrwt>
<pdfrwt beam="2">  1       -1 0.61171565E-01 0.23909760E+04</pdfrwt>
<totfact> 0.51183537E-01</totfact>
</mgrwt>
</event>
<event>
 6    1  0.1780144E-005  0.1682262E+04  0.7818608E-02  0.8771546E-01
          1   -1    0    0  501    0  0.00000000000E+00  0.00000000000E+00  0.88241355289E+03  0.88241355289E+03  0.00000000000E+00 0. -1.
         -1   -1    0    0    0  501 -0.00000000000E+00 -0.00000000000E+00 -0.80177971180E+03  0.80177971180E+03  0.00000000000E+00 0.  1.
         23    2    1    2    0    0  0.65102392736E+02  0.45047389455E+03  0.74435169380E+03  0.87940357836E+03  0.11011883740E+03 0.  0.
         13    1    3    3    0    0  0.75253907754E+02  0.28445334584E+03  0.54862298707E+03  0.62254641477E+03  0.00000000000E+00 0. -1.
        -13    1    3    3    0    0 -0.10151515018E+02  0.16602054870E+03  0.19572870673E+03  0.25685716359E+03  0.00000000000E+00 0.  1.
         22    1    1    2    0    0 -0.65102392736E+02 -0.45047389455E+03 -0.66371785272E+03  0.80478968633E+03  0.00000000000E+00 0.  1.
<mgrwt>
<rscale>  0 0.16822619E+04</rscale>
<asrwt>0</asrwt>
<pdfrwt beam="1">  1        1 0.13575593E+00 0.16822619E+04</pdfrwt>
<pdfrwt beam="2">  1       -1 0.12335072E+00 0.16822619E+04</pdfrwt>
<totfact> 0.10373910E+01</totfact>
</mgrwt>
</event>
<event>
 6    1  0.1780144E-005  0.2973823E+04  0.7818608E-02  0.8251246E-01
          1   -1    0    0  501    0  0.00000000000E+00  0.00000000000E+00  0.24140094675E+04  0.24140094675E+04  0.00000000000E+00 0. -1.
         -1   -1    0    0    0  501 -0.00000000000E+00 -0.00000000000E+00 -0.91586434248E+03  0.91586434248E+03  0.00000000000E+00 0.  1.
         23    2    1    2    0    0 -0.72793676902E+03 -0.12949220064E+04  0.75531983349E+03  0.16689992343E+04  0.91298690179E+02 0.  0.
         13    1    3    3    0    0 -0.44303677271E+03 -0.77656735094E+03  0.50401400518E+03  0.10263374445E+04  0.00000000000E+00 0. -1.
        -13    1    3    3    0    0 -0.28489999632E+03 -0.51835465547E+03  0.25130582831E+03  0.64266178982E+03  0.00000000000E+00 0.  1.
         22    1    1    2    0    0  0.72793676902E+03  0.12949220064E+04  0.74282529152E+03  0.16608745757E+04  0.00000000000E+00 0. -1.
<mgrwt>
<rscale>  0 0.29738226E+04</rscale>
<asrwt>0</asrwt>
<pdfrwt beam="1">  1        1 0.37138607E+00 0.29738226E+04</pdfrwt>
<pdfrwt beam="2">  1       -1 0.14090221E+00 0.29738226E+04</pdfrwt>
<totfact> 0.54604197E-01</totfact>
</mgrwt>
</event>
<event>
 6    1  0.1780144E-005  0.3731283E+04  0.7818608E-02  0.8061064E-01
          2   -1    0    0  501    0  0.00000000000E+00  0.00000000000E+00  0.15182596908E+04  0.15182596908E+04  0.00000000000E+00 0. -1.
         -2   -1    0    0    0  501 -0.00000000000E+00 -0.00000000000E+00 -0.22925055803E+04  0.22925055803E+04  0.00000000000E+00 0.  1.
         23    2    1    2    0    0  0.18135207929E+03  0.16686345101E+04  0.43951104192E+03  0.17394286027E+04  0.12333775954E+03 0.  0.
         11    1    3    3    0    0  0.60520309812E+02  0.10114046187E+04  0.30101553560E+03  0.10569826693E+04  0.00000000000E+00 0. -1.
        -11    1    3    3    0    0  0.12083176948E+03  0.65722989148E+03  0.13849550631E+03  0.68244593342E+03  0.00000000000E+00 0.  1.
         22    1    1    2    0    0 -0.18135207929E+03 -0.16686345101E+04 -0.12137569315E+04  0.20713366684E+04  0.00000000000E+00 0. -1.
<mgrwt>
<rscale>  0 0.37312833E+04</rscale>
<asrwt>0</asrwt>
<pdfrwt beam="1">  1        2 0.23357842E+00 0.37312833E+04</pdfrwt>
<pdfrwt beam="2">  1       -2 0.35269316E+00 0.37312833E+04</pdfrwt>
<totfact> 0.14947880E-01</totfact>
</mgrwt>
</event>
<event>
 6    1  0.1780144E-005  0.3028386E+04  0.7818608E-02  0.8235671E-01
         -2   -1    0    0    0  501 -0.00000000000E+00  0.00000000000E+00  0.95983727931E+03  0.95983727931E+03  0.00000000000E+00 0.  1.
          2   -1    0    0  501    0  0.00000000000E+00 -0.00000000000E+00 -0.23887185082E+04  0.23887185082E+04  0.00000000000E+00 0. -1.
         23    2    1    2    0    0 -0.91121652548E+03  0.11127954850E+04 -0.19650653223E+03  0.14545186335E+04  0.91543926389E+02 0.  0.
         13    1    3    3    0    0 -0.40071511139E+03  0.41888561478E+03 -0.83675586435E+02  0.58569562277E+03  0.00000000000E+00 0. -1.
        -13    1    3    3    0    0 -0.51050141409E+03  0.69390987018E+03 -0.11283094580E+03  0.86882301078E+03  0.00000000000E+00 0.  1.
         22    1    1    2    0    0  0.91121652548E+03 -0.11127954850E+04 -0.12323746967E+04  0.18940371540E+04  0.00000000000E+00 0. -1.
<mgrwt>
<rscale>  0 0.30283864E+04</rscale>
<asrwt>0</asrwt>
<pdfrwt beam="1">  1        2 0.36749516E+00 0.30283864E+04</pdfrwt>
<pdfrwt beam="2">  1       -2 0.14766727E+00 0.30283864E+04</pdfrwt>
<totfact> 0.10761195E+00</totfact>
</mgrwt>
</event>
<event>
 6    1  0.1780144E-005  0.1201771E+04  0.7818608E-02  0.9111308E-01
         -1   -1    0    0    0  501 -0.00000000000E+00  0.00000000000E+00  0.56628974049E+03  0.56628974049E+03  0.00000000000E+00 0.  1.
          1   -1    0    0  501    0  0.00000000000E+00 -0.00000000000E+00 -0.63759439427E+03  0.63759439427E+03  0.00000000000E+00 0. -1.
         23    2    1    2    0    0  0.41621587971E+03  0.23647596112E+03  0.32165491989E+03  0.58455081154E+03  0.95295461966E+02 0.  0.
         11    1    3    3    0    0  0.67917962921E+02  0.25560332653E+02  0.13276616704E+02  0.73772954691E+02  0.00000000000E+00 0. -1.
        -11    1    3    3    0    0  0.34829791679E+03  0.21091562847E+03  0.30837830319E+03  0.51077785685E+03  0.00000000000E+00 0.  1.
         22    1    1    2    0    0 -0.41621587971E+03 -0.23647596112E+03 -0.39295957367E+03  0.61933332322E+03  0.00000000000E+00 0. -1.
<mgrwt>
<rscale>  0 0.12017706E+04</rscale>
<asrwt>0</asrwt>
<pdfrwt beam="1">  1        1 0.98091445E-01 0.12017706E+04</pdfrwt>
<pdfrwt beam="2">  1       -1 0.87121498E-01 0.12017706E+04</pdfrwt>
<totfact> 0.40258263E+01</totfact>
</mgrwt>
</event>
<event>
 6    1  0.1780144E-005  0.2609597E+04  0.7818608E-02  0.8364949E-01
         -2   -1    0    0    0  501 -0.00000000000E+00  0.00000000000E+00  0.44050049436E+03  0.44050049436E+03  0.00000000000E+00 0.  1.
          2   -1    0    0  501    0  0.00000000000E+00 -0.00000000000E+00 -0.38649204900E+04  0.38649204900E+04  0.00000000000E+00 0. -1.
         23    2    1    2    0    0  0.43718721087E+03 -0.53938489853E+03 -0.35339226673E+04  0.36025272789E+04  0.86744742248E+02 0.  0.
         11    1    3    3    0    0  0.21982541713E+03 -0.21198481371E+03 -0.14356874137E+04  0.14678075913E+04  0.00000000000E+00 0. -1.
        -11    1    3    3    0    0  0.21736179374E+03 -0.32740008482E+03 -0.20982352536E+04  0.21347196876E+04  0.00000000000E+00 0.  1.
         22    1    1    2    0    0 -0.43718721087E+03  0.53938489853E+03  0.10950267168E+03  0.70289370549E+03  0.00000000000E+00 0.  1.
<mgrwt>
<rscale>  0 0.26095972E+04</rscale>
<asrwt>0</asrwt>
<pdfrwt beam="1">  1        2 0.59460315E+00 0.26095972E+04</pdfrwt>
<pdfrwt beam="2">  1       -2 0.67769307E-01 0.26095972E+04</pdfrwt>
<totfact> 0.77332198E-01</totfact>
</mgrwt>
</event>
<event>
 6    1  0.1780144E-005  0.3442994E+04  0.7818608E-02  0.8127434E-01
          1   -1    0    0  501    0  0.00000000000E+00  0.00000000000E+00  0.35710175787E+04  0.35710175787E+04  0.00000000000E+00 0. -1.
         -1   -1    0    0    0  501 -0.00000000000E+00 -0.00000000000E+00 -0.82988987893E+03  0.82988987893E+03  0.00000000000E+00 0.  1.
         23    2    1    2    0    0 -0.14130769065E+04 -0.84543998081E+03  0.73535855396E+03  0.18057841521E+04  0.92461322571E+02 0.  0.
         11    1    3    3    0    0 -0.41299732249E+03 -0.25713879462E+03  0.26292401248E+03  0.55300649583E+03  0.00000000000E+00 0. -1.
        -11    1    3    3    0    0 -0.10000795840E+04 -0.58830118619E+03  0.47243454147E+03  0.12527776562E+04  0.00000000000E+00 0.  1.
         22    1    1    2    0    0  0.14130769065E+04  0.84543998081E+03  0.20057691459E+04  0.25951233056E+04  0.00000000000E+00 0.  1.
<mgrwt>
<rscale>  0 0.34429937E+04</rscale>
<asrwt>0</asrwt>
<pdfrwt beam="1">  1        1 0.54938731E+00 0.34429937E+04</pdfrwt>
<pdfrwt beam="2">  1       -1 0.12767537E+00 0.34429937E+04</pdfrwt>
<totfact> 0.95325599E-02</totfact>
</mgrwt>
</event>
<event>
 6    1  0.1780144E-005  0.3687475E+04  0.7818608E-02  0.8070743E-01
          2   -1    0    0  501    0  0.00000000000E+00  0.00000000000E+00  0.16287248559E+04  0.16287248559E+04  0.00000000000E+00 0. -1.
         -2   -1    0    0    0  501 -0.00000000000E+00 -0.00000000000E+00 -0.20871343911E+04  0.20871343911E+04  0.00000000000E+00 0.  1.
         23    2    1    2    0    0 -0.46620811986E+03 -0.12362898015E+04 -0.15235877204E+04  0.20186948324E+04  0.89703957807E+02 0.  0.
         13    1    3    3    0    0 -0.16179422210E+03 -0.55492131922E+03 -0.66115658606E+03  0.87820445918E+03  0.00000000000E+00 0. -1.
        -13    1    3    3    0    0 -0.30441389776E+03 -0.68136848224E+03 -0.86243113439E+03  0.11404903732E+04  0.00000000000E+00 0.  1.
         22    1    1    2    0    0  0.46620811986E+03  0.12362898015E+04  0.10651781853E+04  0.16971644147E+04  0.00000000000E+00 0. -1.
<mgrwt>
<rscale>  0 0.36874748E+04</rscale>
<asrwt>0</asrwt>
<pdfrwt beam="1">  1        2 0.25057306E+00 0.36874748E+04</pdfrwt>
<pdfrwt beam="2">  1       -2 0.32109760E+00 0.36874748E+04</pdfrwt>
<totfact> 0.20497009E-01</totfact>
</mgrwt>
</event>
<event>
 6    1  0.1780144E-005  0.3589631E+04  0.7818608E-02  0.8092871E-01
          1   -1    0    0  501    0  0.00000000000E+00  0.00000000000E+00  0.18886304808E+04  0.18886304808E+04  0.00000000000E+00 0. -1.
         -1   -1    0    0    0  501 -0.00000000000E+00 -0.00000000000E+00 -0.17056607249E+04  0.17056607249E+04  0.00000000000E+00 0.  1.
         23    2    1    2    0    0 -0.13540259862E+04  0.11358604933E+04 -0.21496315538E+03  0.17826852791E+04  0.90510853748E+02 0.  0.
         11    1    3    3    0    0 -0.34395461087E+03  0.34118329501E+03 -0.59709811384E+02  0.48813530574E+03  0.00000000000E+00 0. -1.
        -11    1    3    3    0    0 -0.10100713753E+04  0.79467719829E+03 -0.15525334400E+03  0.12945499733E+04  0.00000000000E+00 0.  1.
         22    1    1    2    0    0  0.13540259862E+04 -0.11358604933E+04  0.39793291129E+03  0.18116059266E+04  0.00000000000E+00 0. -1.
<mgrwt>
<rscale>  0 0.35896311E+04</rscale>
<asrwt>0</asrwt>
<pdfrwt beam="1">  1        1 0.29055854E+00 0.35896311E+04</pdfrwt>
<pdfrwt beam="2">  1       -1 0.26240934E+00 0.35896311E+04</pdfrwt>
<totfact> 0.16622121E-01</totfact>
</mgrwt>
</event>
<event>
 6    1  0.1780144E-005  0.1175628E+04  0.7818608E-02  0.9134461E-01
         -1   -1    0    0    0  501 -0.00000000000E+00  0.00000000000E+00  0.34808562835E+03  0.34808562835E+03  0.00000000000E+00 0.  1.
          1   -1    0    0  501    0  0.00000000000E+00 -0.00000000000E+00 -0.99264435231E+03  0.99264435231E+03  0.00000000000E+00 0. -1.
         23    2    1    2    0    0  0.30483838353E+02 -0.47995445413E+02 -0.98742928047E+03  0.99317704124E+03  0.90284130049E+02 0.  0.
         11    1    3    3    0    0  0.59266424363E+02 -0.44452984058E+02 -0.81138246824E+03  0.81475768582E+03  0.00000000000E+00 0.  1.
        -11    1    3    3    0    0 -0.28782586010E+02 -0.35424613548E+01 -0.17604681223E+03  0.17841935542E+03  0.00000000000E+00 0. -1.
         22    1    1    2    0    0 -0.30483838353E+02  0.47995445413E+02  0.34287055650E+03  0.34755293942E+03  0.00000000000E+00 0.  1.
<mgrwt>
<rscale>  0 0.11756279E+04</rscale>
<asrwt>0</asrwt>
<pdfrwt beam="1">  1        1 0.15271451E+00 0.11756279E+04</pdfrwt>
<pdfrwt beam="2">  1       -1 0.53551636E-01 0.11756279E+04</pdfrwt>
<totfact> 0.53476453E+01</totfact>
</mgrwt>
</event>
<event>
 6    1  0.1780144E-005  0.2926225E+04  0.7818608E-02  0.8265117E-01
          2   -1    0    0  501    0  0.00000000000E+00  0.00000000000E+00  0.17676222692E+04  0.17676222692E+04  0.00000000000E+00 0.  1.
         -2   -1    0    0    0  501 -0.00000000000E+00 -0.00000000000E+00 -0.12110608918E+04  0.12110608918E+04  0.00000000000E+00 0. -1.
         23    2    1    2    0    0 -0.95093594819E+03 -0.10763358566E+04  0.21796801190E+01  0.14391646907E+04  0.91718058997E+02 0.  0.
         13    1    3    3    0    0 -0.10451149330E+03 -0.11938275525E+03 -0.28588327084E+02  0.16122092583E+03  0.00000000000E+00 0. -1.
        -13    1    3    3    0    0 -0.84642445489E+03 -0.95695310134E+03  0.30768007203E+02  0.12779437649E+04  0.00000000000E+00 0.  1.
         22    1    1    2    0    0  0.95093594819E+03  0.10763358566E+04  0.55438169729E+03  0.15395184702E+04  0.00000000000E+00 0.  1.
<mgrwt>
<rscale>  0 0.29262250E+04</rscale>
<asrwt>0</asrwt>
<pdfrwt beam="1">  1        2 0.27194189E+00 0.29262250E+04</pdfrwt>
<pdfrwt beam="2">  1       -2 0.18631706E+00 0.29262250E+04</pdfrwt>
<totfact> 0.12714319E+00</totfact>
</mgrwt>
</event>
<event>
 6    1  0.1780144E-005  0.3257805E+04  0.7818608E-02  0.8173716E-01
         -2   -1    0    0    0  501 -0.00000000000E+00  0.00000000000E+00  0.10265571385E+04  0.10265571385E+04  0.00000000000E+00 0.  1.
          2   -1    0    0  501    0  0.00000000000E+00 -0.00000000000E+00 -0.25846815293E+04  0.25846815293E+04  0.00000000000E+00 0. -1.
         23    2    1    2    0    0  0.12412642665E+04 -0.90781614134E+03 -0.18882589244E+03  0.15521501550E+04  0.92993334468E+02 0.  0.
         11    1    3    3    0    0  0.41164895678E+03 -0.35246291123E+03 -0.82394608504E+02  0.54815494062E+03  0.00000000000E+00 0. -1.
        -11    1    3    3    0    0  0.82961530971E+03 -0.55535323011E+03 -0.10643128393E+03  0.10039952144E+04  0.00000000000E+00 0.  1.
         22    1    1    2    0    0 -0.12412642665E+04  0.90781614134E+03 -0.13692984984E+04  0.20590885128E+04  0.00000000000E+00 0. -1.
<mgrwt>
<rscale>  0 0.32578050E+04</rscale>
<asrwt>0</asrwt>
<pdfrwt beam="1">  1        2 0.39764330E+00 0.32578050E+04</pdfrwt>
<pdfrwt beam="2">  1       -2 0.15793187E+00 0.32578050E+04</pdfrwt>
<totfact> 0.67933218E-01</totfact>
</mgrwt>
</event>
<event>
 6    1  0.1780144E-005  0.1774149E+04  0.7818608E-02  0.8720169E-01
          2   -1    0    0  501    0  0.00000000000E+00  0.00000000000E+00  0.92599167503E+03  0.92599167503E+03  0.00000000000E+00 0. -1.
         -2   -1    0    0    0  501 -0.00000000000E+00 -0.00000000000E+00 -0.84979325271E+03  0.84979325271E+03  0.00000000000E+00 0.  1.
         23    2    1    2    0    0 -0.15662154459E+02  0.29039278365E+03  0.87450474577E+03  0.92615779896E+03  0.91850129658E+02 0.  0.
         13    1    3    3    0    0  0.34290385598E+02  0.70959007385E+02  0.26310839909E+03  0.27465804366E+03  0.00000000000E+00 0. -1.
        -13    1    3    3    0    0 -0.49952540057E+02  0.21943377627E+03  0.61139634668E+03  0.65149975531E+03  0.00000000000E+00 0.  1.
         22    1    1    2    0    0  0.15662154459E+02 -0.29039278365E+03 -0.79830632345E+03  0.84962712877E+03  0.00000000000E+00 0.  1.
<mgrwt>
<rscale>  0 0.17741493E+04</rscale>
<asrwt>0</asrwt>
<pdfrwt beam="1">  1        2 0.14246026E+00 0.17741493E+04</pdfrwt>
<pdfrwt beam="2">  1       -2 0.13073742E+00 0.17741493E+04</pdfrwt>
<totfact> 0.11405873E+01</totfact>
</mgrwt>
</event>
<event>
 6    1  0.1780144E-005  0.1654962E+04  0.7818608E-02  0.8787476E-01
         -2   -1    0    0    0  501 -0.00000000000E+00  0.00000000000E+00  0.43248987971E+03  0.43248987971E+03  0.00000000000E+00 0.  1.
          2   -1    0    0  501    0  0.00000000000E+00 -0.00000000000E+00 -0.15832158970E+04  0.15832158970E+04  0.00000000000E+00 0. -1.
         23    2    1    2    0    0  0.34866211732E+03  0.20552889131E+03  0.29847752987E+03  0.51104690562E+03  0.90954420930E+02 0.  0.
         13    1    3    3    0    0  0.13478228697E+03  0.42350997520E+02  0.67969290849E+02  0.15677913244E+03  0.00000000000E+00 0.  1.
        -13    1    3    3    0    0  0.21387983036E+03  0.16317789379E+03  0.23050823902E+03  0.35426777318E+03  0.00000000000E+00 0. -1.
         22    1    1    2    0    0 -0.34866211732E+03 -0.20552889131E+03 -0.14492035471E+04  0.15046588710E+04  0.00000000000E+00 0. -1.
<mgrwt>
<rscale>  0 0.16549621E+04</rscale>
<asrwt>0</asrwt>
<pdfrwt beam="1">  1        2 0.24357167E+00 0.16549621E+04</pdfrwt>
<pdfrwt beam="2">  1       -2 0.66536906E-01 0.16549621E+04</pdfrwt>
<totfact> 0.22586341E+01</totfact>
</mgrwt>
</event>
<event>
 6    1  0.1780144E-005  0.2724407E+04  0.7818608E-02  0.8327129E-01
         -1   -1    0    0    0  501 -0.00000000000E+00  0.00000000000E+00  0.21597393223E+04  0.21597393223E+04  0.00000000000E+00 0.  1.
          1   -1    0    0  501    0  0.00000000000E+00 -0.00000000000E+00 -0.85917699439E+03  0.85917699439E+03  0.00000000000E+00 0. -1.
         23    2    1    2    0    0 -0.21409418454E+03  0.70236864695E+03  0.19201347519E+04  0.20581728418E+04  0.99999727085E+02 0.  0.
         13    1    3    3    0    0 -0.11119511339E+03  0.48822869008E+03  0.12170635635E+04  0.13160453353E+04  0.00000000000E+00 0.  1.
        -13    1    3    3    0    0 -0.10289907115E+03  0.21413995687E+03  0.70307118842E+03  0.74212750654E+03  0.00000000000E+00 0. -1.
         22    1    1    2    0    0  0.21409418454E+03 -0.70236864695E+03 -0.61957242393E+03  0.96074347490E+03  0.00000000000E+00 0. -1.
<mgrwt>
<rscale>  0 0.27244070E+04</rscale>
<asrwt>0</asrwt>
<pdfrwt beam="1">  1        1 0.13218108E+00 0.27244070E+04</pdfrwt>
<pdfrwt beam="2">  1       -1 0.33226759E+00 0.27244070E+04</pdfrwt>
<totfact> 0.34871698E-01</totfact>
</mgrwt>
</event>
<event>
 6    1  0.1780144E-005  0.3081469E+04  0.7818608E-02  0.8220842E-01
         -2   -1    0    0    0  501 -0.00000000000E+00  0.00000000000E+00  0.53799524030E+03  0.53799524030E+03  0.00000000000E+00 0.  1.
          2   -1    0    0  501    0  0.00000000000E+00 -0.00000000000E+00 -0.44124248417E+04  0.44124248417E+04  0.00000000000E+00 0. -1.
         23    2    1    2    0    0  0.48790323924E+02  0.14019555540E+04 -0.92060799751E+03  0.16804167275E+04  0.91768304981E+02 0.  0.
         13    1    3    3    0    0 -0.92837347169E+01  0.76269367577E+03 -0.53381626206E+03  0.93099282083E+03  0.00000000000E+00 0. -1.
        -13    1    3    3    0    0  0.58074058641E+02  0.63926187822E+03 -0.38679173545E+03  0.74942390664E+03  0.00000000000E+00 0.  1.
         22    1    1    2    0    0 -0.48790323924E+02 -0.14019555540E+04 -0.29538216039E+04  0.32700033546E+04  0.00000000000E+00 0. -1.
<mgrwt>
<rscale>  0 0.30814695E+04</rscale>
<asrwt>0</asrwt>
<pdfrwt beam="1">  1        2 0.67883457E+00 0.30814695E+04</pdfrwt>
<pdfrwt beam="2">  1       -2 0.82768501E-01 0.30814695E+04</pdfrwt>
<totfact> 0.16236806E-01</totfact>
</mgrwt>
</event>
<event>
 6    1  0.1780144E-005  0.1596687E+04  0.7818608E-02  0.8822586E-01
          2   -1    0    0  501    0  0.00000000000E+00  0.00000000000E+00  0.64715060206E+03  0.64715060206E+03  0.00000000000E+00 0. -1.
         -2   -1    0    0    0  501 -0.00000000000E+00 -0.00000000000E+00 -0.98485953676E+03  0.98485953676E+03  0.00000000000E+00 0.  1.
         23    2    1    2    0    0  0.50416292909E+03  0.48185286465E+03  0.22202167557E+03  0.73777258743E+03  0.93017869814E+02 0.  0.
         13    1    3    3    0    0  0.19902982984E+03  0.17868751506E+03  0.38928675714E+02  0.27029158884E+03  0.00000000000E+00 0.  1.
        -13    1    3    3    0    0  0.30513309925E+03  0.30316534959E+03  0.18309299985E+03  0.46748099859E+03  0.00000000000E+00 0. -1.
         22    1    1    2    0    0 -0.50416292909E+03 -0.48185286465E+03 -0.55973061027E+03  0.89423755139E+03  0.00000000000E+00 0.  1.
<mgrwt>
<rscale>  0 0.15966871E+04</rscale>
<asrwt>0</asrwt>
<pdfrwt beam="1">  1        2 0.99561631E-01 0.15966871E+04</pdfrwt>
<pdfrwt beam="2">  1       -2 0.15151685E+00 0.15966871E+04</pdfrwt>
<totfact> 0.12640836E+01</totfact>
</mgrwt>
</event>
<event>
 6    1  0.1780144E-005  0.1822971E+04  0.7818608E-02  0.8694178E-01
          1   -1    0    0  501    0  0.00000000000E+00  0.00000000000E+00  0.11173441990E+04  0.11173441990E+04  0.00000000000E+00 0. -1.
         -1   -1    0    0    0  501 -0.00000000000E+00 -0.00000000000E+00 -0.74355383027E+03  0.74355383027E+03  0.00000000000E+00 0.  1.
         23    2    1    2    0    0 -0.66976886482E+03 -0.37899558939E+03  0.68148994083E+03  0.10320994918E+04  0.92589591505E+02 0.  0.
         11    1    3    3    0    0 -0.46981674323E+03 -0.31107673134E+03  0.47947193376E+03  0.73985798655E+03  0.00000000000E+00 0.  1.
        -11    1    3    3    0    0 -0.19995212159E+03 -0.67918858048E+02  0.20201800707E+03  0.29224150524E+03  0.00000000000E+00 0. -1.
         22    1    1    2    0    0  0.66976886482E+03  0.37899558939E+03 -0.30769957209E+03  0.82879853748E+03  0.00000000000E+00 0.  1.
<mgrwt>
<rscale>  0 0.18229707E+04</rscale>
<asrwt>0</asrwt>
<pdfrwt beam="1">  1        1 0.17189911E+00 0.18229707E+04</pdfrwt>
<pdfrwt beam="2">  1       -1 0.11439290E+00 0.18229707E+04</pdfrwt>
<totfact> 0.80562530E+00</totfact>
</mgrwt>
</event>
<event>
 6    1  0.1780144E-005  0.1885818E+04  0.7818608E-02  0.8661948E-01
          1   -1    0    0  501    0  0.00000000000E+00  0.00000000000E+00  0.13896193270E+04  0.13896193270E+04  0.00000000000E+00 0. -1.
         -1   -1    0    0    0  501 -0.00000000000E+00 -0.00000000000E+00 -0.63979905681E+03  0.63979905681E+03  0.00000000000E+00 0.  1.
         23    2    1    2    0    0  0.49662038070E+03  0.75710370663E+03  0.10163608105E+03  0.91587423644E+03  0.93047831151E+02 0.  0.
         11    1    3    3    0    0  0.18122233655E+03  0.35989522178E+03  0.39278509613E+02  0.40485665024E+03  0.00000000000E+00 0.  1.
        -11    1    3    3    0    0  0.31539804415E+03  0.39720848484E+03  0.62357571440E+02  0.51101758619E+03  0.00000000000E+00 0. -1.
         22    1    1    2    0    0 -0.49662038070E+03 -0.75710370663E+03  0.64818418913E+03  0.11135441474E+04  0.00000000000E+00 0. -1.
<mgrwt>
<rscale>  0 0.18858177E+04</rscale>
<asrwt>0</asrwt>
<pdfrwt beam="1">  1        1 0.21378759E+00 0.18858177E+04</pdfrwt>
<pdfrwt beam="2">  1       -1 0.98430624E-01 0.18858177E+04</pdfrwt>
<totfact> 0.72324534E+00</totfact>
</mgrwt>
</event>
<event>
 6    1  0.1780144E-005  0.4440048E+04  0.7818608E-02  0.7921217E-01
         -2   -1    0    0    0  501 -0.00000000000E+00  0.00000000000E+00  0.16001554422E+04  0.16001554422E+04  0.00000000000E+00 0.  1.
          2   -1    0    0  501    0  0.00000000000E+00 -0.00000000000E+00 -0.30800177234E+04  0.30800177234E+04  0.00000000000E+00 0. -1.
         23    2    1    2    0    0 -0.21333329263E+04 -0.47785763931E+03 -0.11410979047E+04  0.24678850740E+04  0.94313375029E+02 0.  0.
         13    1    3    3    0    0 -0.82301519998E+03 -0.14387864029E+03 -0.40965362210E+03  0.93052198933E+03  0.00000000000E+00 0.  1.
        -13    1    3    3    0    0 -0.13103177263E+04 -0.33397899902E+03 -0.73144428260E+03  0.15373630847E+04  0.00000000000E+00 0. -1.
         22    1    1    2    0    0  0.21333329263E+04  0.47785763931E+03 -0.33876437649E+03  0.22122880917E+04  0.00000000000E+00 0.  1.
<mgrwt>
<rscale>  0 0.44400483E+04</rscale>
<asrwt>0</asrwt>
<pdfrwt beam="1">  1        2 0.47384888E+00 0.44400483E+04</pdfrwt>
<pdfrwt beam="2">  1       -2 0.24617776E+00 0.44400483E+04</pdfrwt>
<totfact> 0.79993221E-02</totfact>
</mgrwt>
</event>
<event>
 6    1  0.1780144E-005  0.1699145E+04  0.7818608E-02  0.8761852E-01
          2   -1    0    0  501    0  0.00000000000E+00  0.00000000000E+00  0.16389502749E+04  0.16389502749E+04  0.00000000000E+00 0. -1.
         -2   -1    0    0    0  501 -0.00000000000E+00 -0.00000000000E+00 -0.44038786482E+03  0.44038786482E+03  0.00000000000E+00 0.  1.
         23    2    1    2    0    0 -0.55752404222E+03  0.56845242021E+03  0.95479593525E+03  0.12466357283E+04  0.92163710526E+02 0.  0.
         11    1    3    3    0    0 -0.26528024046E+03  0.22168623207E+03  0.36628210978E+03  0.50366752467E+03  0.00000000000E+00 0. -1.
        -11    1    3    3    0    0 -0.29224380175E+03  0.34676618813E+03  0.58851382547E+03  0.74296820367E+03  0.00000000000E+00 0.  1.
         22    1    1    2    0    0  0.55752404222E+03 -0.56845242021E+03  0.24376647486E+03  0.83270241140E+03  0.00000000000E+00 0.  1.
<mgrwt>
<rscale>  0 0.16991454E+04</rscale>
<asrwt>0</asrwt>
<pdfrwt beam="1">  1        2 0.25214619E+00 0.16991454E+04</pdfrwt>
<pdfrwt beam="2">  1       -2 0.67751980E-01 0.16991454E+04</pdfrwt>
<totfact> 0.20143495E+01</totfact>
</mgrwt>
</event>
<event>
 6    1  0.1780144E-005  0.2761462E+04  0.7818608E-02  0.8315334E-01
          2   -1    0    0  501    0  0.00000000000E+00  0.00000000000E+00  0.32258543811E+04  0.32258543811E+04  0.00000000000E+00 0. -1.
         -2   -1    0    0    0  501 -0.00000000000E+00 -0.00000000000E+00 -0.59098077296E+03  0.59098077296E+03  0.00000000000E+00 0.  1.
         23    2    1    2    0    0 -0.11777310803E+04  0.21292669745E+03  0.37135891935E+03  0.12563885090E+04  0.90644152332E+02 0.  0.
         11    1    3    3    0    0 -0.20646358668E+03  0.70292948030E+02  0.54100526637E+02  0.22471132181E+03  0.00000000000E+00 0. -1.
        -11    1    3    3    0    0 -0.97126749366E+03  0.14263374942E+03  0.31725839271E+03  0.10316771871E+04  0.00000000000E+00 0.  1.
         22    1    1    2    0    0  0.11777310803E+04 -0.21292669745E+03  0.22635146888E+04  0.25604466451E+04  0.00000000000E+00 0. -1.
<mgrwt>
<rscale>  0 0.27614619E+04</rscale>
<asrwt>0</asrwt>
<pdfrwt beam="1">  1        2 0.49628528E+00 0.27614619E+04</pdfrwt>
<pdfrwt beam="2">  1       -2 0.90920121E-01 0.27614619E+04</pdfrwt>
<totfact> 0.11234443E+00</totfact>
</mgrwt>
</event>
<event>
 6    1  0.1780144E-005  0.1735708E+04  0.7818608E-02  0.8741257E-01
         -1   -1    0    0    0  501 -0.00000000000E+00  0.00000000000E+00  0.90733391895E+03  0.90733391895E+03  0.00000000000E+00 0.  1.
          1   -1    0    0  501    0  0.00000000000E+00 -0.00000000000E+00 -0.83009202041E+03  0.83009202041E+03  0.00000000000E+00 0. -1.
         23    2    1    2    0    0  0.28816217042E+03 -0.81329248482E+03  0.10509813723E+03  0.87414262992E+03  0.92723334013E+02 0.  0.
         13    1    3    3    0    0  0.10154801204E+03 -0.42201427810E+03  0.42298317933E+02  0.43611603659E+03  0.00000000000E+00 0.  1.
        -13    1    3    3    0    0  0.18661415839E+03 -0.39127820672E+03  0.62799819300E+02  0.43802659333E+03  0.00000000000E+00 0. -1.
         22    1    1    2    0    0 -0.28816217042E+03  0.81329248482E+03 -0.27856238694E+02  0.86328330944E+03  0.00000000000E+00 0.  1.
<mgrwt>
<rscale>  0 0.17357081E+04</rscale>
<asrwt>0</asrwt>
<pdfrwt beam="1">  1        1 0.12770647E+00 0.17357081E+04</pdfrwt>
<pdfrwt beam="2">  1       -1 0.13958983E+00 0.17357081E+04</pdfrwt>
<totfact> 0.83463544E+00</totfact>
</mgrwt>
</event>
<event>
 6    1  0.1780144E-005  0.1607133E+04  0.7818608E-02  0.8816178E-01
          1   -1    0    0  501    0  0.00000000000E+00  0.00000000000E+00  0.10745681922E+04  0.10745681922E+04  0.00000000000E+00 0. -1.
         -1   -1    0    0    0  501 -0.00000000000E+00 -0.00000000000E+00 -0.60091034706E+03  0.60091034706E+03  0.00000000000E+00 0.  1.
         23    2    1    2    0    0  0.20737910125E+03  0.57394577494E+03  0.77844015438E+03  0.99334064984E+03  0.91305687001E+02 0.  0.
         11    1    3    3    0    0  0.70510773468E+02  0.12784354501E+03  0.23918370916E+03  0.28022239008E+03  0.00000000000E+00 0. -1.
        -11    1    3    3    0    0  0.13686832778E+03  0.44610222993E+03  0.53925644522E+03  0.71311825976E+03  0.00000000000E+00 0.  1.
         22    1    1    2    0    0 -0.20737910125E+03 -0.57394577494E+03 -0.30478230920E+03  0.68213788944E+03  0.00000000000E+00 0.  1.
<mgrwt>
<rscale>  0 0.16071330E+04</rscale>
<asrwt>0</asrwt>
<pdfrwt beam="1">  1        1 0.16531818E+00 0.16071330E+04</pdfrwt>
<pdfrwt beam="2">  1       -1 0.92447746E-01 0.16071330E+04</pdfrwt>
<totfact> 0.14467776E+01</totfact>
</mgrwt>
</event>
<event>
 6    1  0.1780144E-005  0.1163508E+04  0.7818608E-02  0.9145412E-01
          1   -1    0    0  501    0  0.00000000000E+00  0.00000000000E+00  0.16237397613E+04  0.16237397613E+04  0.00000000000E+00 0. -1.
         -1   -1    0    0    0  501 -0.00000000000E+00 -0.00000000000E+00 -0.20843098565E+03  0.20843098565E+03  0.00000000000E+00 0.  1.
         23    2    1    2    0    0 -0.21553146548E+03  0.17037150812E+03 -0.88930140704E+02  0.30304845594E+03  0.91921343174E+02 0.  0.
         13    1    3    3    0    0 -0.18911999689E+03  0.99333961788E+02 -0.71638010219E+02  0.22531225820E+03  0.00000000000E+00 0. -1.
        -13    1    3    3    0    0 -0.26411468592E+02  0.71037546336E+02 -0.17292130485E+02  0.77736197741E+02  0.00000000000E+00 0.  1.
         22    1    1    2    0    0  0.21553146548E+03 -0.17037150812E+03  0.15042389163E+04  0.15291222910E+04  0.00000000000E+00 0. -1.
<mgrwt>
<rscale>  0 0.11635079E+04</rscale>
<asrwt>0</asrwt>
<pdfrwt beam="1">  1        1 0.24980611E+00 0.11635079E+04</pdfrwt>
<pdfrwt beam="2">  1       -1 0.32066307E-01 0.11635079E+04</pdfrwt>
<totfact> 0.48384359E+01</totfact>
</mgrwt>
</event>
<event>
 6    1  0.1780144E-005  0.2593791E+04  0.7818608E-02  0.8370313E-01
         -1   -1    0    0    0  501 -0.00000000000E+00  0.00000000000E+00  0.50110761765E+03  0.50110761765E+03  0.00000000000E+00 0.  1.
          1   -1    0    0  501    0  0.00000000000E+00 -0.00000000000E+00 -0.33564405011E+04  0.33564405011E+04  0.00000000000E+00 0. -1.
         23    2    1    2    0    0 -0.12255404426E+04  0.27827994378E+03 -0.96168996564E+03  0.15848245096E+04  0.86209238127E+02 0.  0.
         13    1    3    3    0    0 -0.11453705021E+04  0.25910489103E+03 -0.92367584567E+03  0.14940501998E+04  0.00000000000E+00 0. -1.
        -13    1    3    3    0    0 -0.80169940505E+02  0.19175052755E+02 -0.38014119971E+02  0.90774309834E+02  0.00000000000E+00 0.  1.
         22    1    1    2    0    0  0.12255404426E+04 -0.27827994378E+03 -0.18936429179E+04  0.22727236092E+04  0.00000000000E+00 0. -1.
<mgrwt>
<rscale>  0 0.25937910E+04</rscale>
<asrwt>0</asrwt>
<pdfrwt beam="1">  1        1 0.51637545E+00 0.25937910E+04</pdfrwt>
<pdfrwt beam="2">  1       -1 0.77093482E-01 0.25937910E+04</pdfrwt>
<totfact> 0.48079481E-01</totfact>
</mgrwt>
</event>
<event>
 6    1  0.1780144E-005  0.2232758E+04  0.7818608E-02  0.8504916E-01
          1   -1    0    0  501    0  0.00000000000E+00  0.00000000000E+00  0.56469514083E+03  0.56469514083E+03  0.00000000000E+00 0. -1.
         -1   -1    0    0    0  501 -0.00000000000E+00 -0.00000000000E+00 -0.22070354700E+04  0.22070354700E+04  0.00000000000E+00 0.  1.
         23    2    1    2    0    0  0.47243620610E+03 -0.99655364049E+03 -0.10219679274E+04  0.15063543648E+04  0.91487160341E+02 0.  0.
         11    1    3    3    0    0  0.39405169344E+03 -0.74259504090E+03 -0.76396970837E+03  0.11359462343E+04  0.00000000000E+00 0.  1.
        -11    1    3    3    0    0  0.78384512651E+02 -0.25395859958E+03 -0.25799821898E+03  0.37040813048E+03  0.00000000000E+00 0. -1.
         22    1    1    2    0    0 -0.47243620610E+03  0.99655364049E+03 -0.62037240184E+03  0.12653762461E+04  0.00000000000E+00 0. -1.
<mgrwt>
<rscale>  0 0.22327581E+04</rscale>
<asrwt>0</asrwt>
<pdfrwt beam="1">  1        1 0.86876175E-01 0.22327581E+04</pdfrwt>
<pdfrwt beam="2">  1       -1 0.33954392E+00 0.22327581E+04</pdfrwt>
<totfact> 0.61937666E-01</totfact>
</mgrwt>
</event>
<event>
 6    1  0.1780144E-005  0.1129016E+04  0.7818608E-02  0.9177364E-01
         -2   -1    0    0    0  501 -0.00000000000E+00  0.00000000000E+00  0.44881582431E+03  0.44881582431E+03  0.00000000000E+00 0.  1.
          2   -1    0    0  501    0  0.00000000000E+00 -0.00000000000E+00 -0.71002226819E+03  0.71002226819E+03  0.00000000000E+00 0. -1.
         23    2    1    2    0    0  0.18410139744E+03  0.10186928797E+03  0.40209453511E+03  0.46296535621E+03  0.91576358925E+02 0.  0.
         13    1    3    3    0    0  0.86810086664E+02 -0.92132599967E+00  0.13112610027E+03  0.15726059316E+03  0.00000000000E+00 0. -1.
        -13    1    3    3    0    0  0.97291310774E+02  0.10279061397E+03  0.27096843484E+03  0.30570476305E+03  0.00000000000E+00 0.  1.
         22    1    1    2    0    0 -0.18410139744E+03 -0.10186928797E+03 -0.66330097900E+03  0.69587273629E+03  0.00000000000E+00 0. -1.
<mgrwt>
<rscale>  0 0.11290159E+04</rscale>
<asrwt>0</asrwt>
<pdfrwt beam="1">  1        2 0.10923419E+00 0.11290159E+04</pdfrwt>
<pdfrwt beam="2">  1       -2 0.69048589E-01 0.11290159E+04</pdfrwt>
<totfact> 0.76429446E+01</totfact>
</mgrwt>
</event>
<event>
 6    1  0.1780144E-005  0.3001926E+04  0.7818608E-02  0.8243181E-01
          2   -1    0    0  501    0  0.00000000000E+00  0.00000000000E+00  0.14774543419E+04  0.14774543419E+04  0.00000000000E+00 0. -1.
         -2   -1    0    0    0  501 -0.00000000000E+00 -0.00000000000E+00 -0.15248458438E+04  0.15248458438E+04  0.00000000000E+00 0.  1.
         23    2    1    2    0    0  0.76665593679E+02 -0.71204973880E+03  0.12939231457E+04  0.14817682302E+04  0.92236312702E+02 0.  0.
         13    1    3    3    0    0  0.84577328127E+02 -0.51271435746E+03  0.99254849004E+03  0.11203489822E+04  0.00000000000E+00 0.  1.
        -13    1    3    3    0    0 -0.79117344474E+01 -0.19933538134E+03  0.30137465567E+03  0.36141924807E+03  0.00000000000E+00 0. -1.
         22    1    1    2    0    0 -0.76665593679E+02  0.71204973880E+03 -0.13413146475E+04  0.15205319554E+04  0.00000000000E+00 0.  1.
<mgrwt>
<rscale>  0 0.30019261E+04</rscale>
<asrwt>0</asrwt>
<pdfrwt beam="1">  1        2 0.22730067E+00 0.30019261E+04</pdfrwt>
<pdfrwt beam="2">  1       -2 0.23459167E+00 0.30019261E+04</pdfrwt>
<totfact> 0.89549591E-01</totfact>
</mgrwt>
</event>
<event>
 6    1  0.1780144E-005  0.1845578E+04  0.7818608E-02  0.8682430E-01
         -2   -1    0    0    0  501 -0.00000000000E+00  0.00000000000E+00  0.17164187561E+04  0.17164187561E+04  0.00000000000E+00 0.  1.
          2   -1    0    0  501    0  0.00000000000E+00 -0.00000000000E+00 -0.49611402438E+03  0.49611402438E+03  0.00000000000E+00 0. -1.
         23    2    1    2    0    0 -0.62289893437E+03 -0.64613175914E+03  0.85836064700E+03  0.12448071721E+04  0.85279321971E+02 0.  0.
         11    1    3    3    0    0 -0.36060288617E+02 -0.53546298260E+02  0.90487148578E+02  0.11115518220E+03  0.00000000000E+00 0.  1.
        -11    1    3    3    0    0 -0.58683864575E+03 -0.59258546088E+03  0.76787349843E+03  0.11336519899E+04  0.00000000000E+00 0. -1.
         22    1    1    2    0    0  0.62289893437E+03  0.64613175914E+03  0.36194408467E+03  0.96772560834E+03  0.00000000000E+00 0. -1.
<mgrwt>
<rscale>  0 0.18455779E+04</rscale>
<asrwt>0</asrwt>
<pdfrwt beam="1">  1        2 0.76325235E-01 0.18455779E+04</pdfrwt>
<pdfrwt beam="2">  1       -2 0.26406442E+00 0.18455779E+04</pdfrwt>
<totfact> 0.30806544E+00</totfact>
</mgrwt>
</event>
<event>
 6    1  0.1912661E-005  0.1260965E+04  0.7818608E-02  0.9061106E-01
         -2   -1    0    0    0  501 -0.00000000000E+00  0.00000000000E+00  0.31542692296E+03  0.31542692296E+03  0.00000000000E+00 0.  1.
          2   -1    0    0  501    0  0.00000000000E+00 -0.00000000000E+00 -0.12602231376E+04  0.12602231376E+04  0.00000000000E+00 0. -1.
         23    2    1    2    0    0  0.15633768197E+02 -0.77465484275E+02 -0.12522922033E+04  0.12581613223E+04  0.92134870913E+02 0.  0.
         13    1    3    3    0    0 -0.14304430785E+01 -0.60900999814E+01 -0.79446994077E+03  0.79449457032E+03  0.00000000000E+00 0.  1.
        -13    1    3    3    0    0  0.17064211276E+02 -0.71375384294E+02 -0.45782226253E+03  0.46366675194E+03  0.00000000000E+00 0. -1.
         22    1    1    2    0    0 -0.15633768197E+02  0.77465484275E+02  0.30749598861E+03  0.31748873834E+03  0.00000000000E+00 0.  1.
<mgrwt>
<rscale>  0 0.12609652E+04</rscale>
<asrwt>0</asrwt>
<pdfrwt beam="1">  1        2 0.19388048E+00 0.12609652E+04</pdfrwt>
<pdfrwt beam="2">  1       -2 0.48527219E-01 0.12609652E+04</pdfrwt>
<totfact> 0.68926982E+01</totfact>
</mgrwt>
</event>
<event>
 6    1  0.1780144E-005  0.2078729E+04  0.7818608E-02  0.8570672E-01
         -1   -1    0    0    0  501 -0.00000000000E+00  0.00000000000E+00  0.75385163368E+03  0.75385163368E+03  0.00000000000E+00 0.  1.
          1   -1    0    0  501    0  0.00000000000E+00 -0.00000000000E+00 -0.14330128445E+04  0.14330128445E+04  0.00000000000E+00 0. -1.
         23    2    1    2    0    0  0.79740154645E+03  0.39798124398E+03 -0.89893793761E+03  0.12689646435E+04  0.89126617005E+02 0.  0.
         11    1    3    3    0    0  0.42960479000E+03  0.26379458283E+03 -0.50394575409E+03  0.71281777517E+03  0.00000000000E+00 0. -1.
        -11    1    3    3    0    0  0.36779675644E+03  0.13418666114E+03 -0.39499218351E+03  0.55614686830E+03  0.00000000000E+00 0.  1.
         22    1    1    2    0    0 -0.79740154645E+03 -0.39798124398E+03  0.21977672684E+03  0.91789983467E+03  0.00000000000E+00 0.  1.
<mgrwt>
<rscale>  0 0.20787295E+04</rscale>
<asrwt>0</asrwt>
<pdfrwt beam="1">  1        1 0.22046351E+00 0.20787295E+04</pdfrwt>
<pdfrwt beam="2">  1       -1 0.11597718E+00 0.20787295E+04</pdfrwt>
<totfact> 0.45137972E+00</totfact>
</mgrwt>
</event>
<event>
 6    1  0.1780144E-005  0.5242106E+04  0.7818608E-02  0.7792208E-01
          2   -1    0    0  501    0  0.00000000000E+00  0.00000000000E+00  0.15781546710E+04  0.15781546710E+04  0.00000000000E+00 0.  1.
         -2   -1    0    0    0  501 -0.00000000000E+00 -0.00000000000E+00 -0.43531346778E+04  0.43531346778E+04  0.00000000000E+00 0. -1.
         23    2    1    2    0    0  0.24247822478E+04 -0.14818460734E+02 -0.26434762937E+03  0.24408648087E+04  0.90292906694E+02 0.  0.
         11    1    3    3    0    0  0.84029676582E+03 -0.54193018918E+01 -0.48440734366E+02  0.84170928962E+03  0.00000000000E+00 0. -1.
        -11    1    3    3    0    0  0.15844854820E+04 -0.93991588423E+01 -0.21590689500E+03  0.15991555190E+04  0.00000000000E+00 0.  1.
         22    1    1    2    0    0 -0.24247822478E+04  0.14818460734E+02 -0.25106323774E+04  0.34904245401E+04  0.00000000000E+00 0. -1.
<mgrwt>
<rscale>  0 0.52421064E+04</rscale>
<asrwt>0</asrwt>
<pdfrwt beam="1">  1        2 0.24279303E+00 0.52421064E+04</pdfrwt>
<pdfrwt beam="2">  1       -2 0.66971303E+00 0.52421064E+04</pdfrwt>
<totfact> 0.23961629E-03</totfact>
</mgrwt>
</event>
<event>
 6    1  0.1780144E-005  0.2896728E+04  0.7818608E-02  0.8273852E-01
          2   -1    0    0  501    0  0.00000000000E+00  0.00000000000E+00  0.15039469407E+04  0.15039469407E+04  0.00000000000E+00 0.  1.
         -2   -1    0    0    0  501 -0.00000000000E+00 -0.00000000000E+00 -0.13948356286E+04  0.13948356286E+04  0.00000000000E+00 0. -1.
         23    2    1    2    0    0  0.13089112119E+04 -0.12562071522E+03 -0.54931140742E+03  0.14282215871E+04  0.95103915462E+02 0.  0.
         13    1    3    3    0    0  0.95158529354E+03 -0.49115926177E+02 -0.40425122391E+03  0.10350584511E+04  0.00000000000E+00 0. -1.
        -13    1    3    3    0    0  0.35732591841E+03 -0.76504789048E+02 -0.14506018351E+03  0.39316313606E+03  0.00000000000E+00 0.  1.
         22    1    1    2    0    0 -0.13089112119E+04  0.12562071522E+03  0.65842271956E+03  0.14705609822E+04  0.00000000000E+00 0.  1.
<mgrwt>
<rscale>  0 0.28967283E+04</rscale>
<asrwt>0</asrwt>
<pdfrwt beam="1">  1        2 0.23137646E+00 0.28967283E+04</pdfrwt>
<pdfrwt beam="2">  1       -2 0.21459009E+00 0.28967283E+04</pdfrwt>
<totfact> 0.11665887E+00</totfact>
</mgrwt>
</event>
<event>
 6    1  0.1780144E-005  0.1454402E+04  0.7818608E-02  0.8915354E-01
          2   -1    0    0  501    0  0.00000000000E+00  0.00000000000E+00  0.10832631711E+04  0.10832631711E+04  0.00000000000E+00 0. -1.
         -2   -1    0    0    0  501 -0.00000000000E+00 -0.00000000000E+00 -0.48817467080E+03  0.48817467080E+03  0.00000000000E+00 0.  1.
         23    2    1    2    0    0  0.31150296627E+03 -0.43558518893E+03 -0.22859575778E+03  0.58897954159E+03  0.88726124285E+02 0.  0.
         11    1    3    3    0    0  0.77152835437E+02 -0.67338926570E+02 -0.72264835327E+02  0.12533673632E+03  0.00000000000E+00 0. -1.
        -11    1    3    3    0    0  0.23435013084E+03 -0.36824626236E+03 -0.15633092246E+03  0.46364280527E+03  0.00000000000E+00 0.  1.
         22    1    1    2    0    0 -0.31150296627E+03  0.43558518893E+03  0.82368425804E+03  0.98245830026E+03  0.00000000000E+00 0. -1.
<mgrwt>
<rscale>  0 0.14544025E+04</rscale>
<asrwt>0</asrwt>
<pdfrwt beam="1">  1        2 0.16665587E+00 0.14544025E+04</pdfrwt>
<pdfrwt beam="2">  1       -2 0.75103796E-01 0.14544025E+04</pdfrwt>
<totfact> 0.34442130E+01</totfact>
</mgrwt>
</event>
<event>
 6    1  0.1780144E-005  0.1841434E+04  0.7818608E-02  0.8684570E-01
          1   -1    0    0  501    0  0.00000000000E+00  0.00000000000E+00  0.16578043369E+04  0.16578043369E+04  0.00000000000E+00 0. -1.
         -1   -1    0    0    0  501 -0.00000000000E+00 -0.00000000000E+00 -0.51135091572E+03  0.51135091572E+03  0.00000000000E+00 0.  1.
         23    2    1    2    0    0  0.71238241248E+03  0.57011390436E+03  0.69659335560E+03  0.11518585191E+04  0.94958829538E+02 0.  0.
         13    1    3    3    0    0  0.11143557095E+03  0.49387735039E+02  0.10266561634E+03  0.15936518950E+03  0.00000000000E+00 0.  1.
        -13    1    3    3    0    0  0.60094684153E+03  0.52072616933E+03  0.59392773926E+03  0.99249332956E+03  0.00000000000E+00 0. -1.
         22    1    1    2    0    0 -0.71238241248E+03 -0.57011390436E+03  0.44986006561E+03  0.10172967336E+04  0.00000000000E+00 0.  1.
<mgrwt>
<rscale>  0 0.18414340E+04</rscale>
<asrwt>0</asrwt>
<pdfrwt beam="1">  1        1 0.25504682E+00 0.18414340E+04</pdfrwt>
<pdfrwt beam="2">  1       -1 0.78669373E-01 0.18414340E+04</pdfrwt>
<totfact> 0.77413166E+00</totfact>
</mgrwt>
</event>
<event>
 6    1  0.1780144E-005  0.8552342E+03  0.7818608E-02  0.9483339E-01
         -1   -1    0    0    0  501 -0.00000000000E+00  0.00000000000E+00  0.16087123023E+04  0.16087123023E+04  0.00000000000E+00 0.  1.
          1   -1    0    0  501    0  0.00000000000E+00 -0.00000000000E+00 -0.11366631272E+03  0.11366631272E+03  0.00000000000E+00 0. -1.
         23    2    1    2    0    0  0.12144823281E+03 -0.24021014840E+03  0.14126344915E+04  0.14408786263E+04  0.90246442982E+02 0.  0.
         13    1    3    3    0    0  0.71816321032E+02 -0.52618101135E+02  0.39506184495E+03  0.40496927028E+03  0.00000000000E+00 0. -1.
        -13    1    3    3    0    0  0.49631911778E+02 -0.18759204726E+03  0.10175726465E+04  0.10359093560E+04  0.00000000000E+00 0.  1.
         22    1    1    2    0    0 -0.12144823281E+03  0.24021014840E+03  0.82411498082E+02  0.28149998874E+03  0.00000000000E+00 0. -1.
<mgrwt>
<rscale>  0 0.85523423E+03</rscale>
<asrwt>0</asrwt>
<pdfrwt beam="1">  1        1 0.17487126E-01 0.85523423E+03</pdfrwt>
<pdfrwt beam="2">  1       -1 0.24749418E+00 0.85523423E+03</pdfrwt>
<totfact> 0.23205238E+01</totfact>
</mgrwt>
</event>
<event>
 6    1  0.1780144E-005  0.1829468E+04  0.7818608E-02  0.8690784E-01
          1   -1    0    0  501    0  0.00000000000E+00  0.00000000000E+00  0.22672374733E+04  0.22672374733E+04  0.00000000000E+00 0. -1.
         -1   -1    0    0    0  501 -0.00000000000E+00 -0.00000000000E+00 -0.36905646184E+03  0.36905646184E+03  0.00000000000E+00 0.  1.
         23    2    1    2    0    0  0.51918666648E+03 -0.70829381579E+03  0.13090930039E+04  0.15788159899E+04  0.87752566103E+02 0.  0.
         11    1    3    3    0    0  0.46211779283E+02 -0.28999855663E+02  0.90910637986E+02  0.10602482856E+03  0.00000000000E+00 0.  1.
        -11    1    3    3    0    0  0.47297488720E+03 -0.67929396012E+03  0.12181823659E+04  0.14727911613E+04  0.00000000000E+00 0. -1.
         22    1    1    2    0    0 -0.51918666648E+03  0.70829381579E+03  0.58908800760E+03  0.10574779453E+04  0.00000000000E+00 0.  1.
<mgrwt>
<rscale>  0 0.18294684E+04</rscale>
<asrwt>0</asrwt>
<pdfrwt beam="1">  1        1 0.34880576E+00 0.18294684E+04</pdfrwt>
<pdfrwt beam="2">  1       -1 0.56777919E-01 0.18294684E+04</pdfrwt>
<totfact> 0.57950590E+00</totfact>
</mgrwt>
</event>
<event>
 6    1  0.1780144E-005  0.4049069E+04  0.7818608E-02  0.7994720E-01
          1   -1    0    0  501    0  0.00000000000E+00  0.00000000000E+00  0.14965967647E+04  0.14965967647E+04  0.00000000000E+00 0. -1.
         -1   -1    0    0    0  501 -0.00000000000E+00 -0.00000000000E+00 -0.27387067624E+04  0.27387067624E+04  0.00000000000E+00 0.  1.
         23    2    1    2    0    0  0.12042937484E+04  0.71062034925E+03 -0.21512611365E+04  0.25674124917E+04  0.91529841339E+02 0.  0.
         11    1    3    3    0    0  0.63480748228E+03  0.33672395027E+03 -0.11630469772E+04  0.13671290464E+04  0.00000000000E+00 0. -1.
        -11    1    3    3    0    0  0.56948626612E+03  0.37389639898E+03 -0.98821415923E+03  0.12002834453E+04  0.00000000000E+00 0.  1.
         22    1    1    2    0    0 -0.12042937484E+04 -0.71062034925E+03  0.90915113878E+03  0.16678910355E+04  0.00000000000E+00 0. -1.
<mgrwt>
<rscale>  0 0.40490689E+04</rscale>
<asrwt>0</asrwt>
<pdfrwt beam="1">  1        1 0.23024566E+00 0.40490689E+04</pdfrwt>
<pdfrwt beam="2">  1       -1 0.42133950E+00 0.40490689E+04</pdfrwt>
<totfact> 0.26155462E-02</totfact>
</mgrwt>
</event>
<event>
 6    1  0.1780144E-005  0.1308115E+04  0.7818608E-02  0.9023155E-01
         -1   -1    0    0    0  501 -0.00000000000E+00  0.00000000000E+00  0.62237092826E+03  0.62237092826E+03  0.00000000000E+00 0.  1.
          1   -1    0    0  501    0  0.00000000000E+00 -0.00000000000E+00 -0.68735711764E+03  0.68735711764E+03  0.00000000000E+00 0. -1.
         23    2    1    2    0    0  0.41502258351E+03  0.62595021944E+01 -0.53535406954E+03  0.68240925224E+03  0.82434711051E+02 0.  0.
         13    1    3    3    0    0  0.20941469169E+03 -0.29107801639E+02 -0.31079811798E+03  0.37589526114E+03  0.00000000000E+00 0. -1.
        -13    1    3    3    0    0  0.20560789182E+03  0.35367303833E+02 -0.22455595156E+03  0.30651399110E+03  0.00000000000E+00 0.  1.
         22    1    1    2    0    0 -0.41502258351E+03 -0.62595021944E+01  0.47036788016E+03  0.62731879366E+03  0.00000000000E+00 0.  1.
<mgrwt>
<rscale>  0 0.13081148E+04</rscale>
<asrwt>0</asrwt>
<pdfrwt beam="1">  1        1 0.10574725E+00 0.13081148E+04</pdfrwt>
<pdfrwt beam="2">  1       -1 0.95749374E-01 0.13081148E+04</pdfrwt>
<totfact> 0.28946706E+01</totfact>
</mgrwt>
</event>
<event>
 6    1  0.1780144E-005  0.4134350E+04  0.7818608E-02  0.7977979E-01
         -2   -1    0    0    0  501 -0.00000000000E+00  0.00000000000E+00  0.20035144082E+04  0.20035144082E+04  0.00000000000E+00 0. -1.
          2   -1    0    0  501    0  0.00000000000E+00 -0.00000000000E+00 -0.21328583387E+04  0.21328583387E+04  0.00000000000E+00 0.  1.
         23    2    1    2    0    0  0.14291202193E+04  0.12287135795E+04 -0.91196391192E+03  0.20956337393E+04  0.88774608630E+02 0.  0.
         13    1    3    3    0    0  0.10581214733E+04  0.85777692721E+03 -0.65243174219E+03  0.15103209881E+04  0.00000000000E+00 0. -1.
        -13    1    3    3    0    0  0.37099874603E+03  0.37093665229E+03 -0.25953216973E+03  0.58531275118E+03  0.00000000000E+00 0.  1.
         22    1    1    2    0    0 -0.14291202193E+04 -0.12287135795E+04  0.78261998141E+03  0.20407390075E+04  0.00000000000E+00 0. -1.
<mgrwt>
<rscale>  0 0.41343500E+04</rscale>
<asrwt>0</asrwt>
<pdfrwt beam="1">  1        2 0.32813205E+00 0.41343500E+04</pdfrwt>
<pdfrwt beam="2">  1       -2 0.30823299E+00 0.41343500E+04</pdfrwt>
<totfact> 0.12436251E-01</totfact>
</mgrwt>
</event>
<event>
 6    1  0.1780144E-005  0.3163868E+04  0.7818608E-02  0.8198425E-01
         -2   -1    0    0    0  501 -0.00000000000E+00  0.00000000000E+00  0.33245145602E+04  0.33245145602E+04  0.00000000000E+00 0. -1.
          2   -1    0    0  501    0  0.00000000000E+00 -0.00000000000E+00 -0.75274587665E+03  0.75274587665E+03  0.00000000000E+00 0.  1.
         23    2    1    2    0    0  0.11788675365E+04  0.58996177865E+03  0.24097748216E+04  0.27490941897E+04  0.11278565553E+03 0.  0.
         13    1    3    3    0    0  0.10354044772E+04  0.52797244944E+03  0.21917284543E+04  0.24808246525E+04  0.00000000000E+00 0. -1.
        -13    1    3    3    0    0  0.14346305932E+03  0.61989329213E+02  0.21804636724E+03  0.26826953721E+03  0.00000000000E+00 0.  1.
         22    1    1    2    0    0 -0.11788675365E+04 -0.58996177865E+03  0.16199386200E+03  0.13281662472E+04  0.00000000000E+00 0.  1.
<mgrwt>
<rscale>  0 0.31638677E+04</rscale>
<asrwt>0</asrwt>
<pdfrwt beam="1">  1        2 0.11580706E+00 0.31638677E+04</pdfrwt>
<pdfrwt beam="2">  1       -2 0.51146377E+00 0.31638677E+04</pdfrwt>
<totfact> 0.44102750E-02</totfact>
</mgrwt>
</event>
<event>
 6    1  0.1780144E-005  0.2734482E+04  0.7818608E-02  0.8323903E-01
          2   -1    0    0  501    0  0.00000000000E+00  0.00000000000E+00  0.21974925680E+04  0.21974925680E+04  0.00000000000E+00 0. -1.
         -2   -1    0    0    0  501 -0.00000000000E+00 -0.00000000000E+00 -0.85067345431E+03  0.85067345431E+03  0.00000000000E+00 0.  1.
         23    2    1    2    0    0  0.17954306729E+03  0.13415018951E+04  0.87719337855E+03  0.16155420735E+04  0.92978062640E+02 0.  0.
         11    1    3    3    0    0  0.44662028009E+01  0.32628632100E+03  0.22080379638E+03  0.39400130296E+03  0.00000000000E+00 0. -1.
        -11    1    3    3    0    0  0.17507686449E+03  0.10152155741E+04  0.65638958217E+03  0.12215407705E+04  0.00000000000E+00 0.  1.
         22    1    1    2    0    0 -0.17954306729E+03 -0.13415018951E+04  0.46962573511E+03  0.14326239488E+04  0.00000000000E+00 0.  1.
<mgrwt>
<rscale>  0 0.27344825E+04</rscale>
<asrwt>0</asrwt>
<pdfrwt beam="1">  1        2 0.33807578E+00 0.27344825E+04</pdfrwt>
<pdfrwt beam="2">  1       -2 0.13087284E+00 0.27344825E+04</pdfrwt>
<totfact> 0.19350729E+00</totfact>
</mgrwt>
</event>
<event>
 6    1  0.1780144E-005  0.2039720E+04  0.7818608E-02  0.8588272E-01
         -2   -1    0    0    0  501 -0.00000000000E+00  0.00000000000E+00  0.13525712501E+04  0.13525712501E+04  0.00000000000E+00 0.  1.
          2   -1    0    0  501    0  0.00000000000E+00 -0.00000000000E+00 -0.76899033998E+03  0.76899033998E+03  0.00000000000E+00 0. -1.
         23    2    1    2    0    0 -0.75156705661E+03 -0.67119017586E+03  0.44230195061E+03  0.11040602204E+04  0.89267363016E+02 0.  0.
         11    1    3    3    0    0 -0.24952669991E+03 -0.26390088755E+03  0.19203339191E+03  0.41083339205E+03  0.00000000000E+00 0. -1.
        -11    1    3    3    0    0 -0.50204035669E+03 -0.40728928832E+03  0.25026855870E+03  0.69322682839E+03  0.00000000000E+00 0.  1.
         22    1    1    2    0    0  0.75156705661E+03  0.67119017586E+03  0.14127895949E+03  0.10175013696E+04  0.00000000000E+00 0.  1.
<mgrwt>
<rscale>  0 0.20397198E+04</rscale>
<asrwt>0</asrwt>
<pdfrwt beam="1">  1        2 0.11830621E+00 0.20397198E+04</pdfrwt>
<pdfrwt beam="2">  1       -2 0.20808788E+00 0.20397198E+04</pdfrwt>
<totfact> 0.39576616E+00</totfact>
</mgrwt>
</event>
<event>
 6    1  0.1780144E-005  0.3922712E+04  0.7818608E-02  0.8020322E-01
          2   -1    0    0  501    0  0.00000000000E+00  0.00000000000E+00  0.24912333527E+04  0.24912333527E+04  0.00000000000E+00 0.  1.
         -2   -1    0    0    0  501 -0.00000000000E+00 -0.00000000000E+00 -0.15441822008E+04  0.15441822008E+04  0.00000000000E+00 0. -1.
         23    2    1    2    0    0  0.14676544558E+04 -0.35116970176E+03 -0.81339244178E+03  0.17166893067E+04  0.89917463220E+02 0.  0.
         13    1    3    3    0    0  0.10168479341E+04 -0.22964521862E+03 -0.60601983990E+03  0.12058095595E+04  0.00000000000E+00 0. -1.
        -13    1    3    3    0    0  0.45080652172E+03 -0.12152448313E+03 -0.20737260188E+03  0.51087974714E+03  0.00000000000E+00 0.  1.
         22    1    1    2    0    0 -0.14676544558E+04  0.35116970176E+03  0.17604435938E+04  0.23187262469E+04  0.00000000000E+00 0.  1.
<mgrwt>
<rscale>  0 0.39227124E+04</rscale>
<asrwt>0</asrwt>
<pdfrwt beam="1">  1        2 0.38326667E+00 0.39227124E+04</pdfrwt>
<pdfrwt beam="2">  1       -2 0.23756649E+00 0.39227124E+04</pdfrwt>
<totfact> 0.21443181E-01</totfact>
</mgrwt>
</event>
<event>
 6    1  0.1780144E-005  0.2411115E+04  0.7818608E-02  0.8435354E-01
         -2   -1    0    0    0  501 -0.00000000000E+00  0.00000000000E+00  0.46184481572E+03  0.46184481572E+03  0.00000000000E+00 0.  1.
          2   -1    0    0  501    0  0.00000000000E+00 -0.00000000000E+00 -0.31468766185E+04  0.31468766185E+04  0.00000000000E+00 0. -1.
         23    2    1    2    0    0  0.10487595336E+04 -0.55406893255E+03 -0.10370823279E+04  0.15782962539E+04  0.92684241700E+02 0.  0.
         13    1    3    3    0    0  0.18989764337E+03 -0.13998770114E+03 -0.22114528528E+03  0.32336188493E+03  0.00000000000E+00 0. -1.
        -13    1    3    3    0    0  0.85886189026E+03 -0.41408123141E+03 -0.81593704267E+03  0.12549343689E+04  0.00000000000E+00 0.  1.
         22    1    1    2    0    0 -0.10487595336E+04  0.55406893255E+03 -0.16479494748E+04  0.20304251803E+04  0.00000000000E+00 0. -1.
<mgrwt>
<rscale>  0 0.24111148E+04</rscale>
<asrwt>0</asrwt>
<pdfrwt beam="1">  1        2 0.48413487E+00 0.24111148E+04</pdfrwt>
<pdfrwt beam="2">  1       -2 0.71053047E-01 0.24111148E+04</pdfrwt>
<totfact> 0.22710344E+00</totfact>
</mgrwt>
</event>
<event>
 6    1  0.1780144E-005  0.3427672E+04  0.7818608E-02  0.8131148E-01
         -1   -1    0    0    0  501 -0.00000000000E+00  0.00000000000E+00  0.97678922184E+03  0.97678922184E+03  0.00000000000E+00 0.  1.
          1   -1    0    0  501    0  0.00000000000E+00 -0.00000000000E+00 -0.30070301244E+04  0.30070301244E+04  0.00000000000E+00 0. -1.
         23    2    1    2    0    0 -0.31214444440E+02  0.41723452323E+03 -0.29459660660E+04  0.29770365674E+04  0.94718913652E+02 0.  0.
         13    1    3    3    0    0 -0.57632640239E+01  0.37302294801E+03 -0.24178485664E+04  0.24464609183E+04  0.00000000000E+00 0.  1.
        -13    1    3    3    0    0 -0.25451180416E+02  0.44211575217E+02 -0.52811749959E+03  0.53057564903E+03  0.00000000000E+00 0. -1.
         22    1    1    2    0    0  0.31214444440E+02 -0.41723452323E+03  0.91572516342E+03  0.10067827789E+04  0.00000000000E+00 0.  1.
<mgrwt>
<rscale>  0 0.34276725E+04</rscale>
<asrwt>0</asrwt>
<pdfrwt beam="1">  1        1 0.46262001E+00 0.34276725E+04</pdfrwt>
<pdfrwt beam="2">  1       -1 0.15027527E+00 0.34276725E+04</pdfrwt>
<totfact> 0.16819595E-01</totfact>
</mgrwt>
</event>
<event>
 6    1  0.1780144E-005  0.2536478E+04  0.7818608E-02  0.8390104E-01
         -1   -1    0    0    0  501 -0.00000000000E+00  0.00000000000E+00  0.97615257548E+03  0.97615257548E+03  0.00000000000E+00 0.  1.
          1   -1    0    0  501    0  0.00000000000E+00 -0.00000000000E+00 -0.16477238408E+04  0.16477238408E+04  0.00000000000E+00 0. -1.
         23    2    1    2    0    0  0.64922641021E+03  0.98779262806E+03  0.13442266467E+03  0.11931928654E+04  0.91709069286E+02 0.  0.
         13    1    3    3    0    0  0.60894225973E+03  0.92244815360E+03  0.14818791841E+03  0.11152044346E+04  0.00000000000E+00 0. -1.
        -13    1    3    3    0    0  0.40284150485E+02  0.65344474458E+02 -0.13765253744E+02  0.77988430765E+02  0.00000000000E+00 0.  1.
         22    1    1    2    0    0 -0.64922641021E+03 -0.98779262806E+03 -0.80599393002E+03  0.14306835510E+04  0.00000000000E+00 0. -1.
<mgrwt>
<rscale>  0 0.25364778E+04</rscale>
<asrwt>0</asrwt>
<pdfrwt beam="1">  1        1 0.25349597E+00 0.25364778E+04</pdfrwt>
<pdfrwt beam="2">  1       -1 0.15017732E+00 0.25364778E+04</pdfrwt>
<totfact> 0.15938923E+00</totfact>
</mgrwt>
</event>
<event>
 6    1  0.1780144E-005  0.2210141E+04  0.7818608E-02  0.8514219E-01
         -2   -1    0    0    0  501 -0.00000000000E+00  0.00000000000E+00  0.10931786942E+04  0.10931786942E+04  0.00000000000E+00 0.  1.
          2   -1    0    0  501    0  0.00000000000E+00 -0.00000000000E+00 -0.11170911800E+04  0.11170911800E+04  0.00000000000E+00 0. -1.
         23    2    1    2    0    0  0.59644031356E+03 -0.85542648895E+03  0.34777753737E+03  0.11031795440E+04  0.92522241784E+02 0.  0.
         13    1    3    3    0    0  0.70414734558E+02 -0.58229374901E+02  0.21358063698E+02  0.93835290958E+02  0.00000000000E+00 0.  1.
        -13    1    3    3    0    0  0.52602557900E+03 -0.79719711405E+03  0.32641947368E+03  0.10093442531E+04  0.00000000000E+00 0. -1.
         22    1    1    2    0    0 -0.59644031356E+03  0.85542648895E+03 -0.37169002317E+03  0.11070903301E+04  0.00000000000E+00 0. -1.
<mgrwt>
<rscale>  0 0.22101405E+04</rscale>
<asrwt>0</asrwt>
<pdfrwt beam="1">  1        2 0.17186018E+00 0.22101405E+04</pdfrwt>
<pdfrwt beam="2">  1       -2 0.16818134E+00 0.22101405E+04</pdfrwt>
<totfact> 0.42646354E+00</totfact>
</mgrwt>
</event>
<event>
 6    1  0.1780144E-005  0.1571214E+04  0.7818608E-02  0.8838430E-01
         -1   -1    0    0    0  501 -0.00000000000E+00  0.00000000000E+00  0.11307595308E+04  0.11307595308E+04  0.00000000000E+00 0.  1.
          1   -1    0    0  501    0  0.00000000000E+00 -0.00000000000E+00 -0.54580834116E+03  0.54580834116E+03  0.00000000000E+00 0. -1.
         23    2    1    2    0    0 -0.21017577165E+03  0.29300612630E+03  0.10349623888E+04  0.10999080723E+04  0.92866443049E+02 0.  0.
         13    1    3    3    0    0 -0.12091941891E+03  0.16506787625E+03  0.71877325521E+03  0.74733118632E+03  0.00000000000E+00 0. -1.
        -13    1    3    3    0    0 -0.89256352738E+02  0.12793825005E+03  0.31618913363E+03  0.35257688602E+03  0.00000000000E+00 0.  1.
         22    1    1    2    0    0  0.21017577165E+03 -0.29300612630E+03 -0.45001119923E+03  0.57665979960E+03  0.00000000000E+00 0. -1.
<mgrwt>
<rscale>  0 0.15712135E+04</rscale>
<asrwt>0</asrwt>
<pdfrwt beam="1">  1        1 0.83970514E-01 0.15712135E+04</pdfrwt>
<pdfrwt beam="2">  1       -1 0.17396300E+00 0.15712135E+04</pdfrwt>
<totfact> 0.86793726E+00</totfact>
</mgrwt>
</event>
<event>
 6    1  0.1780144E-005  0.2284161E+04  0.7818608E-02  0.8484193E-01
         -2   -1    0    0    0  501 -0.00000000000E+00  0.00000000000E+00  0.84621158221E+03  0.84621158221E+03  0.00000000000E+00 0.  1.
          2   -1    0    0  501    0  0.00000000000E+00 -0.00000000000E+00 -0.15413967130E+04  0.15413967130E+04  0.00000000000E+00 0. -1.
         23    2    1    2    0    0  0.83429054885E+03 -0.20604988071E+02  0.46420412491E+03  0.95909552605E+03  0.88957703829E+02 0.  0.
         11    1    3    3    0    0  0.37873930074E+03  0.15998742490E+02  0.25212974417E+03  0.45526786135E+03  0.00000000000E+00 0. -1.
        -11    1    3    3    0    0  0.45555124811E+03 -0.36603730561E+02  0.21207438073E+03  0.50382766469E+03  0.00000000000E+00 0.  1.
         22    1    1    2    0    0 -0.83429054885E+03  0.20604988071E+02 -0.11593892557E+04  0.14285127692E+04  0.00000000000E+00 0. -1.
<mgrwt>
<rscale>  0 0.22841609E+04</rscale>
<asrwt>0</asrwt>
<pdfrwt beam="1">  1        2 0.23713796E+00 0.22841609E+04</pdfrwt>
<pdfrwt beam="2">  1       -2 0.13018640E+00 0.22841609E+04</pdfrwt>
<totfact> 0.47262400E+00</totfact>
</mgrwt>
</event>
<event>
 6    1  0.1780144E-005  0.4084814E+04  0.7818608E-02  0.7987652E-01
          2   -1    0    0  501    0  0.00000000000E+00  0.00000000000E+00  0.12718019806E+04  0.12718019806E+04  0.00000000000E+00 0. -1.
         -2   -1    0    0    0  501 -0.00000000000E+00 -0.00000000000E+00 -0.32799346318E+04  0.32799346318E+04  0.00000000000E+00 0.  1.
         23    2    1    2    0    0 -0.15112711601E+04  0.41117034286E+03 -0.24635239964E+04  0.29206686042E+04  0.91394992757E+02 0.  0.
         11    1    3    3    0    0 -0.95466089392E+03  0.27469159231E+03 -0.14838158477E+04  0.17856490034E+04  0.00000000000E+00 0. -1.
        -11    1    3    3    0    0 -0.55661026621E+03  0.13647875056E+03 -0.97970814862E+03  0.11350196008E+04  0.00000000000E+00 0.  1.
         22    1    1    2    0    0  0.15112711601E+04 -0.41117034286E+03  0.45539134518E+03  0.16310680083E+04  0.00000000000E+00 0. -1.
<mgrwt>
<rscale>  0 0.40848145E+04</rscale>
<asrwt>0</asrwt>
<pdfrwt beam="1">  1        2 0.19566184E+00 0.40848145E+04</pdfrwt>
<pdfrwt beam="2">  1       -2 0.50460533E+00 0.40848145E+04</pdfrwt>
<totfact> 0.20826281E-02</totfact>
</mgrwt>
</event>
<event>
 6    1  0.1864146E-005  0.2668359E+04  0.7818608E-02  0.8345345E-01
          2   -1    0    0  501    0  0.00000000000E+00  0.00000000000E+00  0.18581050584E+04  0.18581050584E+04  0.00000000000E+00 0. -1.
         -2   -1    0    0    0  501 -0.00000000000E+00 -0.00000000000E+00 -0.95798399645E+03  0.95798399645E+03  0.00000000000E+00 0.  1.
         23    2    1    2    0    0  0.23301137968E+03 -0.93011050359E+03  0.14272026303E+04  0.17219159280E+04  0.93205488620E+02 0.  0.
         11    1    3    3    0    0  0.13820672136E+03 -0.50529640820E+03  0.69847490266E+03  0.87309377939E+03  0.00000000000E+00 0.  1.
        -11    1    3    3    0    0  0.94804658314E+02 -0.42481409540E+03  0.72872772765E+03  0.84882214859E+03  0.00000000000E+00 0. -1.
         22    1    1    2    0    0 -0.23301137968E+03  0.93011050359E+03 -0.52708156833E+03  0.10941731269E+04  0.00000000000E+00 0.  1.
<mgrwt>
<rscale>  0 0.26683590E+04</rscale>
<asrwt>0</asrwt>
<pdfrwt beam="1">  1        2 0.28586232E+00 0.26683590E+04</pdfrwt>
<pdfrwt beam="2">  1       -2 0.14738215E+00 0.26683590E+04</pdfrwt>
<totfact> 0.22122326E+00</totfact>
</mgrwt>
</event>
<event>
 6    1  0.1780144E-005  0.1115618E+04  0.7818608E-02  0.9190101E-01
         -2   -1    0    0    0  501 -0.00000000000E+00  0.00000000000E+00  0.61382807268E+03  0.61382807268E+03  0.00000000000E+00 0.  1.
          2   -1    0    0  501    0  0.00000000000E+00 -0.00000000000E+00 -0.50690275044E+03  0.50690275044E+03  0.00000000000E+00 0. -1.
         23    2    1    2    0    0  0.16168243922E+03  0.80623449863E+01 -0.47848604120E+03  0.51334900169E+03  0.91499144016E+02 0.  0.
         13    1    3    3    0    0  0.13229525026E+03  0.43606885568E+02 -0.34192416357E+03  0.36920959812E+03  0.00000000000E+00 0. -1.
        -13    1    3    3    0    0  0.29387188954E+02 -0.35544540581E+02 -0.13656187763E+03  0.14413940357E+03  0.00000000000E+00 0.  1.
         22    1    1    2    0    0 -0.16168243922E+03 -0.80623449863E+01  0.58541136344E+03  0.60738182143E+03  0.00000000000E+00 0.  1.
<mgrwt>
<rscale>  0 0.11156185E+04</rscale>
<asrwt>0</asrwt>
<pdfrwt beam="1">  1        2 0.77985039E-01 0.11156185E+04</pdfrwt>
<pdfrwt beam="2">  1       -2 0.94435088E-01 0.11156185E+04</pdfrwt>
<totfact> 0.56835651E+01</totfact>
</mgrwt>
</event>
<event>
 6    1  0.1780144E-005  0.1144406E+04  0.7818608E-02  0.9162960E-01
         -2   -1    0    0    0  501 -0.00000000000E+00  0.00000000000E+00  0.11954913611E+03  0.11954913611E+03  0.00000000000E+00 0.  1.
          2   -1    0    0  501    0  0.00000000000E+00 -0.00000000000E+00 -0.27387567007E+04  0.27387567007E+04  0.00000000000E+00 0. -1.
         23    2    1    2    0    0  0.74970700013E+01 -0.52288570079E+03 -0.18746789996E+04  0.19484770363E+04  0.93143691339E+02 0.  0.
         13    1    3    3    0    0 -0.83544560550E+01 -0.78985397527E+02 -0.42189115176E+03  0.42930249695E+03  0.00000000000E+00 0.  1.
        -13    1    3    3    0    0  0.15851526056E+02 -0.44390030326E+03 -0.14527878479E+04  0.15191745394E+04  0.00000000000E+00 0. -1.
         22    1    1    2    0    0 -0.74970700013E+01  0.52288570079E+03 -0.74452856494E+03  0.90982880046E+03  0.00000000000E+00 0.  1.
<mgrwt>
<rscale>  0 0.11444055E+04</rscale>
<asrwt>0</asrwt>
<pdfrwt beam="1">  1        2 0.42134716E+00 0.11444055E+04</pdfrwt>
<pdfrwt beam="2">  1       -2 0.18392176E-01 0.11444055E+04</pdfrwt>
<totfact> 0.62416365E+01</totfact>
</mgrwt>
</event>
<event>
 6    1  0.1780144E-005  0.4059590E+04  0.7818608E-02  0.7992632E-01
         -1   -1    0    0    0  501 -0.00000000000E+00  0.00000000000E+00  0.21151156791E+04  0.21151156791E+04  0.00000000000E+00 0.  1.
          1   -1    0    0  501    0  0.00000000000E+00 -0.00000000000E+00 -0.19479157031E+04  0.19479157031E+04  0.00000000000E+00 0. -1.
         23    2    1    2    0    0 -0.62149909289E+03 -0.90285678411E+03  0.17922807764E+04  0.21028530477E+04  0.91154064880E+02 0.  0.
         13    1    3    3    0    0 -0.25369362431E+03 -0.42660305879E+03  0.75071789592E+03  0.89995999024E+03  0.00000000000E+00 0. -1.
        -13    1    3    3    0    0 -0.36780546858E+03 -0.47625372532E+03  0.10415628805E+04  0.12028930575E+04  0.00000000000E+00 0.  1.
         22    1    1    2    0    0  0.62149909289E+03  0.90285678411E+03 -0.16250808004E+04  0.19601783345E+04  0.00000000000E+00 0. -1.
<mgrwt>
<rscale>  0 0.40595897E+04</rscale>
<asrwt>0</asrwt>
<pdfrwt beam="1">  1        1 0.29967934E+00 0.40595897E+04</pdfrwt>
<pdfrwt beam="2">  1       -1 0.32540241E+00 0.40595897E+04</pdfrwt>
<totfact> 0.56802295E-02</totfact>
</mgrwt>
</event>
<event>
 6    1  0.1780144E-005  0.3865156E+04  0.7818608E-02  0.8032315E-01
         -2   -1    0    0    0  501 -0.00000000000E+00  0.00000000000E+00  0.23053123890E+04  0.23053123890E+04  0.00000000000E+00 0.  1.
          2   -1    0    0  501    0  0.00000000000E+00 -0.00000000000E+00 -0.16201092821E+04  0.16201092821E+04  0.00000000000E+00 0. -1.
         23    2    1    2    0    0 -0.35849728315E+03 -0.24049614220E+03  0.22547923734E+04  0.22975490834E+04  0.91018935829E+02 0.  0.
         11    1    3    3    0    0 -0.17952577556E+03 -0.75906643173E+02  0.86938494774E+03  0.89096661549E+03  0.00000000000E+00 0.  1.
        -11    1    3    3    0    0 -0.17897150759E+03 -0.16458949903E+03  0.13854074257E+04  0.14065824679E+04  0.00000000000E+00 0. -1.
         22    1    1    2    0    0  0.35849728315E+03  0.24049614220E+03 -0.15695892666E+04  0.16278725878E+04  0.00000000000E+00 0. -1.
<mgrwt>
<rscale>  0 0.38651561E+04</rscale>
<asrwt>0</asrwt>
<pdfrwt beam="1">  1        2 0.24924758E+00 0.38651561E+04</pdfrwt>
<pdfrwt beam="2">  1       -2 0.35466344E+00 0.38651561E+04</pdfrwt>
<totfact> 0.12594903E-01</totfact>
</mgrwt>
</event>
<event>
 6    1  0.1780144E-005  0.3403108E+04  0.7818608E-02  0.8137144E-01
          1   -1    0    0  501    0  0.00000000000E+00  0.00000000000E+00  0.20849506134E+04  0.20849506134E+04  0.00000000000E+00 0. -1.
         -1   -1    0    0    0  501 -0.00000000000E+00 -0.00000000000E+00 -0.13886595418E+04  0.13886595418E+04  0.00000000000E+00 0.  1.
         23    2    1    2    0    0 -0.46415967730E+02 -0.16158654693E+04 -0.18964837818E+03  0.16302262110E+04  0.92170140026E+02 0.  0.
         11    1    3    3    0    0 -0.65683260276E+02 -0.13354803273E+04 -0.17852264095E+03  0.13489597209E+04  0.00000000000E+00 0.  1.
        -11    1    3    3    0    0  0.19267292547E+02 -0.28038514203E+03 -0.11125737230E+02  0.28126649011E+03  0.00000000000E+00 0. -1.
         22    1    1    2    0    0  0.46415967730E+02  0.16158654693E+04  0.88593944977E+03  0.18433839442E+04  0.00000000000E+00 0.  1.
<mgrwt>
<rscale>  0 0.34031083E+04</rscale>
<asrwt>0</asrwt>
<pdfrwt beam="1">  1        1 0.32076163E+00 0.34031083E+04</pdfrwt>
<pdfrwt beam="2">  1       -1 0.21363993E+00 0.34031083E+04</pdfrwt>
<totfact> 0.26066521E-01</totfact>
</mgrwt>
</event>
<event>
 6    1  0.1780144E-005  0.1547572E+04  0.7818608E-02  0.8853420E-01
          1   -1    0    0  501    0  0.00000000000E+00  0.00000000000E+00  0.14004265335E+04  0.14004265335E+04  0.00000000000E+00 0. -1.
         -1   -1    0    0    0  501 -0.00000000000E+00 -0.00000000000E+00 -0.42754462287E+03  0.42754462287E+03  0.00000000000E+00 0.  1.
         23    2    1    2    0    0 -0.48589010932E+03  0.47259894906E+03  0.92260739276E+03  0.11482899869E+04  0.89031050094E+02 0.  0.
         13    1    3    3    0    0 -0.71804417317E+02  0.81352840182E+02  0.20599452560E+03  0.23282590820E+03  0.00000000000E+00 0. -1.
        -13    1    3    3    0    0 -0.41408569201E+03  0.39124610888E+03  0.71661286716E+03  0.91546407871E+03  0.00000000000E+00 0.  1.
         22    1    1    2    0    0  0.48589010932E+03 -0.47259894906E+03  0.50274517886E+02  0.67968116948E+03  0.00000000000E+00 0.  1.
<mgrwt>
<rscale>  0 0.15475721E+04</rscale>
<asrwt>0</asrwt>
<pdfrwt beam="1">  1        1 0.21545023E+00 0.15475721E+04</pdfrwt>
<pdfrwt beam="2">  1       -1 0.65776096E-01 0.15475721E+04</pdfrwt>
<totfact> 0.17331879E+01</totfact>
</mgrwt>
</event>
<event>
 6    1  0.1780144E-005  0.1501952E+04  0.7818608E-02  0.8883156E-01
          1   -1    0    0  501    0  0.00000000000E+00  0.00000000000E+00  0.17253724398E+04  0.17253724398E+04  0.00000000000E+00 0. -1.
         -1   -1    0    0    0  501 -0.00000000000E+00 -0.00000000000E+00 -0.32686568404E+03  0.32686568404E+03  0.00000000000E+00 0.  1.
         23    2    1    2    0    0  0.36006708926E+03 -0.54969212194E+03  0.21276178330E+03  0.69658297689E+03  0.90280283438E+02 0.  0.
         13    1    3    3    0    0  0.28481860542E+02 -0.10712248605E+02  0.78898155186E+01  0.31435932291E+02  0.00000000000E+00 0.  1.
        -13    1    3    3    0    0  0.33158522872E+03 -0.53897987333E+03  0.20487196778E+03  0.66514704460E+03  0.00000000000E+00 0. -1.
         22    1    1    2    0    0 -0.36006708926E+03  0.54969212194E+03  0.11857449724E+04  0.13556551469E+04  0.00000000000E+00 0. -1.
<mgrwt>
<rscale>  0 0.15019521E+04</rscale>
<asrwt>0</asrwt>
<pdfrwt beam="1">  1        1 0.26544191E+00 0.15019521E+04</pdfrwt>
<pdfrwt beam="2">  1       -1 0.50287029E-01 0.15019521E+04</pdfrwt>
<totfact> 0.17588044E+01</totfact>
</mgrwt>
</event>
<event>
 6    1  0.1780144E-005  0.3088976E+04  0.7818608E-02  0.8218770E-01
          2   -1    0    0  501    0  0.00000000000E+00  0.00000000000E+00  0.15121400214E+04  0.15121400214E+04  0.00000000000E+00 0. -1.
         -2   -1    0    0    0  501 -0.00000000000E+00 -0.00000000000E+00 -0.15775278777E+04  0.15775278777E+04  0.00000000000E+00 0.  1.
         23    2    1    2    0    0 -0.12722214597E+04  0.25460951579E+02 -0.90692422862E+03  0.15640928703E+04  0.68405027612E+02 0.  0.
         11    1    3    3    0    0 -0.77990407060E+03  0.99363301200E+01 -0.59589339376E+03  0.98154878978E+03  0.00000000000E+00 0. -1.
        -11    1    3    3    0    0 -0.49231738908E+03  0.15524621459E+02 -0.31103083485E+03  0.58254408047E+03  0.00000000000E+00 0.  1.
         22    1    1    2    0    0  0.12722214597E+04 -0.25460951579E+02  0.84153637232E+03  0.15255750288E+04  0.00000000000E+00 0. -1.
<mgrwt>
<rscale>  0 0.30889759E+04</rscale>
<asrwt>0</asrwt>
<pdfrwt beam="1">  1        2 0.23263693E+00 0.30889759E+04</pdfrwt>
<pdfrwt beam="2">  1       -2 0.24269660E+00 0.30889759E+04</pdfrwt>
<totfact> 0.75691779E-01</totfact>
</mgrwt>
</event>
<event>
 6    1  0.1780144E-005  0.3828330E+04  0.7818608E-02  0.8040103E-01
         -1   -1    0    0    0  501 -0.00000000000E+00  0.00000000000E+00  0.43280516395E+04  0.43280516395E+04  0.00000000000E+00 0.  1.
          1   -1    0    0  501    0  0.00000000000E+00 -0.00000000000E+00 -0.84657662332E+03  0.84657662332E+03  0.00000000000E+00 0. -1.
         23    2    1    2    0    0  0.15426716877E+04 -0.10367068683E+04  0.11291983531E+04  0.21766618577E+04  0.90392784915E+02 0.  0.
         13    1    3    3    0    0  0.17996094963E+03 -0.14453358102E+03  0.16701424206E+03  0.28490288957E+03  0.00000000000E+00 0.  1.
        -13    1    3    3    0    0  0.13627107380E+04 -0.89217328724E+03  0.96218411108E+03  0.18917589682E+04  0.00000000000E+00 0. -1.
         22    1    1    2    0    0 -0.15426716877E+04  0.10367068683E+04  0.23522766631E+04  0.29979664051E+04  0.00000000000E+00 0. -1.
<mgrwt>
<rscale>  0 0.38283298E+04</rscale>
<asrwt>0</asrwt>
<pdfrwt beam="1">  1        1 0.13024256E+00 0.38283298E+04</pdfrwt>
<pdfrwt beam="2">  1       -1 0.66585409E+00 0.38283298E+04</pdfrwt>
<totfact> 0.41532837E-03</totfact>
</mgrwt>
</event>
<event>
 6    1  0.1780144E-005  0.2622523E+04  0.7818608E-02  0.8360591E-01
          2   -1    0    0  501    0  0.00000000000E+00  0.00000000000E+00  0.12246605454E+04  0.12246605454E+04  0.00000000000E+00 0. -1.
         -2   -1    0    0    0  501 -0.00000000000E+00 -0.00000000000E+00 -0.14039864391E+04  0.14039864391E+04  0.00000000000E+00 0.  1.
         23    2    1    2    0    0 -0.68739406336E+03 -0.32305867683E+02 -0.12067654884E+04  0.13920442237E+04  0.89162265273E+02 0.  0.
         11    1    3    3    0    0 -0.34863068868E+03 -0.51632648025E+02 -0.55992241170E+03  0.66160592089E+03  0.00000000000E+00 0. -1.
        -11    1    3    3    0    0 -0.33876337468E+03  0.19326780341E+02 -0.64684307666E+03  0.73043830286E+03  0.00000000000E+00 0.  1.
         22    1    1    2    0    0  0.68739406336E+03  0.32305867683E+02  0.10274395946E+04  0.12366027608E+04  0.00000000000E+00 0. -1.
<mgrwt>
<rscale>  0 0.26225231E+04</rscale>
<asrwt>0</asrwt>
<pdfrwt beam="1">  1        2 0.18840932E+00 0.26225231E+04</pdfrwt>
<pdfrwt beam="2">  1       -2 0.21599791E+00 0.26225231E+04</pdfrwt>
<totfact> 0.16942155E+00</totfact>
</mgrwt>
</event>
<event>
 6    1  0.1780144E-005  0.2717160E+04  0.7818608E-02  0.8329458E-01
          1   -1    0    0  501    0  0.00000000000E+00  0.00000000000E+00  0.16634909003E+04  0.16634909003E+04  0.00000000000E+00 0. -1.
         -1   -1    0    0    0  501 -0.00000000000E+00 -0.00000000000E+00 -0.11095583277E+04  0.11095583277E+04  0.00000000000E+00 0.  1.
         23    2    1    2    0    0  0.12150742801E+04  0.18510317964E+03 -0.30978086836E+03  0.12708276726E+04  0.91488216160E+02 0.  0.
         13    1    3    3    0    0  0.10896483565E+04  0.18388823516E+03 -0.29978837909E+03  0.11449984699E+04  0.00000000000E+00 0.  1.
        -13    1    3    3    0    0  0.12542592362E+03  0.12149444817E+01 -0.99924892723E+01  0.12582920268E+03  0.00000000000E+00 0. -1.
         22    1    1    2    0    0 -0.12150742801E+04 -0.18510317964E+03  0.86371344097E+03  0.15022215554E+04  0.00000000000E+00 0. -1.
<mgrwt>
<rscale>  0 0.27171604E+04</rscale>
<asrwt>0</asrwt>
<pdfrwt beam="1">  1        1 0.25592168E+00 0.27171604E+04</pdfrwt>
<pdfrwt beam="2">  1       -1 0.17070128E+00 0.27171604E+04</pdfrwt>
<totfact> 0.10702071E+00</totfact>
</mgrwt>
</event>
<event>
 6    1  0.1780144E-005  0.1642178E+04  0.7818608E-02  0.8795047E-01
          2   -1    0    0  501    0  0.00000000000E+00  0.00000000000E+00  0.89563404496E+03  0.89563404496E+03  0.00000000000E+00 0. -1.
         -2   -1    0    0    0  501 -0.00000000000E+00 -0.00000000000E+00 -0.75274889636E+03  0.75274889636E+03  0.00000000000E+00 0.  1.
         23    2    1    2    0    0 -0.55911689180E+03  0.11213109767E+03 -0.51964471479E+03  0.77423712875E+03  0.65018613997E+02 0.  0.
         11    1    3    3    0    0 -0.23513660437E+03  0.21613156177E+02 -0.24142971415E+03  0.33770498680E+03  0.00000000000E+00 0. -1.
        -11    1    3    3    0    0 -0.32398028743E+03  0.90517941496E+02 -0.27821500064E+03  0.43653214195E+03  0.00000000000E+00 0.  1.
         22    1    1    2    0    0  0.55911689180E+03 -0.11213109767E+03  0.66252986338E+03  0.87414581257E+03  0.00000000000E+00 0. -1.
<mgrwt>
<rscale>  0 0.16421785E+04</rscale>
<asrwt>0</asrwt>
<pdfrwt beam="1">  1        2 0.13778985E+00 0.16421785E+04</pdfrwt>
<pdfrwt beam="2">  1       -2 0.11580752E+00 0.16421785E+04</pdfrwt>
<totfact> 0.16357353E+01</totfact>
</mgrwt>
</event>
<event>
 6    1  0.1780144E-005  0.3938669E+04  0.7818608E-02  0.8017034E-01
          1   -1    0    0  501    0  0.00000000000E+00  0.00000000000E+00  0.17675493263E+04  0.17675493263E+04  0.00000000000E+00 0. -1.
         -1   -1    0    0    0  501 -0.00000000000E+00 -0.00000000000E+00 -0.21941562010E+04  0.21941562010E+04  0.00000000000E+00 0.  1.
         23    2    1    2    0    0  0.18399046559E+04 -0.66466947417E+03 -0.43177482367E+03  0.20054178796E+04  0.90756381569E+02 0.  0.
         13    1    3    3    0    0  0.13480491441E+03 -0.39748267249E+02 -0.53812479184E+02  0.15049276598E+03  0.00000000000E+00 0. -1.
        -13    1    3    3    0    0  0.17050997415E+04 -0.62492120692E+03 -0.37796234448E+03  0.18549251136E+04  0.00000000000E+00 0.  1.
         22    1    1    2    0    0 -0.18399046559E+04  0.66466947417E+03  0.51679488894E+01  0.19562876477E+04  0.00000000000E+00 0.  1.
<mgrwt>
<rscale>  0 0.39386695E+04</rscale>
<asrwt>0</asrwt>
<pdfrwt beam="1">  1        1 0.27193067E+00 0.39386695E+04</pdfrwt>
<pdfrwt beam="2">  1       -1 0.33756249E+00 0.39386695E+04</pdfrwt>
<totfact> 0.63286968E-02</totfact>
</mgrwt>
</event>
<event>
 6    1  0.1780144E-005  0.5254363E+04  0.7818608E-02  0.7790424E-01
          1   -1    0    0  501    0  0.00000000000E+00  0.00000000000E+00  0.36068118723E+04  0.36068118723E+04  0.00000000000E+00 0. -1.
         -1   -1    0    0    0  501 -0.00000000000E+00 -0.00000000000E+00 -0.19136241557E+04  0.19136241557E+04  0.00000000000E+00 0.  1.
         23    2    1    2    0    0  0.13355160663E+04 -0.73443853805E+03 -0.14003778693E+04  0.20717911978E+04  0.90870572165E+02 0.  0.
         11    1    3    3    0    0  0.88422338283E+03 -0.51413650670E+03 -0.98619986830E+03  0.14208369078E+04  0.00000000000E+00 0. -1.
        -11    1    3    3    0    0  0.45129268350E+03 -0.22030203135E+03 -0.41417800103E+03  0.65095429005E+03  0.00000000000E+00 0.  1.
         22    1    1    2    0    0 -0.13355160663E+04  0.73443853805E+03  0.30935655860E+04  0.34486448301E+04  0.00000000000E+00 0. -1.
<mgrwt>
<rscale>  0 0.52543629E+04</rscale>
<asrwt>0</asrwt>
<pdfrwt beam="1">  1        1 0.55489413E+00 0.52543629E+04</pdfrwt>
<pdfrwt beam="2">  1       -1 0.29440372E+00 0.52543629E+04</pdfrwt>
<totfact> 0.52109177E-03</totfact>
</mgrwt>
</event>
<event>
 6    1  0.1780144E-005  0.5071022E+04  0.7818608E-02  0.7817644E-01
         -2   -1    0    0    0  501 -0.00000000000E+00  0.00000000000E+00  0.23041381701E+04  0.23041381701E+04  0.00000000000E+00 0.  1.
          2   -1    0    0  501    0  0.00000000000E+00 -0.00000000000E+00 -0.27901171493E+04  0.27901171493E+04  0.00000000000E+00 0. -1.
         23    2    1    2    0    0  0.17996815689E+04 -0.12555673291E+03  0.15456241892E+04  0.23772662365E+04  0.88444232207E+02 0.  0.
         11    1    3    3    0    0  0.14443467920E+04 -0.81604859429E+02  0.11991613183E+04  0.18790382848E+04  0.00000000000E+00 0. -1.
        -11    1    3    3    0    0  0.35533477691E+03 -0.43951873482E+02  0.34646287096E+03  0.49822795166E+03  0.00000000000E+00 0.  1.
         22    1    1    2    0    0 -0.17996815689E+04  0.12555673291E+03 -0.20316031684E+04  0.27169890829E+04  0.00000000000E+00 0. -1.
<mgrwt>
<rscale>  0 0.50710218E+04</rscale>
<asrwt>0</asrwt>
<pdfrwt beam="1">  1        2 0.42924879E+00 0.50710218E+04</pdfrwt>
<pdfrwt beam="2">  1       -2 0.35448280E+00 0.50710218E+04</pdfrwt>
<totfact> 0.24738048E-02</totfact>
</mgrwt>
</event>
<event>
 6    1  0.1780144E-005  0.3567319E+04  0.7818608E-02  0.8098019E-01
          2   -1    0    0  501    0  0.00000000000E+00  0.00000000000E+00  0.13173279708E+04  0.13173279708E+04  0.00000000000E+00 0. -1.
         -2   -1    0    0    0  501 -0.00000000000E+00 -0.00000000000E+00 -0.24150711117E+04  0.24150711117E+04  0.00000000000E+00 0.  1.
         23    2    1    2    0    0  0.14181818100E+03 -0.12088601858E+04  0.81334191221E+03  0.14666317896E+04  0.89601310098E+02 0.  0.
         11    1    3    3    0    0  0.11602031922E+02 -0.47349585051E+03  0.31448657943E+03  0.56853736574E+03  0.00000000000E+00 0. -1.
        -11    1    3    3    0    0  0.13021614907E+03 -0.73536433528E+03  0.49885533278E+03  0.89809442384E+03  0.00000000000E+00 0.  1.
         22    1    1    2    0    0 -0.14181818100E+03  0.12088601858E+04 -0.19110850532E+04  0.22657672929E+04  0.00000000000E+00 0.  1.
<mgrwt>
<rscale>  0 0.35673187E+04</rscale>
<asrwt>0</asrwt>
<pdfrwt beam="1">  1        2 0.20266584E+00 0.35673187E+04</pdfrwt>
<pdfrwt beam="2">  1       -2 0.37154940E+00 0.35673187E+04</pdfrwt>
<totfact> 0.14968647E-01</totfact>
</mgrwt>
</event>
<event>
 6    1  0.1780144E-005  0.5594987E+04  0.7818608E-02  0.7742753E-01
          2   -1    0    0  501    0  0.00000000000E+00  0.00000000000E+00  0.34739017965E+04  0.34739017965E+04  0.00000000000E+00 0. -1.
         -2   -1    0    0    0  501 -0.00000000000E+00 -0.00000000000E+00 -0.22527897064E+04  0.22527897064E+04  0.00000000000E+00 0.  1.
         23    2    1    2    0    0  0.12356399382E+04  0.81661299755E+03 -0.18174431321E+04  0.23463837235E+04  0.93563853292E+02 0.  0.
         13    1    3    3    0    0  0.97997028312E+02  0.62919780225E+02 -0.10600047566E+03  0.15747513182E+03  0.00000000000E+00 0.  1.
        -13    1    3    3    0    0  0.11376429099E+04  0.75369321733E+03 -0.17114426565E+04  0.21889085917E+04  0.00000000000E+00 0. -1.
         22    1    1    2    0    0 -0.12356399382E+04 -0.81661299755E+03  0.30385552223E+04  0.33803077794E+04  0.00000000000E+00 0. -1.
<mgrwt>
<rscale>  0 0.55949871E+04</rscale>
<asrwt>0</asrwt>
<pdfrwt beam="1">  1        2 0.53444643E+00 0.55949871E+04</pdfrwt>
<pdfrwt beam="2">  1       -2 0.34658303E+00 0.55949871E+04</pdfrwt>
<totfact> 0.96096194E-03</totfact>
</mgrwt>
</event>
<event>
 6    1  0.1780144E-005  0.5888077E+04  0.7818608E-02  0.7704436E-01
          2   -1    0    0  501    0  0.00000000000E+00  0.00000000000E+00  0.23925839477E+04  0.23925839477E+04  0.00000000000E+00 0. -1.
         -2   -1    0    0    0  501 -0.00000000000E+00 -0.00000000000E+00 -0.36225948574E+04  0.36225948574E+04  0.00000000000E+00 0.  1.
         23    2    1    2    0    0 -0.15968878589E+04 -0.12306839265E+04 -0.28059327843E+04  0.34562408388E+04  0.87796269163E+02 0.  0.
         13    1    3    3    0    0 -0.88577326145E+03 -0.64728655971E+03 -0.15836598773E+04  0.19265390648E+04  0.00000000000E+00 0.  1.
        -13    1    3    3    0    0 -0.71111459746E+03 -0.58339736680E+03 -0.12222729069E+04  0.15297017740E+04  0.00000000000E+00 0. -1.
         22    1    1    2    0    0  0.15968878589E+04  0.12306839265E+04  0.15759218746E+04  0.25589379664E+04  0.00000000000E+00 0. -1.
<mgrwt>
<rscale>  0 0.58880769E+04</rscale>
<asrwt>0</asrwt>
<pdfrwt beam="1">  1        2 0.36808984E+00 0.58880769E+04</pdfrwt>
<pdfrwt beam="2">  1       -2 0.55732228E+00 0.58880769E+04</pdfrwt>
<totfact> 0.21757947E-03</totfact>
</mgrwt>
</event>
<event>
 6    1  0.1780144E-005  0.5073536E+04  0.7818608E-02  0.7817263E-01
         -2   -1    0    0    0  501 -0.00000000000E+00  0.00000000000E+00  0.34448530469E+04  0.34448530469E+04  0.00000000000E+00 0.  1.
          2   -1    0    0  501    0  0.00000000000E+00 -0.00000000000E+00 -0.18680596478E+04  0.18680596478E+04  0.00000000000E+00 0. -1.
         23    2    1    2    0    0  0.21105030011E+04  0.70292446074E+03  0.20638114725E+04  0.30357406944E+04  0.89877998668E+02 0.  0.
         11    1    3    3    0    0  0.10210778638E+04  0.34847959201E+03  0.10612799146E+04  0.15133912538E+04  0.00000000000E+00 0.  1.
        -11    1    3    3    0    0  0.10894251373E+04  0.35444486872E+03  0.10025315578E+04  0.15223494406E+04  0.00000000000E+00 0. -1.
         22    1    1    2    0    0 -0.21105030011E+04 -0.70292446074E+03 -0.48701807342E+03  0.22771720003E+04  0.00000000000E+00 0. -1.
<mgrwt>
<rscale>  0 0.50735356E+04</rscale>
<asrwt>0</asrwt>
<pdfrwt beam="1">  1        2 0.28739379E+00 0.50735356E+04</pdfrwt>
<pdfrwt beam="2">  1       -2 0.52997739E+00 0.50735356E+04</pdfrwt>
<totfact> 0.63285752E-03</totfact>
</mgrwt>
</event>
<event>
 6    1  0.1780144E-005  0.1504657E+04  0.7818608E-02  0.8881362E-01
         -2   -1    0    0    0  501 -0.00000000000E+00  0.00000000000E+00  0.36388634032E+03  0.36388634032E+03  0.00000000000E+00 0.  1.
          2   -1    0    0  501    0  0.00000000000E+00 -0.00000000000E+00 -0.15554255412E+04  0.15554255412E+04  0.00000000000E+00 0. -1.
         23    2    1    2    0    0  0.40456325790E+03 -0.19997909491E+03  0.16521579811E+03  0.48947021360E+03  0.92853443745E+02 0.  0.
         13    1    3    3    0    0  0.78818654580E+02 -0.82643350862E+02  0.33305078133E+02  0.11896021176E+03  0.00000000000E+00 0. -1.
        -13    1    3    3    0    0  0.32574460332E+03 -0.11733574404E+03  0.13191071998E+03  0.37051000185E+03  0.00000000000E+00 0.  1.
         22    1    1    2    0    0 -0.40456325790E+03  0.19997909491E+03 -0.13567549990E+04  0.14298416680E+04  0.00000000000E+00 0. -1.
<mgrwt>
<rscale>  0 0.15046569E+04</rscale>
<asrwt>0</asrwt>
<pdfrwt beam="1">  1        2 0.23929624E+00 0.15046569E+04</pdfrwt>
<pdfrwt beam="2">  1       -2 0.55982514E-01 0.15046569E+04</pdfrwt>
<totfact> 0.34180560E+01</totfact>
</mgrwt>
</event>
<event>
 6    1  0.1780144E-005  0.6389738E+04  0.7818608E-02  0.7643872E-01
          1   -1    0    0  501    0  0.00000000000E+00  0.00000000000E+00  0.28598819303E+04  0.28598819303E+04  0.00000000000E+00 0. -1.
         -1   -1    0    0    0  501 -0.00000000000E+00 -0.00000000000E+00 -0.35690937476E+04  0.35690937476E+04  0.00000000000E+00 0.  1.
         23    2    1    2    0    0 -0.15753123274E+03 -0.14124851375E+04 -0.32328663744E+04  0.35326395999E+04  0.90483119963E+02 0.  0.
         13    1    3    3    0    0 -0.99413143147E+02 -0.87370814602E+03 -0.21075933657E+04  0.22836809524E+04  0.00000000000E+00 0. -1.
        -13    1    3    3    0    0 -0.58118089593E+02 -0.53877699153E+03 -0.11252730088E+04  0.12489586475E+04  0.00000000000E+00 0.  1.
         22    1    1    2    0    0  0.15753123274E+03  0.14124851375E+04  0.25236545571E+04  0.28963360780E+04  0.00000000000E+00 0. -1.
<mgrwt>
<rscale>  0 0.63897376E+04</rscale>
<asrwt>0</asrwt>
<pdfrwt beam="1">  1        1 0.43998184E+00 0.63897376E+04</pdfrwt>
<pdfrwt beam="2">  1       -1 0.54909134E+00 0.63897376E+04</pdfrwt>
<totfact> 0.37926351E-04</totfact>
</mgrwt>
</event>
<event>
 6    1  0.1780144E-005  0.3670651E+04  0.7818608E-02  0.8074497E-01
          2   -1    0    0  501    0  0.00000000000E+00  0.00000000000E+00  0.32439310582E+04  0.32439310582E+04  0.00000000000E+00 0. -1.
         -2   -1    0    0    0  501 -0.00000000000E+00 -0.00000000000E+00 -0.10383756988E+04  0.10383756988E+04  0.00000000000E+00 0.  1.
         23    2    1    2    0    0 -0.13939163915E+04  0.40535751960E+03  0.24109931675E+04  0.28161818243E+04  0.10331693221E+03 0.  0.
         13    1    3    3    0    0 -0.77474991120E+03  0.17290838077E+03  0.12944043965E+04  0.15184259859E+04  0.00000000000E+00 0.  1.
        -13    1    3    3    0    0 -0.61916648033E+03  0.23244913883E+03  0.11165887709E+04  0.12977558383E+04  0.00000000000E+00 0. -1.
         22    1    1    2    0    0  0.13939163915E+04 -0.40535751960E+03 -0.20543780810E+03  0.14661249327E+04  0.00000000000E+00 0.  1.
<mgrwt>
<rscale>  0 0.36706507E+04</rscale>
<asrwt>0</asrwt>
<pdfrwt beam="1">  1        2 0.49906631E+00 0.36706507E+04</pdfrwt>
<pdfrwt beam="2">  1       -2 0.15975011E+00 0.36706507E+04</pdfrwt>
<totfact> 0.24846730E-01</totfact>
</mgrwt>
</event>
<event>
 6    1  0.1780144E-005  0.9523866E+03  0.7818608E-02  0.9362365E-01
          1   -1    0    0  501    0  0.00000000000E+00  0.00000000000E+00  0.14226692756E+03  0.14226692756E+03  0.00000000000E+00 0. -1.
         -1   -1    0    0    0  501 -0.00000000000E+00 -0.00000000000E+00 -0.15939055278E+04  0.15939055278E+04  0.00000000000E+00 0.  1.
         23    2    1    2    0    0  0.38112588536E+03 -0.37290620121E+02 -0.23012166757E+03  0.45603529566E+03  0.91458614512E+02 0.  0.
         13    1    3    3    0    0  0.30711611568E+03  0.71678828922E+01 -0.18527756772E+03  0.35874707547E+03  0.00000000000E+00 0.  1.
        -13    1    3    3    0    0  0.74009769674E+02 -0.44458503013E+02 -0.44844099842E+02  0.97288220192E+02  0.00000000000E+00 0. -1.
         22    1    1    2    0    0 -0.38112588536E+03  0.37290620121E+02 -0.12215169327E+04  0.12801371597E+04  0.00000000000E+00 0.  1.
<mgrwt>
<rscale>  0 0.95238656E+03</rscale>
<asrwt>0</asrwt>
<pdfrwt beam="1">  1        1 0.21887219E-01 0.95238656E+03</pdfrwt>
<pdfrwt beam="2">  1       -1 0.24521624E+00 0.95238656E+03</pdfrwt>
<totfact> 0.17659882E+01</totfact>
</mgrwt>
</event>
<event>
 6    1  0.1780144E-005  0.3115399E+04  0.7818608E-02  0.8211524E-01
         -1   -1    0    0    0  501 -0.00000000000E+00  0.00000000000E+00  0.14806446432E+04  0.14806446432E+04  0.00000000000E+00 0.  1.
          1   -1    0    0  501    0  0.00000000000E+00 -0.00000000000E+00 -0.16387645472E+04  0.16387645472E+04  0.00000000000E+00 0. -1.
         23    2    1    2    0    0  0.13625050218E+04 -0.32948752994E+03  0.59777010132E+03  0.15268164405E+04  0.94113665784E+02 0.  0.
         11    1    3    3    0    0  0.70076578538E+03 -0.12900677667E+03  0.27529139443E+03  0.76387223161E+03  0.00000000000E+00 0. -1.
        -11    1    3    3    0    0  0.66173923641E+03 -0.20048075327E+03  0.32247870689E+03  0.76294420886E+03  0.00000000000E+00 0.  1.
         22    1    1    2    0    0 -0.13625050218E+04  0.32948752994E+03 -0.75589000533E+03  0.15925927499E+04  0.00000000000E+00 0. -1.
<mgrwt>
<rscale>  0 0.31153991E+04</rscale>
<asrwt>0</asrwt>
<pdfrwt beam="1">  1        1 0.25211762E+00 0.31153991E+04</pdfrwt>
<pdfrwt beam="2">  1       -1 0.22779148E+00 0.31153991E+04</pdfrwt>
<totfact> 0.43186168E-01</totfact>
</mgrwt>
</event>
<event>
 6    1  0.1780144E-005  0.2582067E+04  0.7818608E-02  0.8374318E-01
         -1   -1    0    0    0  501 -0.00000000000E+00  0.00000000000E+00  0.17758403358E+04  0.17758403358E+04  0.00000000000E+00 0.  1.
          1   -1    0    0  501    0  0.00000000000E+00 -0.00000000000E+00 -0.93857975992E+03  0.93857975992E+03  0.00000000000E+00 0. -1.
         23    2    1    2    0    0 -0.11675069398E+03  0.79601365981E+03 -0.64001369853E+03  0.10322762990E+04  0.93318550855E+02 0.  0.
         11    1    3    3    0    0 -0.16954911178E+01  0.12527083617E+03 -0.13950368216E+03  0.18750182511E+03  0.00000000000E+00 0. -1.
        -11    1    3    3    0    0 -0.11505520286E+03  0.67074282365E+03 -0.50051001637E+03  0.84477447385E+03  0.00000000000E+00 0.  1.
         22    1    1    2    0    0  0.11675069398E+03 -0.79601365981E+03  0.14772742744E+04  0.16821437968E+04  0.00000000000E+00 0.  1.
<mgrwt>
<rscale>  0 0.25820672E+04</rscale>
<asrwt>0</asrwt>
<pdfrwt beam="1">  1        1 0.14439689E+00 0.25820672E+04</pdfrwt>
<pdfrwt beam="2">  1       -1 0.27320621E+00 0.25820672E+04</pdfrwt>
<totfact> 0.73546896E-01</totfact>
</mgrwt>
</event>
<event>
 6    1  0.1780144E-005  0.1686093E+04  0.7818608E-02  0.8769336E-01
          2   -1    0    0  501    0  0.00000000000E+00  0.00000000000E+00  0.25979582347E+04  0.25979582347E+04  0.00000000000E+00 0. -1.
         -2   -1    0    0    0  501 -0.00000000000E+00 -0.00000000000E+00 -0.27357147554E+03  0.27357147554E+03  0.00000000000E+00 0.  1.
         23    2    1    2    0    0 -0.51839769420E+03  0.66170601097E+03  0.11682402121E+04  0.14421012047E+04  0.90992730592E+02 0.  0.
         13    1    3    3    0    0 -0.34755426918E+03  0.50106782397E+03  0.80875706791E+03  0.10128923581E+04  0.00000000000E+00 0.  1.
        -13    1    3    3    0    0 -0.17084342502E+03  0.16063818700E+03  0.35948314421E+03  0.42920884656E+03  0.00000000000E+00 0. -1.
         22    1    1    2    0    0  0.51839769420E+03 -0.66170601097E+03  0.11561465470E+04  0.14294285056E+04  0.00000000000E+00 0.  1.
<mgrwt>
<rscale>  0 0.16860928E+04</rscale>
<asrwt>0</asrwt>
<pdfrwt beam="1">  1        2 0.39968586E+00 0.16860928E+04</pdfrwt>
<pdfrwt beam="2">  1       -2 0.42087921E-01 0.16860928E+04</pdfrwt>
<totfact> 0.15587505E+01</totfact>
</mgrwt>
</event>
<event>
 6    1  0.1780144E-005  0.2147552E+04  0.7818608E-02  0.8540581E-01
          2   -1    0    0  501    0  0.00000000000E+00  0.00000000000E+00  0.33577047562E+04  0.33577047562E+04  0.00000000000E+00 0. -1.
         -2   -1    0    0    0  501 -0.00000000000E+00 -0.00000000000E+00 -0.34338787585E+03  0.34338787585E+03  0.00000000000E+00 0.  1.
         23    2    1    2    0    0  0.13242290066E+03  0.77336201999E+03  0.25111110134E+03  0.82864927914E+03  0.89320792796E+02 0.  0.
         11    1    3    3    0    0  0.82182116731E+02  0.45862878849E+03  0.19470009741E+03  0.50497761720E+03  0.00000000000E+00 0. -1.
        -11    1    3    3    0    0  0.50240783925E+02  0.31473323149E+03  0.56411003931E+02  0.32367166194E+03  0.00000000000E+00 0.  1.
         22    1    1    2    0    0 -0.13242290066E+03 -0.77336201999E+03  0.27632057790E+04  0.28724433529E+04  0.00000000000E+00 0. -1.
<mgrwt>
<rscale>  0 0.21475522E+04</rscale>
<asrwt>0</asrwt>
<pdfrwt beam="1">  1        2 0.51656994E+00 0.21475522E+04</pdfrwt>
<pdfrwt beam="2">  1       -2 0.52828906E-01 0.21475522E+04</pdfrwt>
<totfact> 0.31705975E+00</totfact>
</mgrwt>
</event>
<event>
 6    1  0.1780144E-005  0.1243798E+04  0.7818608E-02  0.9075361E-01
         -1   -1    0    0    0  501 -0.00000000000E+00  0.00000000000E+00  0.15446191217E+03  0.15446191217E+03  0.00000000000E+00 0.  1.
          1   -1    0    0  501    0  0.00000000000E+00 -0.00000000000E+00 -0.25039080938E+04  0.25039080938E+04  0.00000000000E+00 0. -1.
         23    2    1    2    0    0  0.26695199462E+02 -0.58832099569E+03 -0.15842629573E+04  0.16927926686E+04  0.93934410101E+02 0.  0.
         11    1    3    3    0    0  0.60836815155E+02 -0.32424860851E+03 -0.89808367022E+03  0.95676149427E+03  0.00000000000E+00 0.  1.
        -11    1    3    3    0    0 -0.34141615693E+02 -0.26407238717E+03 -0.68617928709E+03  0.73603117435E+03  0.00000000000E+00 0. -1.
         22    1    1    2    0    0 -0.26695199462E+02  0.58832099569E+03 -0.76518322434E+03  0.96557733738E+03  0.00000000000E+00 0.  1.
<mgrwt>
<rscale>  0 0.12437981E+04</rscale>
<asrwt>0</asrwt>
<pdfrwt beam="1">  1        1 0.38521659E+00 0.12437981E+04</pdfrwt>
<pdfrwt beam="2">  1       -1 0.23763373E-01 0.12437981E+04</pdfrwt>
<totfact> 0.20407482E+01</totfact>
</mgrwt>
</event>
<event>
 6    1  0.1780144E-005  0.1855822E+04  0.7818608E-02  0.8677165E-01
          1   -1    0    0  501    0  0.00000000000E+00  0.00000000000E+00  0.66120974276E+03  0.66120974276E+03  0.00000000000E+00 0. -1.
         -1   -1    0    0    0  501 -0.00000000000E+00 -0.00000000000E+00 -0.13021871239E+04  0.13021871239E+04  0.00000000000E+00 0.  1.
         23    2    1    2    0    0 -0.11196252873E+03  0.83086530774E+03  0.94002574256E+02  0.84846713692E+03  0.90483318996E+02 0.  0.
         13    1    3    3    0    0 -0.62248252503E+02  0.49479995124E+03  0.10029870146E+03  0.50868621585E+03  0.00000000000E+00 0.  1.
        -13    1    3    3    0    0 -0.49714276224E+02  0.33606535651E+03 -0.62961272016E+01  0.33978092107E+03  0.00000000000E+00 0. -1.
         22    1    1    2    0    0  0.11196252873E+03 -0.83086530774E+03 -0.73497995542E+03  0.11149297298E+04  0.00000000000E+00 0.  1.
<mgrwt>
<rscale>  0 0.18558220E+04</rscale>
<asrwt>0</asrwt>
<pdfrwt beam="1">  1        1 0.10172458E+00 0.18558220E+04</pdfrwt>
<pdfrwt beam="2">  1       -1 0.20033648E+00 0.18558220E+04</pdfrwt>
<totfact> 0.41734951E+00</totfact>
</mgrwt>
</event>
<event>
 6    1  0.1780144E-005  0.7584372E+03  0.7818608E-02  0.9622206E-01
          2   -1    0    0  501    0  0.00000000000E+00  0.00000000000E+00  0.86109012230E+03  0.86109012230E+03  0.00000000000E+00 0. -1.
         -2   -1    0    0    0  501 -0.00000000000E+00 -0.00000000000E+00 -0.16700545530E+03  0.16700545530E+03  0.00000000000E+00 0.  1.
         23    2    1    2    0    0  0.26154945435E+03 -0.35327734664E+02  0.71134060079E+03  0.76360751896E+03  0.86225441578E+02 0.  0.
         11    1    3    3    0    0  0.56592142597E+02  0.11018228783E+02  0.82986968050E+02  0.10104904173E+03  0.00000000000E+00 0. -1.
        -11    1    3    3    0    0  0.20495731175E+03 -0.46345963447E+02  0.62835363274E+03  0.66255847723E+03  0.00000000000E+00 0.  1.
         22    1    1    2    0    0 -0.26154945435E+03  0.35327734664E+02 -0.17255933797E+02  0.26448805863E+03  0.00000000000E+00 0.  1.
<mgrwt>
<rscale>  0 0.75843720E+03</rscale>
<asrwt>0</asrwt>
<pdfrwt beam="1">  1        2 0.13247540E+00 0.75843720E+03</pdfrwt>
<pdfrwt beam="2">  1       -2 0.25693147E-01 0.75843720E+03</pdfrwt>
<totfact> 0.42752585E+02</totfact>
</mgrwt>
</event>
<event>
 6    1  0.1780144E-005  0.2788666E+04  0.7818608E-02  0.8306796E-01
         -2   -1    0    0    0  501 -0.00000000000E+00  0.00000000000E+00  0.73958820216E+03  0.73958820216E+03  0.00000000000E+00 0.  1.
          2   -1    0    0  501    0  0.00000000000E+00 -0.00000000000E+00 -0.26287114874E+04  0.26287114874E+04  0.00000000000E+00 0. -1.
         23    2    1    2    0    0  0.56596701369E+03  0.36147144182E+03  0.52805825874E+03  0.85956557045E+03  0.95011480592E+02 0.  0.
         11    1    3    3    0    0  0.17624672042E+03  0.16322851024E+03  0.16778982289E+03  0.29301856200E+03  0.00000000000E+00 0. -1.
        -11    1    3    3    0    0  0.38972029327E+03  0.19824293158E+03  0.36026843585E+03  0.56654700844E+03  0.00000000000E+00 0.  1.
         22    1    1    2    0    0 -0.56596701369E+03 -0.36147144182E+03 -0.24171815440E+04  0.25087341191E+04  0.00000000000E+00 0. -1.
<mgrwt>
<rscale>  0 0.27886656E+04</rscale>
<asrwt>0</asrwt>
<pdfrwt beam="1">  1        2 0.40441716E+00 0.27886656E+04</pdfrwt>
<pdfrwt beam="2">  1       -2 0.11378280E+00 0.27886656E+04</pdfrwt>
<totfact> 0.15423130E+00</totfact>
</mgrwt>
</event>
<event>
 6    1  0.1780144E-005  0.3796146E+04  0.7818608E-02  0.8046983E-01
          2   -1    0    0  501    0  0.00000000000E+00  0.00000000000E+00  0.29228385749E+04  0.29228385749E+04  0.00000000000E+00 0. -1.
         -2   -1    0    0    0  501 -0.00000000000E+00 -0.00000000000E+00 -0.12325964531E+04  0.12325964531E+04  0.00000000000E+00 0.  1.
         23    2    1    2    0    0  0.15098355223E+03 -0.69999039113E+03 -0.10772983535E+04  0.12967530128E+04  0.90631412998E+02 0.  0.
         11    1    3    3    0    0  0.33145159904E+02 -0.90844889604E+02 -0.99716032697E+02  0.13890530144E+03  0.00000000000E+00 0. -1.
        -11    1    3    3    0    0  0.11783839232E+03 -0.60914550152E+03 -0.97758232085E+03  0.11578477114E+04  0.00000000000E+00 0.  1.
         22    1    1    2    0    0 -0.15098355223E+03  0.69999039113E+03  0.27675404754E+04  0.28586820151E+04  0.00000000000E+00 0. -1.
<mgrwt>
<rscale>  0 0.37961457E+04</rscale>
<asrwt>0</asrwt>
<pdfrwt beam="1">  1        2 0.44966747E+00 0.37961457E+04</pdfrwt>
<pdfrwt beam="2">  1       -2 0.18963022E+00 0.37961457E+04</pdfrwt>
<totfact> 0.24305345E-01</totfact>
</mgrwt>
</event>
<event>
 6    1  0.1780144E-005  0.2332164E+04  0.7818608E-02  0.8465346E-01
          2   -1    0    0  501    0  0.00000000000E+00  0.00000000000E+00  0.80629353656E+03  0.80629353656E+03  0.00000000000E+00 0. -1.
         -2   -1    0    0    0  501 -0.00000000000E+00 -0.00000000000E+00 -0.16864166436E+04  0.16864166436E+04  0.00000000000E+00 0.  1.
         23    2    1    2    0    0  0.65541830826E+03  0.22638460825E+03  0.55889428776E+03  0.89533914869E+03  0.91903300489E+02 0.  0.
         13    1    3    3    0    0  0.38029295293E+03  0.91059753073E+02  0.34521456323E+03  0.52162026739E+03  0.00000000000E+00 0.  1.
        -13    1    3    3    0    0  0.27512535533E+03  0.13532485518E+03  0.21367972452E+03  0.37371888131E+03  0.00000000000E+00 0. -1.
         22    1    1    2    0    0 -0.65541830826E+03 -0.22638460825E+03 -0.14390173948E+04  0.15973710315E+04  0.00000000000E+00 0.  1.
<mgrwt>
<rscale>  0 0.23321637E+04</rscale>
<asrwt>0</asrwt>
<pdfrwt beam="1">  1        2 0.12404516E+00 0.23321637E+04</pdfrwt>
<pdfrwt beam="2">  1       -2 0.25944871E+00 0.23321637E+04</pdfrwt>
<totfact> 0.17329526E+00</totfact>
</mgrwt>
</event>
<event>
 6    1  0.1780144E-005  0.2350795E+04  0.7818608E-02  0.8458158E-01
         -2   -1    0    0    0  501 -0.00000000000E+00  0.00000000000E+00  0.84991436969E+03  0.84991436969E+03  0.00000000000E+00 0.  1.
          2   -1    0    0  501    0  0.00000000000E+00 -0.00000000000E+00 -0.16255272719E+04  0.16255272719E+04  0.00000000000E+00 0. -1.
         23    2    1    2    0    0  0.84453883237E+03  0.69598426079E+03  0.58485232113E+02  0.10994475906E+04  0.87889427391E+02 0.  0.
         13    1    3    3    0    0  0.93780811224E+01  0.93319128534E+01 -0.92324949403E+01  0.16132946596E+02  0.00000000000E+00 0.  1.
        -13    1    3    3    0    0  0.83516075125E+03  0.68665234794E+03  0.67717727053E+02  0.10833146440E+04  0.00000000000E+00 0. -1.
         22    1    1    2    0    0 -0.84453883237E+03 -0.69598426079E+03 -0.83409813429E+03  0.13759940510E+04  0.00000000000E+00 0. -1.
<mgrwt>
<rscale>  0 0.23507947E+04</rscale>
<asrwt>0</asrwt>
<pdfrwt beam="1">  1        2 0.25008112E+00 0.23507947E+04</pdfrwt>
<pdfrwt beam="2">  1       -2 0.13075606E+00 0.23507947E+04</pdfrwt>
<totfact> 0.41702285E+00</totfact>
</mgrwt>
</event>
<event>
 6    1  0.1780144E-005  0.4039976E+04  0.7818608E-02  0.7996530E-01
         -2   -1    0    0    0  501 -0.00000000000E+00  0.00000000000E+00  0.13735563940E+04  0.13735563940E+04  0.00000000000E+00 0. -1.
          2   -1    0    0  501    0  0.00000000000E+00 -0.00000000000E+00 -0.29706478183E+04  0.29706478183E+04  0.00000000000E+00 0.  1.
         23    2    1    2    0    0  0.12445170325E+04  0.13650964995E+04  0.76821584172E+02  0.18513552684E+04  0.96455569967E+02 0.  0.
         11    1    3    3    0    0  0.38830422434E+03  0.49319124495E+03  0.31689144073E+02  0.62850773789E+03  0.00000000000E+00 0.  1.
        -11    1    3    3    0    0  0.85621280816E+03  0.87190525454E+03  0.45132440099E+02  0.12228475305E+04  0.00000000000E+00 0. -1.
         22    1    1    2    0    0 -0.12445170325E+04 -0.13650964995E+04 -0.16739130085E+04  0.24928489439E+04  0.00000000000E+00 0.  1.
<mgrwt>
<rscale>  0 0.40399764E+04</rscale>
<asrwt>0</asrwt>
<pdfrwt beam="1">  1        2 0.45702273E+00 0.40399764E+04</pdfrwt>
<pdfrwt beam="2">  1       -2 0.21131637E+00 0.40399764E+04</pdfrwt>
<totfact> 0.16030377E-01</totfact>
</mgrwt>
</event>
<event>
 6    1  0.1780144E-005  0.3800121E+04  0.7818608E-02  0.8046129E-01
         -2   -1    0    0    0  501 -0.00000000000E+00  0.00000000000E+00  0.13380645797E+04  0.13380645797E+04  0.00000000000E+00 0.  1.
          2   -1    0    0  501    0  0.00000000000E+00 -0.00000000000E+00 -0.26980984114E+04  0.26980984114E+04  0.00000000000E+00 0. -1.
         23    2    1    2    0    0  0.12969287344E+03 -0.17363717465E+04 -0.14852746241E+04  0.22904561602E+04  0.91332519581E+02 0.  0.
         13    1    3    3    0    0  0.59329745925E+02 -0.36004583352E+03 -0.33521286357E+03  0.49550043884E+03  0.00000000000E+00 0. -1.
        -13    1    3    3    0    0  0.70363127520E+02 -0.13763259130E+04 -0.11500617606E+04  0.17949557213E+04  0.00000000000E+00 0.  1.
         22    1    1    2    0    0 -0.12969287344E+03  0.17363717465E+04  0.12524079245E+03  0.17457068309E+04  0.00000000000E+00 0.  1.
<mgrwt>
<rscale>  0 0.38001210E+04</rscale>
<asrwt>0</asrwt>
<pdfrwt beam="1">  1        2 0.41509206E+00 0.38001210E+04</pdfrwt>
<pdfrwt beam="2">  1       -2 0.20585609E+00 0.38001210E+04</pdfrwt>
<totfact> 0.25994069E-01</totfact>
</mgrwt>
</event>
<event>
 6    1  0.1780144E-005  0.7775942E+03  0.7818608E-02  0.9593027E-01
          2   -1    0    0  501    0  0.00000000000E+00  0.00000000000E+00  0.25265020389E+04  0.25265020389E+04  0.00000000000E+00 0. -1.
         -2   -1    0    0    0  501 -0.00000000000E+00 -0.00000000000E+00 -0.59831021249E+02  0.59831021249E+02  0.00000000000E+00 0.  1.
         23    2    1    2    0    0 -0.17576920875E+03 -0.14947208283E+02  0.23830012098E+04  0.23910925149E+04  0.86662649263E+02 0.  0.
         13    1    3    3    0    0 -0.10879937164E+03  0.10495324707E+02  0.94361178417E+03  0.94992139377E+03  0.00000000000E+00 0.  1.
        -13    1    3    3    0    0 -0.66969837113E+02 -0.25442532990E+02  0.14393894257E+04  0.14411711211E+04  0.00000000000E+00 0. -1.
         22    1    1    2    0    0  0.17576920875E+03  0.14947208283E+02  0.83669807796E+02  0.19524054527E+03  0.00000000000E+00 0.  1.
<mgrwt>
<rscale>  0 0.77759423E+03</rscale>
<asrwt>0</asrwt>
<pdfrwt beam="1">  1        2 0.38869254E+00 0.77759423E+03</pdfrwt>
<pdfrwt beam="2">  1       -2 0.92047744E-02 0.77759423E+03</pdfrwt>
<totfact> 0.27333139E+02</totfact>
</mgrwt>
</event>
<event>
 6    1  0.1780144E-005  0.2174045E+04  0.7818608E-02  0.8529309E-01
          1   -1    0    0  501    0  0.00000000000E+00  0.00000000000E+00  0.76310953291E+03  0.76310953291E+03  0.00000000000E+00 0. -1.
         -1   -1    0    0    0  501 -0.00000000000E+00 -0.00000000000E+00 -0.15484251574E+04  0.15484251574E+04  0.00000000000E+00 0.  1.
         23    2    1    2    0    0  0.31932587154E+02 -0.82186409700E+03 -0.11461003989E+04  0.14133999914E+04  0.87596388546E+02 0.  0.
         11    1    3    3    0    0 -0.16660757504E+02 -0.55225996490E+03 -0.73898550091E+03  0.92269616897E+03  0.00000000000E+00 0. -1.
        -11    1    3    3    0    0  0.48593344658E+02 -0.26960413209E+03 -0.40711489794E+03  0.49070382239E+03  0.00000000000E+00 0.  1.
         22    1    1    2    0    0 -0.31932587154E+02  0.82186409700E+03  0.36078477436E+03  0.89813469895E+03  0.00000000000E+00 0. -1.
<mgrwt>
<rscale>  0 0.21740451E+04</rscale>
<asrwt>0</asrwt>
<pdfrwt beam="1">  1        1 0.11740147E+00 0.21740451E+04</pdfrwt>
<pdfrwt beam="2">  1       -1 0.23821926E+00 0.21740451E+04</pdfrwt>
<totfact> 0.18139803E+00</totfact>
</mgrwt>
</event>
<event>
 6    1  0.1780144E-005  0.2309143E+04  0.7818608E-02  0.8474325E-01
         -1   -1    0    0    0  501 -0.00000000000E+00  0.00000000000E+00  0.80951045248E+03  0.80951045248E+03  0.00000000000E+00 0.  1.
          1   -1    0    0  501    0  0.00000000000E+00 -0.00000000000E+00 -0.16467175865E+04  0.16467175865E+04  0.00000000000E+00 0. -1.
         23    2    1    2    0    0  0.38032995998E+03 -0.97577107266E+03 -0.93149682637E+03  0.14047193083E+04  0.93647919571E+02 0.  0.
         13    1    3    3    0    0  0.58591347708E+02 -0.83023023127E+02 -0.10774775457E+03  0.14810586420E+03  0.00000000000E+00 0. -1.
        -13    1    3    3    0    0  0.32173861228E+03 -0.89274804953E+03 -0.82374907180E+03  0.12566134441E+04  0.00000000000E+00 0.  1.
         22    1    1    2    0    0 -0.38032995998E+03  0.97577107266E+03  0.94289692330E+02  0.10515087307E+04  0.00000000000E+00 0. -1.
<mgrwt>
<rscale>  0 0.23091428E+04</rscale>
<asrwt>0</asrwt>
<pdfrwt beam="1">  1        1 0.25334117E+00 0.23091428E+04</pdfrwt>
<pdfrwt beam="2">  1       -1 0.12454007E+00 0.23091428E+04</pdfrwt>
<totfact> 0.26438104E+00</totfact>
</mgrwt>
</event>
<event>
 6    1  0.1780144E-005  0.1536005E+04  0.7818608E-02  0.8860857E-01
         -1   -1    0    0    0  501 -0.00000000000E+00  0.00000000000E+00  0.32857319161E+03  0.32857319161E+03  0.00000000000E+00 0.  1.
          1   -1    0    0  501    0  0.00000000000E+00 -0.00000000000E+00 -0.17951192706E+04  0.17951192706E+04  0.00000000000E+00 0. -1.
         23    2    1    2    0    0  0.29203811930E+03 -0.11543062426E+03  0.22926894556E+03  0.39904783515E+03  0.89802189265E+02 0.  0.
         13    1    3    3    0    0  0.21948229739E+03 -0.12274548503E+03  0.15745669410E+03  0.29670110125E+03  0.00000000000E+00 0. -1.
        -13    1    3    3    0    0  0.72555821910E+02  0.73148607693E+01  0.71812251456E+02  0.10234673390E+03  0.00000000000E+00 0.  1.
         22    1    1    2    0    0 -0.29203811930E+03  0.11543062426E+03 -0.16958150245E+04  0.17246446270E+04  0.00000000000E+00 0. -1.
<mgrwt>
<rscale>  0 0.15360053E+04</rscale>
<asrwt>0</asrwt>
<pdfrwt beam="1">  1        1 0.27617220E+00 0.15360053E+04</pdfrwt>
<pdfrwt beam="2">  1       -1 0.50549722E-01 0.15360053E+04</pdfrwt>
<totfact> 0.15567837E+01</totfact>
</mgrwt>
</event>
<event>
 6    1  0.1780144E-005  0.1275112E+04  0.7818608E-02  0.9049538E-01
         -2   -1    0    0    0  501 -0.00000000000E+00  0.00000000000E+00  0.20840888842E+03  0.20840888842E+03  0.00000000000E+00 0.  1.
          2   -1    0    0  501    0  0.00000000000E+00 -0.00000000000E+00 -0.19503859240E+04  0.19503859240E+04  0.00000000000E+00 0. -1.
         23    2    1    2    0    0 -0.13458311182E+03 -0.55118470618E+03 -0.39518952572E+03  0.69737297358E+03  0.90758518770E+02 0.  0.
         13    1    3    3    0    0 -0.49852005600E+02 -0.10918925762E+03 -0.49284413863E+02  0.12975542336E+03  0.00000000000E+00 0.  1.
        -13    1    3    3    0    0 -0.84731106223E+02 -0.44199544856E+03 -0.34590511185E+03  0.56761755022E+03  0.00000000000E+00 0. -1.
         22    1    1    2    0    0  0.13458311182E+03  0.55118470618E+03 -0.13467875099E+04  0.14614218389E+04  0.00000000000E+00 0. -1.
<mgrwt>
<rscale>  0 0.12751122E+04</rscale>
<asrwt>0</asrwt>
<pdfrwt beam="1">  1        2 0.30005937E+00 0.12751122E+04</pdfrwt>
<pdfrwt beam="2">  1       -2 0.32062906E-01 0.12751122E+04</pdfrwt>
<totfact> 0.63309923E+01</totfact>
</mgrwt>
</event>
<event>
 6    1  0.1780144E-005  0.2380741E+04  0.7818608E-02  0.8446749E-01
         -1   -1    0    0    0  501 -0.00000000000E+00  0.00000000000E+00  0.12683144246E+04  0.12683144246E+04  0.00000000000E+00 0.  1.
          1   -1    0    0  501    0  0.00000000000E+00 -0.00000000000E+00 -0.11172166406E+04  0.11172166406E+04  0.00000000000E+00 0. -1.
         23    2    1    2    0    0  0.11714459457E+03  0.56915661624E+03 -0.96331173090E+03  0.11287213434E+04  0.91543816550E+02 0.  0.
         13    1    3    3    0    0  0.77502859684E+02  0.37215382728E+03 -0.54295077067E+03  0.66279763411E+03  0.00000000000E+00 0.  1.
        -13    1    3    3    0    0  0.39641734890E+02  0.19700278896E+03 -0.42036096024E+03  0.46592370931E+03  0.00000000000E+00 0. -1.
         22    1    1    2    0    0 -0.11714459457E+03 -0.56915661624E+03  0.11144095149E+04  0.12568097217E+04  0.00000000000E+00 0.  1.
<mgrwt>
<rscale>  0 0.23807410E+04</rscale>
<asrwt>0</asrwt>
<pdfrwt beam="1">  1        1 0.17187948E+00 0.23807410E+04</pdfrwt>
<pdfrwt beam="2">  1       -1 0.19512530E+00 0.23807410E+04</pdfrwt>
<totfact> 0.17971541E+00</totfact>
</mgrwt>
</event>
<event>
 6    1  0.1780144E-005  0.4907537E+04  0.7818608E-02  0.7842931E-01
         -2   -1    0    0    0  501 -0.00000000000E+00  0.00000000000E+00  0.14184742190E+04  0.14184742190E+04  0.00000000000E+00 0.  1.
          2   -1    0    0  501    0  0.00000000000E+00 -0.00000000000E+00 -0.42446880559E+04  0.42446880559E+04  0.00000000000E+00 0. -1.
         23    2    1    2    0    0  0.24187652994E+04 -0.59375581516E+02 -0.94775975458E+03  0.26000689409E+04  0.90326694480E+02 0.  0.
         11    1    3    3    0    0  0.23492795461E+04 -0.62766713127E+02 -0.93529125266E+03  0.25293919770E+04  0.00000000000E+00 0. -1.
        -11    1    3    3    0    0  0.69485753298E+02  0.33911316112E+01 -0.12468501917E+02  0.70676963892E+02  0.00000000000E+00 0.  1.
         22    1    1    2    0    0 -0.24187652994E+04  0.59375581516E+02 -0.18784540823E+04  0.30630933340E+04  0.00000000000E+00 0. -1.
<mgrwt>
<rscale>  0 0.49075373E+04</rscale>
<asrwt>0</asrwt>
<pdfrwt beam="1">  1        2 0.65302892E+00 0.49075373E+04</pdfrwt>
<pdfrwt beam="2">  1       -2 0.21822681E+00 0.49075373E+04</pdfrwt>
<totfact> 0.15702268E-02</totfact>
</mgrwt>
</event>
<event>
 6    1  0.1780144E-005  0.3541467E+03  0.7818608E-02  0.1060926E+00
         -2   -1    0    0    0  501 -0.00000000000E+00  0.00000000000E+00  0.88608682363E+02  0.88608682363E+02  0.00000000000E+00 0. -1.
          2   -1    0    0  501    0  0.00000000000E+00 -0.00000000000E+00 -0.35385899606E+03  0.35385899606E+03  0.00000000000E+00 0.  1.
         23    2    1    2    0    0 -0.94411558946E+02  0.38582183508E+02  0.21178111864E+02  0.13842266479E+03  0.91160267433E+02 0.  0.
         13    1    3    3    0    0 -0.77400898002E+02 -0.65873148830E+01 -0.13691760375E+02  0.78878108694E+02  0.00000000000E+00 0.  1.
        -13    1    3    3    0    0 -0.17010660944E+02  0.45169498391E+02  0.34869872239E+02  0.59544556096E+02  0.00000000000E+00 0. -1.
         22    1    1    2    0    0  0.94411558946E+02 -0.38582183508E+02 -0.28642842556E+03  0.30404501364E+03  0.00000000000E+00 0.  1.
<mgrwt>
<rscale>  0 0.35414675E+03</rscale>
<asrwt>0</asrwt>
<pdfrwt beam="1">  1        2 0.54439845E-01 0.35414675E+03</pdfrwt>
<pdfrwt beam="2">  1       -2 0.13632105E-01 0.35414675E+03</pdfrwt>
<totfact> 0.36770416E+03</totfact>
</mgrwt>
</event>
<event>
 6    1  0.1780144E-005  0.1377076E+04  0.7818608E-02  0.8970581E-01
         -1   -1    0    0    0  501 -0.00000000000E+00  0.00000000000E+00  0.29106254076E+03  0.29106254076E+03  0.00000000000E+00 0.  1.
          1   -1    0    0  501    0  0.00000000000E+00 -0.00000000000E+00 -0.16288072229E+04  0.16288072229E+04  0.00000000000E+00 0. -1.
         23    2    1    2    0    0  0.44330569672E+03  0.23695015306E+03 -0.22400584935E+02  0.51175208043E+03  0.93397483074E+02 0.  0.
         13    1    3    3    0    0  0.47415786510E+02  0.62581651320E+02 -0.80186049667E+01  0.78924127603E+02  0.00000000000E+00 0. -1.
        -13    1    3    3    0    0  0.39588991021E+03  0.17436850174E+03 -0.14381979969E+02  0.43282795283E+03  0.00000000000E+00 0.  1.
         22    1    1    2    0    0 -0.44330569672E+03 -0.23695015306E+03 -0.13153440972E+04  0.14081176832E+04  0.00000000000E+00 0. -1.
<mgrwt>
<rscale>  0 0.13770763E+04</rscale>
<asrwt>0</asrwt>
<pdfrwt beam="1">  1        1 0.25058573E+00 0.13770763E+04</pdfrwt>
<pdfrwt beam="2">  1       -1 0.44778852E-01 0.13770763E+04</pdfrwt>
<totfact> 0.25742647E+01</totfact>
</mgrwt>
</event>
<event>
 6    1  0.1780144E-005  0.5601891E+03  0.7818608E-02  0.9991627E-01
         -2   -1    0    0    0  501 -0.00000000000E+00  0.00000000000E+00  0.39326852758E+02  0.39326852758E+02  0.00000000000E+00 0. -1.
          2   -1    0    0  501    0  0.00000000000E+00 -0.00000000000E+00 -0.19948955891E+04  0.19948955891E+04  0.00000000000E+00 0.  1.
         23    2    1    2    0    0  0.25586973003E+03 -0.10108532807E+03 -0.10331560470E+04  0.10716567393E+04  0.73138137202E+02 0.  0.
         13    1    3    3    0    0  0.18668789388E+03 -0.42136841890E+02 -0.63251020720E+03  0.66083057237E+03  0.00000000000E+00 0. -1.
        -13    1    3    3    0    0  0.69181836149E+02 -0.58948486183E+02 -0.40064583982E+03  0.41082616694E+03  0.00000000000E+00 0.  1.
         22    1    1    2    0    0 -0.25586973003E+03  0.10108532807E+03 -0.92241268928E+03  0.96256570250E+03  0.00000000000E+00 0.  1.
<mgrwt>
<rscale>  0 0.56018913E+03</rscale>
<asrwt>0</asrwt>
<pdfrwt beam="1">  1        2 0.30690699E+00 0.56018913E+03</pdfrwt>
<pdfrwt beam="2">  1       -2 0.60502856E-02 0.56018913E+03</pdfrwt>
<totfact> 0.10664432E+03</totfact>
</mgrwt>
</event>
<event>
 6    1  0.1780144E-005  0.2626251E+04  0.7818608E-02  0.8359339E-01
          2   -1    0    0  501    0  0.00000000000E+00  0.00000000000E+00  0.10131756817E+04  0.10131756817E+04  0.00000000000E+00 0. -1.
         -2   -1    0    0    0  501 -0.00000000000E+00 -0.00000000000E+00 -0.17018755203E+04  0.17018755203E+04  0.00000000000E+00 0.  1.
         23    2    1    2    0    0 -0.57251718677E+03  0.11787709415E+04 -0.28448485160E+03  0.13436772130E+04  0.85205400337E+02 0.  0.
         11    1    3    3    0    0 -0.49081435306E+03  0.10034971266E+04 -0.21126439587E+03  0.11368983496E+04  0.00000000000E+00 0. -1.
        -11    1    3    3    0    0 -0.81702833712E+02  0.17527381492E+03 -0.73220455723E+02  0.20677886345E+03  0.00000000000E+00 0.  1.
         22    1    1    2    0    0  0.57251718677E+03 -0.11787709415E+04 -0.40421498703E+03  0.13713739889E+04  0.00000000000E+00 0.  1.
<mgrwt>
<rscale>  0 0.26262512E+04</rscale>
<asrwt>0</asrwt>
<pdfrwt beam="1">  1        2 0.15587318E+00 0.26262512E+04</pdfrwt>
<pdfrwt beam="2">  1       -2 0.26182700E+00 0.26262512E+04</pdfrwt>
<totfact> 0.11855117E+00</totfact>
</mgrwt>
</event>
<event>
 6    1  0.1780144E-005  0.1838177E+04  0.7818608E-02  0.8686257E-01
         -2   -1    0    0    0  501 -0.00000000000E+00  0.00000000000E+00  0.12932096745E+04  0.12932096745E+04  0.00000000000E+00 0.  1.
          2   -1    0    0  501    0  0.00000000000E+00 -0.00000000000E+00 -0.65319912111E+03  0.65319912111E+03  0.00000000000E+00 0. -1.
         23    2    1    2    0    0  0.21559965061E+03 -0.76125049582E+03  0.81171932078E+03  0.11367981314E+04  0.86233457433E+02 0.  0.
         13    1    3    3    0    0  0.88246240506E+02 -0.22724471010E+03  0.29725451275E+03  0.38443179184E+03  0.00000000000E+00 0.  1.
        -13    1    3    3    0    0  0.12735341011E+03 -0.53400578572E+03  0.51446480804E+03  0.75236633960E+03  0.00000000000E+00 0. -1.
         22    1    1    2    0    0 -0.21559965061E+03  0.76125049582E+03 -0.17170876741E+03  0.80961066417E+03  0.00000000000E+00 0. -1.
<mgrwt>
<rscale>  0 0.18381767E+04</rscale>
<asrwt>0</asrwt>
<pdfrwt beam="1">  1        2 0.10049217E+00 0.18381767E+04</pdfrwt>
<pdfrwt beam="2">  1       -2 0.19895533E+00 0.18381767E+04</pdfrwt>
<totfact> 0.56790528E+00</totfact>
</mgrwt>
</event>
<event>
 6    1  0.1780144E-005  0.3202430E+04  0.7818608E-02  0.8188176E-01
          1   -1    0    0  501    0  0.00000000000E+00  0.00000000000E+00  0.23961692259E+04  0.23961692259E+04  0.00000000000E+00 0. -1.
         -1   -1    0    0    0  501 -0.00000000000E+00 -0.00000000000E+00 -0.10699952549E+04  0.10699952549E+04  0.00000000000E+00 0.  1.
         23    2    1    2    0    0 -0.14930667295E+04  0.77065858190E+02  0.12802751016E+04  0.19704057731E+04  0.90593430904E+02 0.  0.
         13    1    3    3    0    0 -0.73639213000E+03  0.70700746495E+02  0.67421259638E+03  0.10009168746E+04  0.00000000000E+00 0. -1.
        -13    1    3    3    0    0 -0.75667459952E+03  0.63651116947E+01  0.60606250524E+03  0.96948889858E+03  0.00000000000E+00 0.  1.
         22    1    1    2    0    0  0.14930667295E+04 -0.77065858190E+02  0.45898869428E+02  0.14957587076E+04  0.00000000000E+00 0.  1.
<mgrwt>
<rscale>  0 0.32024301E+04</rscale>
<asrwt>0</asrwt>
<pdfrwt beam="1">  1        1 0.36864142E+00 0.32024301E+04</pdfrwt>
<pdfrwt beam="2">  1       -1 0.16461465E+00 0.32024301E+04</pdfrwt>
<totfact> 0.36060385E-01</totfact>
</mgrwt>
</event>
<event>
 6    1  0.1780144E-005  0.1832911E+04  0.7818608E-02  0.8688991E-01
         -1   -1    0    0    0  501 -0.00000000000E+00  0.00000000000E+00  0.69660341039E+03  0.69660341039E+03  0.00000000000E+00 0.  1.
          1   -1    0    0  501    0  0.00000000000E+00 -0.00000000000E+00 -0.12056937844E+04  0.12056937844E+04  0.00000000000E+00 0. -1.
         23    2    1    2    0    0 -0.77645730650E+03 -0.12826907206E+02 -0.75710307602E+03  0.10870912216E+04  0.74241349325E+02 0.  0.
         13    1    3    3    0    0 -0.34559453486E+03 -0.37461611848E+02 -0.36407991103E+03  0.50338170060E+03  0.00000000000E+00 0.  1.
        -13    1    3    3    0    0 -0.43086277165E+03  0.24634704642E+02 -0.39302316499E+03  0.58370952098E+03  0.00000000000E+00 0. -1.
         22    1    1    2    0    0  0.77645730650E+03  0.12826907206E+02  0.24801270202E+03  0.81520597319E+03  0.00000000000E+00 0.  1.
<mgrwt>
<rscale>  0 0.18329107E+04</rscale>
<asrwt>0</asrwt>
<pdfrwt beam="1">  1        1 0.18549135E+00 0.18329107E+04</pdfrwt>
<pdfrwt beam="2">  1       -1 0.10716976E+00 0.18329107E+04</pdfrwt>
<totfact> 0.80830293E+00</totfact>
</mgrwt>
</event>
<event>
 6    1  0.1780144E-005  0.1992011E+04  0.7818608E-02  0.8610365E-01
          1   -1    0    0  501    0  0.00000000000E+00  0.00000000000E+00  0.26178635144E+04  0.26178635144E+04  0.00000000000E+00 0. -1.
         -1   -1    0    0    0  501 -0.00000000000E+00 -0.00000000000E+00 -0.37894533857E+03  0.37894533857E+03  0.00000000000E+00 0.  1.
         23    2    1    2    0    0 -0.34399043379E+03  0.89114584626E+03  0.70849261605E+03  0.11927376981E+04  0.90504649581E+02 0.  0.
         13    1    3    3    0    0 -0.93548235908E+02  0.15403543101E+03  0.15258364729E+03  0.23613546084E+03  0.00000000000E+00 0.  1.
        -13    1    3    3    0    0 -0.25044219788E+03  0.73711041525E+03  0.55590896876E+03  0.95660223724E+03  0.00000000000E+00 0. -1.
         22    1    1    2    0    0  0.34399043379E+03 -0.89114584626E+03  0.15304255598E+04  0.18040711549E+04  0.00000000000E+00 0. -1.
<mgrwt>
<rscale>  0 0.19920112E+04</rscale>
<asrwt>0</asrwt>
<pdfrwt beam="1">  1        1 0.40274822E+00 0.19920112E+04</pdfrwt>
<pdfrwt beam="2">  1       -1 0.58299284E-01 0.19920112E+04</pdfrwt>
<totfact> 0.31048280E+00</totfact>
</mgrwt>
</event>
<event>
 6    1  0.1780144E-005  0.2456124E+04  0.7818608E-02  0.8418786E-01
          2   -1    0    0  501    0  0.00000000000E+00  0.00000000000E+00  0.23979494220E+04  0.23979494220E+04  0.00000000000E+00 0. -1.
         -2   -1    0    0    0  501 -0.00000000000E+00 -0.00000000000E+00 -0.62892722278E+03  0.62892722278E+03  0.00000000000E+00 0.  1.
         23    2    1    2    0    0 -0.68856864150E+03  0.44398002375E+03  0.20101928698E+04  0.21728225904E+04  0.95066293191E+02 0.  0.
         13    1    3    3    0    0 -0.51076677986E+03  0.37360697775E+03  0.15036895523E+04  0.16314248824E+04  0.00000000000E+00 0. -1.
        -13    1    3    3    0    0 -0.17780186163E+03  0.70373045994E+02  0.50650331751E+03  0.54139770802E+03  0.00000000000E+00 0.  1.
         22    1    1    2    0    0  0.68856864150E+03 -0.44398002375E+03 -0.24117067052E+03  0.85405405441E+03  0.00000000000E+00 0.  1.
<mgrwt>
<rscale>  0 0.24561235E+04</rscale>
<asrwt>0</asrwt>
<pdfrwt beam="1">  1        2 0.36891529E+00 0.24561235E+04</pdfrwt>
<pdfrwt beam="2">  1       -2 0.96758036E-01 0.24561235E+04</pdfrwt>
<totfact> 0.31850821E+00</totfact>
</mgrwt>
</event>
<event>
 6    1  0.1780144E-005  0.5032836E+03  0.7818608E-02  0.1012925E+00
         -2   -1    0    0    0  501 -0.00000000000E+00  0.00000000000E+00  0.55732521571E+02  0.55732521571E+02  0.00000000000E+00 0.  1.
          2   -1    0    0  501    0  0.00000000000E+00 -0.00000000000E+00 -0.11362053115E+04  0.11362053115E+04  0.00000000000E+00 0. -1.
         23    2    1    2    0    0  0.17747188082E+03  0.16478480235E+03 -0.49802628800E+03  0.56114925742E+03  0.90598046290E+02 0.  0.
         13    1    3    3    0    0  0.11405064050E+03  0.64927108346E+02 -0.18760146077E+03  0.22894843541E+03  0.00000000000E+00 0.  1.
        -13    1    3    3    0    0  0.63421240320E+02  0.99857694000E+02 -0.31042482724E+03  0.33220082200E+03  0.00000000000E+00 0. -1.
         22    1    1    2    0    0 -0.17747188082E+03 -0.16478480235E+03 -0.58244650189E+03  0.63078857561E+03  0.00000000000E+00 0. -1.
<mgrwt>
<rscale>  0 0.50328357E+03</rscale>
<asrwt>0</asrwt>
<pdfrwt beam="1">  1        2 0.17480082E+00 0.50328357E+03</pdfrwt>
<pdfrwt beam="2">  1       -2 0.85742340E-02 0.50328357E+03</pdfrwt>
<totfact> 0.18396604E+03</totfact>
</mgrwt>
</event>
<event>
 6    1  0.2088107E-005  0.2725192E+04  0.7818608E-02  0.8326877E-01
          1   -1    0    0  501    0  0.00000000000E+00  0.00000000000E+00  0.19468770043E+04  0.19468770043E+04  0.00000000000E+00 0. -1.
         -1   -1    0    0    0  501 -0.00000000000E+00 -0.00000000000E+00 -0.95366497002E+03  0.95366497002E+03  0.00000000000E+00 0.  1.
         23    2    1    2    0    0  0.15049737493E+03  0.12293332098E+04  0.10979699472E+04  0.16576084199E+04  0.90653561144E+02 0.  0.
         13    1    3    3    0    0  0.60669429319E+02  0.68115899633E+03  0.55351234857E+03  0.87979217884E+03  0.00000000000E+00 0. -1.
        -13    1    3    3    0    0  0.89827945606E+02  0.54817421346E+03  0.54445759860E+03  0.77781624102E+03  0.00000000000E+00 0.  1.
         22    1    1    2    0    0 -0.15049737493E+03 -0.12293332098E+04 -0.10475791287E+03  0.12429335545E+04  0.00000000000E+00 0.  1.
<mgrwt>
<rscale>  0 0.27251924E+04</rscale>
<asrwt>0</asrwt>
<pdfrwt beam="1">  1        1 0.29951954E+00 0.27251924E+04</pdfrwt>
<pdfrwt beam="2">  1       -1 0.14671769E+00 0.27251924E+04</pdfrwt>
<totfact> 0.10444971E+00</totfact>
</mgrwt>
</event>
<event>
 6    1  0.1780144E-005  0.2850973E+04  0.7818608E-02  0.8287616E-01
         -2   -1    0    0    0  501 -0.00000000000E+00  0.00000000000E+00  0.15363446896E+04  0.15363446896E+04  0.00000000000E+00 0. -1.
          2   -1    0    0  501    0  0.00000000000E+00 -0.00000000000E+00 -0.13226276135E+04  0.13226276135E+04  0.00000000000E+00 0.  1.
         23    2    1    2    0    0 -0.60947865160E+03  0.83101559927E+03 -0.87852410162E+03  0.13572925959E+04  0.91582971582E+02 0.  0.
         11    1    3    3    0    0 -0.14392804070E+03  0.24936546219E+03 -0.28018595208E+03  0.40174940246E+03  0.00000000000E+00 0. -1.
        -11    1    3    3    0    0 -0.46555061090E+03  0.58165013708E+03 -0.59833814954E+03  0.95554319341E+03  0.00000000000E+00 0.  1.
         22    1    1    2    0    0  0.60947865160E+03 -0.83101559927E+03  0.10922411777E+04  0.15016797073E+04  0.00000000000E+00 0. -1.
<mgrwt>
<rscale>  0 0.28509731E+04</rscale>
<asrwt>0</asrwt>
<pdfrwt beam="1">  1        2 0.20348117E+00 0.28509731E+04</pdfrwt>
<pdfrwt beam="2">  1       -2 0.23636072E+00 0.28509731E+04</pdfrwt>
<totfact> 0.10843923E+00</totfact>
</mgrwt>
</event>
<event>
 6    1  0.1780144E-005  0.8028496E+03  0.7818608E-02  0.9555902E-01
         -1   -1    0    0    0  501 -0.00000000000E+00  0.00000000000E+00  0.35977741480E+03  0.35977741480E+03  0.00000000000E+00 0.  1.
          1   -1    0    0  501    0  0.00000000000E+00 -0.00000000000E+00 -0.44789325121E+03  0.44789325121E+03  0.00000000000E+00 0. -1.
         23    2    1    2    0    0 -0.14006273469E+01 -0.28795303507E+03  0.22307997493E+03  0.38368747629E+03  0.12055078634E+03 0.  0.
         13    1    3    3    0    0 -0.58851266490E+02 -0.18061487219E+03  0.14609298298E+03  0.23964215677E+03  0.00000000000E+00 0. -1.
        -13    1    3    3    0    0  0.57450639144E+02 -0.10733816288E+03  0.76986991949E+02  0.14404531953E+03  0.00000000000E+00 0.  1.
         22    1    1    2    0    0  0.14006273469E+01  0.28795303507E+03 -0.31119581135E+03  0.42398318971E+03  0.00000000000E+00 0. -1.
<mgrwt>
<rscale>  0 0.80284961E+03</rscale>
<asrwt>0</asrwt>
<pdfrwt beam="1">  1        1 0.68906654E-01 0.80284961E+03</pdfrwt>
<pdfrwt beam="2">  1       -1 0.55350372E-01 0.80284961E+03</pdfrwt>
<totfact> 0.17205924E+02</totfact>
</mgrwt>
</event>
<event>
 6    1  0.1780144E-005  0.1710022E+04  0.7818608E-02  0.8755669E-01
         -1   -1    0    0    0  501 -0.00000000000E+00  0.00000000000E+00  0.10726918825E+04  0.10726918825E+04  0.00000000000E+00 0.  1.
          1   -1    0    0  501    0  0.00000000000E+00 -0.00000000000E+00 -0.68150393728E+03  0.68150393728E+03  0.00000000000E+00 0. -1.
         23    2    1    2    0    0 -0.40694305458E+03 -0.46231612194E+03 -0.40861145124E+03  0.74473164464E+03  0.91230796097E+02 0.  0.
         11    1    3    3    0    0 -0.22666044858E+03 -0.32290410370E+03 -0.26832269575E+03  0.47711538247E+03  0.00000000000E+00 0.  1.
        -11    1    3    3    0    0 -0.18028260601E+03 -0.13941201825E+03 -0.14028875550E+03  0.26761626217E+03  0.00000000000E+00 0. -1.
         22    1    1    2    0    0  0.40694305458E+03  0.46231612194E+03  0.79979939642E+03  0.10094641751E+04  0.00000000000E+00 0.  1.
<mgrwt>
<rscale>  0 0.17100219E+04</rscale>
<asrwt>0</asrwt>
<pdfrwt beam="1">  1        1 0.10484676E+00 0.17100219E+04</pdfrwt>
<pdfrwt beam="2">  1       -1 0.16502952E+00 0.17100219E+04</pdfrwt>
<totfact> 0.72257391E+00</totfact>
</mgrwt>
</event>
<event>
 6    1  0.1780144E-005  0.3603393E+04  0.7818608E-02  0.8089715E-01
         -2   -1    0    0    0  501 -0.00000000000E+00  0.00000000000E+00  0.14125473939E+04  0.14125473939E+04  0.00000000000E+00 0.  1.
          2   -1    0    0  501    0  0.00000000000E+00 -0.00000000000E+00 -0.22980542363E+04  0.22980542363E+04  0.00000000000E+00 0. -1.
         23    2    1    2    0    0 -0.45087557592E+03  0.16513008118E+04  0.13366054018E+03  0.17184205868E+04  0.70859136519E+02 0.  0.
         13    1    3    3    0    0 -0.13998647112E+03  0.55375305266E+03  0.12918481915E+02  0.57131912501E+03  0.00000000000E+00 0.  1.
        -13    1    3    3    0    0 -0.31088910480E+03  0.10975477591E+04  0.12074205827E+03  0.11471014618E+04  0.00000000000E+00 0. -1.
         22    1    1    2    0    0  0.45087557592E+03 -0.16513008118E+04 -0.10191673826E+04  0.19921810434E+04  0.00000000000E+00 0. -1.
<mgrwt>
<rscale>  0 0.36033931E+04</rscale>
<asrwt>0</asrwt>
<pdfrwt beam="1">  1        2 0.35354681E+00 0.36033931E+04</pdfrwt>
<pdfrwt beam="2">  1       -2 0.21731498E+00 0.36033931E+04</pdfrwt>
<totfact> 0.38069854E-01</totfact>
</mgrwt>
</event>
<event>
 6    1  0.1780144E-005  0.2285107E+04  0.7818608E-02  0.8483816E-01
         -1   -1    0    0    0  501 -0.00000000000E+00  0.00000000000E+00  0.35571479062E+03  0.35571479062E+03  0.00000000000E+00 0.  1.
          1   -1    0    0  501    0  0.00000000000E+00 -0.00000000000E+00 -0.36698746358E+04  0.36698746358E+04  0.00000000000E+00 0. -1.
         23    2    1    2    0    0 -0.69591260484E+01 -0.89198935964E+03 -0.40736626289E+03  0.98500685440E+03  0.92724235912E+02 0.  0.
         13    1    3    3    0    0  0.27316193070E+02 -0.62888963580E+03 -0.25603288173E+03  0.67955955217E+03  0.00000000000E+00 0. -1.
        -13    1    3    3    0    0 -0.34275319118E+02 -0.26309972385E+03 -0.15133338115E+03  0.30544730223E+03  0.00000000000E+00 0.  1.
         22    1    1    2    0    0  0.69591260484E+01  0.89198935964E+03 -0.29067935823E+04  0.30405825720E+04  0.00000000000E+00 0. -1.
<mgrwt>
<rscale>  0 0.22851072E+04</rscale>
<asrwt>0</asrwt>
<pdfrwt beam="1">  1        1 0.56459609E+00 0.22851072E+04</pdfrwt>
<pdfrwt beam="2">  1       -1 0.54725353E-01 0.22851072E+04</pdfrwt>
<totfact> 0.55917102E-01</totfact>
</mgrwt>
</event>
<event>
 6    1  0.1780144E-005  0.3524050E+04  0.7818608E-02  0.8108114E-01
          1   -1    0    0  501    0  0.00000000000E+00  0.00000000000E+00  0.87958757014E+03  0.87958757014E+03  0.00000000000E+00 0. -1.
         -1   -1    0    0    0  501 -0.00000000000E+00 -0.00000000000E+00 -0.35297594375E+04  0.35297594375E+04  0.00000000000E+00 0.  1.
         23    2    1    2    0    0  0.20357749157E+03 -0.26438022975E+02 -0.35141366019E+04  0.35213279613E+04  0.91933619405E+02 0.  0.
         11    1    3    3    0    0  0.11629204496E+03 -0.58905276538E+02 -0.18495810422E+04  0.18541692757E+04  0.00000000000E+00 0. -1.
        -11    1    3    3    0    0  0.87285446610E+02  0.32467253563E+02 -0.16645555597E+04  0.16671586856E+04  0.00000000000E+00 0.  1.
         22    1    1    2    0    0 -0.20357749157E+03  0.26438022975E+02  0.86396473452E+03  0.88801904632E+03  0.00000000000E+00 0. -1.
<mgrwt>
<rscale>  0 0.35240502E+04</rscale>
<asrwt>0</asrwt>
<pdfrwt beam="1">  1        1 0.13532117E+00 0.35240502E+04</pdfrwt>
<pdfrwt beam="2">  1       -1 0.54303990E+00 0.35240502E+04</pdfrwt>
<totfact> 0.12590425E-02</totfact>
</mgrwt>
</event>
<event>
 6    1  0.1780144E-005  0.3697114E+04  0.7818608E-02  0.8068602E-01
         -2   -1    0    0    0  501 -0.00000000000E+00  0.00000000000E+00  0.17815400609E+04  0.17815400609E+04  0.00000000000E+00 0.  1.
          2   -1    0    0  501    0  0.00000000000E+00 -0.00000000000E+00 -0.19180945943E+04  0.19180945943E+04  0.00000000000E+00 0. -1.
         23    2    1    2    0    0  0.14235494076E+04 -0.82034100282E+03 -0.91361404353E+03  0.18821435935E+04  0.91222854624E+02 0.  0.
         11    1    3    3    0    0  0.45778457038E+03 -0.22973752377E+03 -0.25030100462E+03  0.57008476179E+03  0.00000000000E+00 0.  1.
        -11    1    3    3    0    0  0.96576483723E+03 -0.59060347905E+03 -0.66331303890E+03  0.13120588317E+04  0.00000000000E+00 0. -1.
         22    1    1    2    0    0 -0.14235494076E+04  0.82034100282E+03  0.77705951014E+03  0.18174910616E+04  0.00000000000E+00 0.  1.
<mgrwt>
<rscale>  0 0.36971137E+04</rscale>
<asrwt>0</asrwt>
<pdfrwt beam="1">  1        2 0.29509147E+00 0.36971137E+04</pdfrwt>
<pdfrwt beam="2">  1       -2 0.27408309E+00 0.36971137E+04</pdfrwt>
<totfact> 0.27456922E-01</totfact>
</mgrwt>
</event>
<event>
 6    1  0.1780144E-005  0.2355100E+04  0.7818608E-02  0.8456507E-01
          1   -1    0    0  501    0  0.00000000000E+00  0.00000000000E+00  0.14496521408E+04  0.14496521408E+04  0.00000000000E+00 0. -1.
         -1   -1    0    0    0  501 -0.00000000000E+00 -0.00000000000E+00 -0.95652221481E+03  0.95652221481E+03  0.00000000000E+00 0.  1.
         23    2    1    2    0    0 -0.74735904353E+03  0.88780145666E+03  0.53355118315E+02  0.11651510489E+04  0.89404875126E+02 0.  0.
         13    1    3    3    0    0 -0.90632371724E+02  0.14703070257E+03 -0.11202306937E+02  0.17308306093E+03  0.00000000000E+00 0.  1.
        -13    1    3    3    0    0 -0.65672667181E+03  0.74077075410E+03  0.64557425252E+02  0.99206798797E+03  0.00000000000E+00 0. -1.
         22    1    1    2    0    0  0.74735904353E+03 -0.88780145666E+03  0.43977480772E+03  0.12410233068E+04  0.00000000000E+00 0. -1.
<mgrwt>
<rscale>  0 0.23551004E+04</rscale>
<asrwt>0</asrwt>
<pdfrwt beam="1">  1        1 0.22302341E+00 0.23551004E+04</pdfrwt>
<pdfrwt beam="2">  1       -1 0.14715726E+00 0.23551004E+04</pdfrwt>
<totfact> 0.23433897E+00</totfact>
</mgrwt>
</event>
<event>
 6    1  0.1780144E-005  0.1755782E+04  0.7818608E-02  0.8730174E-01
         -1   -1    0    0    0  501 -0.00000000000E+00  0.00000000000E+00  0.26779372929E+03  0.26779372929E+03  0.00000000000E+00 0.  1.
          1   -1    0    0  501    0  0.00000000000E+00 -0.00000000000E+00 -0.28779326262E+04  0.28779326262E+04  0.00000000000E+00 0. -1.
         23    2    1    2    0    0  0.45623437614E+03 -0.20387397459E+03 -0.25965908252E+04  0.26458284122E+04  0.91704251954E+02 0.  0.
         11    1    3    3    0    0  0.14503480369E+03 -0.25658910838E+02 -0.87125805401E+03  0.88361986774E+03  0.00000000000E+00 0. -1.
        -11    1    3    3    0    0  0.31119957245E+03 -0.17821506376E+03 -0.17253327712E+04  0.17622085444E+04  0.00000000000E+00 0.  1.
         22    1    1    2    0    0 -0.45623437614E+03  0.20387397459E+03 -0.13548071743E+02  0.49989794332E+03  0.00000000000E+00 0.  1.
<mgrwt>
<rscale>  0 0.17557817E+04</rscale>
<asrwt>0</asrwt>
<pdfrwt beam="1">  1        1 0.44275886E+00 0.17557817E+04</pdfrwt>
<pdfrwt beam="2">  1       -1 0.41199036E-01 0.17557817E+04</pdfrwt>
<totfact> 0.40158077E+00</totfact>
</mgrwt>
</event>
<event>
 6    1  0.1780144E-005  0.3386753E+04  0.7818608E-02  0.8141165E-01
         -3   -1    0    0    0  501 -0.00000000000E+00  0.00000000000E+00  0.25260017854E+04  0.25260017854E+04  0.00000000000E+00 0.  1.
          3   -1    0    0  501    0  0.00000000000E+00 -0.00000000000E+00 -0.11352028693E+04  0.11352028693E+04  0.00000000000E+00 0. -1.
         23    2    1    2    0    0 -0.43007580437E+03  0.30738957177E+03 -0.10419003355E+04  0.11717309764E+04  0.89127020514E+02 0.  0.
         13    1    3    3    0    0 -0.31346835791E+03  0.26503827891E+03 -0.83597424750E+03  0.93132198685E+03  0.00000000000E+00 0. -1.
        -13    1    3    3    0    0 -0.11660744646E+03  0.42351292861E+02 -0.20592608797E+03  0.24040898960E+03  0.00000000000E+00 0.  1.
         22    1    1    2    0    0  0.43007580437E+03 -0.30738957177E+03  0.24326992515E+04  0.24894736782E+04  0.00000000000E+00 0.  1.
<mgrwt>
<rscale>  0 0.33867533E+04</rscale>
<asrwt>0</asrwt>
<pdfrwt beam="1">  1        3 0.17464660E+00 0.33867533E+04</pdfrwt>
<pdfrwt beam="2">  1       -3 0.38861566E+00 0.33867533E+04</pdfrwt>
<totfact> 0.56590123E-03</totfact>
</mgrwt>
</event>
<event>
 6    1  0.1780144E-005  0.1202205E+04  0.7818608E-02  0.9110928E-01
         -2   -1    0    0    0  501 -0.00000000000E+00  0.00000000000E+00  0.22449402135E+03  0.22449402135E+03  0.00000000000E+00 0.  1.
          2   -1    0    0  501    0  0.00000000000E+00 -0.00000000000E+00 -0.16095061660E+04  0.16095061660E+04  0.00000000000E+00 0. -1.
         23    2    1    2    0    0 -0.14823559332E+02 -0.56036262369E+03 -0.38140215281E+03  0.68445287486E+03  0.93713007596E+02 0.  0.
         13    1    3    3    0    0  0.12231391817E+02 -0.44711062922E+03 -0.26539484536E+03  0.52008840176E+03  0.00000000000E+00 0.  1.
        -13    1    3    3    0    0 -0.27054951149E+02 -0.11325199447E+03 -0.11600730745E+03  0.16436447310E+03  0.00000000000E+00 0. -1.
         22    1    1    2    0    0  0.14823559332E+02  0.56036262369E+03 -0.10036099918E+04  0.11495473125E+04  0.00000000000E+00 0. -1.
<mgrwt>
<rscale>  0 0.12022055E+04</rscale>
<asrwt>0</asrwt>
<pdfrwt beam="1">  1        2 0.24761634E+00 0.12022055E+04</pdfrwt>
<pdfrwt beam="2">  1       -2 0.34537541E-01 0.12022055E+04</pdfrwt>
<totfact> 0.85374307E+01</totfact>
</mgrwt>
</event>
<event>
 6    1  0.1780144E-005  0.3459775E+04  0.7818608E-02  0.8123389E-01
         -1   -1    0    0    0  501 -0.00000000000E+00  0.00000000000E+00  0.15169176366E+04  0.15169176366E+04  0.00000000000E+00 0.  1.
          1   -1    0    0  501    0  0.00000000000E+00 -0.00000000000E+00 -0.19727577199E+04  0.19727577199E+04  0.00000000000E+00 0. -1.
         23    2    1    2    0    0  0.66232162849E+03  0.48878104574E+02 -0.18378914065E+04  0.19563375371E+04  0.91393262134E+02 0.  0.
         11    1    3    3    0    0  0.46404950845E+03 -0.19867080319E+01 -0.13365716608E+04  0.14148391067E+04  0.00000000000E+00 0.  1.
        -11    1    3    3    0    0  0.19827212004E+03  0.50864812606E+02 -0.50131974564E+03  0.54149843039E+03  0.00000000000E+00 0. -1.
         22    1    1    2    0    0 -0.66232162849E+03 -0.48878104574E+02  0.13820513232E+04  0.15333378194E+04  0.00000000000E+00 0.  1.
<mgrwt>
<rscale>  0 0.34597751E+04</rscale>
<asrwt>0</asrwt>
<pdfrwt beam="1">  1        1 0.30350119E+00 0.34597751E+04</pdfrwt>
<pdfrwt beam="2">  1       -1 0.23337194E+00 0.34597751E+04</pdfrwt>
<totfact> 0.22824493E-01</totfact>
</mgrwt>
</event>
<event>
 6    1  0.1780144E-005  0.5184117E+04  0.7818608E-02  0.7800716E-01
         -2   -1    0    0    0  501 -0.00000000000E+00  0.00000000000E+00  0.47034396287E+04  0.47034396287E+04  0.00000000000E+00 0.  1.
          2   -1    0    0  501    0  0.00000000000E+00 -0.00000000000E+00 -0.14284795955E+04  0.14284795955E+04  0.00000000000E+00 0. -1.
         23    2    1    2    0    0  0.23078146968E+04 -0.86510824787E+03  0.25843620672E+04  0.35723593976E+04  0.91670145809E+02 0.  0.
         13    1    3    3    0    0  0.19961628338E+04 -0.71573715920E+03  0.22352666280E+04  0.30811300911E+04  0.00000000000E+00 0. -1.
        -13    1    3    3    0    0  0.31165186305E+03 -0.14937108867E+03  0.34909543925E+03  0.49122930652E+03  0.00000000000E+00 0.  1.
         22    1    1    2    0    0 -0.23078146968E+04  0.86510824787E+03  0.69059796603E+03  0.25595598266E+04  0.00000000000E+00 0. -1.
<mgrwt>
<rscale>  0 0.51841171E+04</rscale>
<asrwt>0</asrwt>
<pdfrwt beam="1">  1        2 0.21976609E+00 0.51841171E+04</pdfrwt>
<pdfrwt beam="2">  1       -2 0.72360609E+00 0.51841171E+04</pdfrwt>
<totfact> 0.18719361E-03</totfact>
</mgrwt>
</event>
<event>
 6    1  0.1780144E-005  0.1286106E+04  0.7818608E-02  0.9040656E-01
          1   -1    0    0  501    0  0.00000000000E+00  0.00000000000E+00  0.38521204478E+03  0.38521204478E+03  0.00000000000E+00 0. -1.
         -1   -1    0    0    0  501 -0.00000000000E+00 -0.00000000000E+00 -0.10734800406E+04  0.10734800406E+04  0.00000000000E+00 0.  1.
         23    2    1    2    0    0 -0.31262826874E+03  0.39263906257E+03 -0.79592430510E+03  0.94537761176E+03  0.91331601805E+02 0.  0.
         11    1    3    3    0    0 -0.79366109080E+02  0.78105336556E+02 -0.24854915421E+03  0.27235290512E+03  0.00000000000E+00 0.  1.
        -11    1    3    3    0    0 -0.23326215966E+03  0.31453372601E+03 -0.54737515089E+03  0.67302470663E+03  0.00000000000E+00 0. -1.
         22    1    1    2    0    0  0.31262826874E+03 -0.39263906257E+03  0.10765630931E+03  0.51331447359E+03  0.00000000000E+00 0. -1.
<mgrwt>
<rscale>  0 0.12861064E+04</rscale>
<asrwt>0</asrwt>
<pdfrwt beam="1">  1        1 0.59263393E-01 0.12861064E+04</pdfrwt>
<pdfrwt beam="2">  1       -1 0.16515077E+00 0.12861064E+04</pdfrwt>
<totfact> 0.16583732E+01</totfact>
</mgrwt>
</event>
<event>
 6    1  0.1780144E-005  0.2663362E+04  0.7818608E-02  0.8346992E-01
         -1   -1    0    0    0  501 -0.00000000000E+00  0.00000000000E+00  0.12278342825E+04  0.12278342825E+04  0.00000000000E+00 0.  1.
          1   -1    0    0  501    0  0.00000000000E+00 -0.00000000000E+00 -0.14443106936E+04  0.14443106936E+04  0.00000000000E+00 0. -1.
         23    2    1    2    0    0  0.65221048368E+03  0.11002124597E+04 -0.47493566824E+03  0.13672897507E+04  0.89840981857E+02 0.  0.
         11    1    3    3    0    0  0.50480403179E+03  0.77255604249E+03 -0.34378957776E+03  0.98481532435E+03  0.00000000000E+00 0. -1.
        -11    1    3    3    0    0  0.14740645189E+03  0.32765641718E+03 -0.13114609047E+03  0.38247442637E+03  0.00000000000E+00 0.  1.
         22    1    1    2    0    0 -0.65221048368E+03 -0.11002124597E+04  0.25845925713E+03  0.13048552253E+04  0.00000000000E+00 0.  1.
<mgrwt>
<rscale>  0 0.26633619E+04</rscale>
<asrwt>0</asrwt>
<pdfrwt beam="1">  1        1 0.22220164E+00 0.26633619E+04</pdfrwt>
<pdfrwt beam="2">  1       -1 0.18889758E+00 0.26633619E+04</pdfrwt>
<totfact> 0.11270396E+00</totfact>
</mgrwt>
</event>
<event>
 6    1  0.1780144E-005  0.1267599E+04  0.7818608E-02  0.9055662E-01
         -2   -1    0    0    0  501 -0.00000000000E+00  0.00000000000E+00  0.26386707946E+03  0.26386707946E+03  0.00000000000E+00 0.  1.
          2   -1    0    0  501    0  0.00000000000E+00 -0.00000000000E+00 -0.15223643340E+04  0.15223643340E+04  0.00000000000E+00 0. -1.
         23    2    1    2    0    0  0.50289475244E+03 -0.14766013839E+03 -0.11266025687E+04  0.12457660060E+04  0.89403273433E+02 0.  0.
         13    1    3    3    0    0  0.24786465186E+03 -0.26557429765E+02 -0.53966411592E+03  0.59445734980E+03  0.00000000000E+00 0. -1.
        -13    1    3    3    0    0  0.25503010058E+03 -0.12110270863E+03 -0.58693845282E+03  0.65130865620E+03  0.00000000000E+00 0.  1.
         22    1    1    2    0    0 -0.50289475244E+03  0.14766013839E+03 -0.13189468577E+03  0.54046540744E+03  0.00000000000E+00 0.  1.
<mgrwt>
<rscale>  0 0.12675990E+04</rscale>
<asrwt>0</asrwt>
<pdfrwt beam="1">  1        2 0.23420990E+00 0.12675990E+04</pdfrwt>
<pdfrwt beam="2">  1       -2 0.40594935E-01 0.12675990E+04</pdfrwt>
<totfact> 0.69559044E+01</totfact>
</mgrwt>
</event>
<event>
 6    1  0.1780144E-005  0.5220169E+03  0.7818608E-02  0.1008187E+00
         -3   -1    0    0    0  501 -0.00000000000E+00  0.00000000000E+00  0.17841883808E+03  0.17841883808E+03  0.00000000000E+00 0.  1.
          3   -1    0    0  501    0  0.00000000000E+00 -0.00000000000E+00 -0.38182850343E+03  0.38182850343E+03  0.00000000000E+00 0. -1.
         23    2    1    2    0    0 -0.62392649356E+02 -0.23210069586E+03 -0.18933283356E+03  0.31949491077E+03  0.92013588312E+02 0.  0.
         13    1    3    3    0    0  0.23712671723E+02 -0.35706739474E+02 -0.29257564100E+02  0.51896696438E+02  0.00000000000E+00 0. -1.
        -13    1    3    3    0    0 -0.86105321079E+02 -0.19639395639E+03 -0.16007526946E+03  0.26759821434E+03  0.00000000000E+00 0.  1.
         22    1    1    2    0    0  0.62392649356E+02  0.23210069586E+03 -0.14076831793E+02  0.24075243074E+03  0.00000000000E+00 0.  1.
<mgrwt>
<rscale>  0 0.52201685E+03</rscale>
<asrwt>0</asrwt>
<pdfrwt beam="1">  1        3 0.58742847E-01 0.52201685E+03</pdfrwt>
<pdfrwt beam="2">  1       -3 0.27449052E-01 0.52201685E+03</pdfrwt>
<totfact> 0.95132016E+01</totfact>
</mgrwt>
</event>
<event>
 6    1  0.1780144E-005  0.2523366E+04  0.7818608E-02  0.8394708E-01
         -2   -1    0    0    0  501 -0.00000000000E+00  0.00000000000E+00  0.16221252551E+04  0.16221252551E+04  0.00000000000E+00 0.  1.
          2   -1    0    0  501    0  0.00000000000E+00 -0.00000000000E+00 -0.98133212756E+03  0.98133212756E+03  0.00000000000E+00 0. -1.
         23    2    1    2    0    0 -0.31704524758E+03  0.17004555629E+03 -0.92509730006E+03  0.99676948158E+03  0.91165808290E+02 0.  0.
         13    1    3    3    0    0 -0.14124950108E+03  0.12499708121E+03 -0.43399766647E+03  0.47321207335E+03  0.00000000000E+00 0.  1.
        -13    1    3    3    0    0 -0.17579574650E+03  0.45048475081E+02 -0.49109963359E+03  0.52355740823E+03  0.00000000000E+00 0. -1.
         22    1    1    2    0    0  0.31704524758E+03 -0.17004555629E+03  0.15658904276E+04  0.16066879010E+04  0.00000000000E+00 0.  1.
<mgrwt>
<rscale>  0 0.25233657E+04</rscale>
<asrwt>0</asrwt>
<pdfrwt beam="1">  1        2 0.15097417E+00 0.25233657E+04</pdfrwt>
<pdfrwt beam="2">  1       -2 0.24955773E+00 0.25233657E+04</pdfrwt>
<totfact> 0.14906131E+00</totfact>
</mgrwt>
</event>
<event>
 6    1  0.2853631E-005  0.4322965E+04  0.7818608E-02  0.7942385E-01
          1   -1    0    0  501    0  0.00000000000E+00  0.00000000000E+00  0.21450109229E+04  0.21450109229E+04  0.00000000000E+00 0. -1.
         -1   -1    0    0    0  501 -0.00000000000E+00 -0.00000000000E+00 -0.21780809650E+04  0.21780809650E+04  0.00000000000E+00 0.  1.
         23    2    1    2    0    0  0.44772484095E+03  0.19993748820E+03  0.20876611330E+04  0.21464124789E+04  0.91241388625E+02 0.  0.
         11    1    3    3    0    0  0.27647627239E+03  0.16372898333E+03  0.14490787487E+04  0.14842760959E+04  0.00000000000E+00 0. -1.
        -11    1    3    3    0    0  0.17124856856E+03  0.36208504867E+02  0.63858238436E+03  0.66213638298E+03  0.00000000000E+00 0.  1.
         22    1    1    2    0    0 -0.44772484095E+03 -0.19993748820E+03 -0.21207311751E+04  0.21766794090E+04  0.00000000000E+00 0.  1.
<mgrwt>
<rscale>  0 0.43229654E+04</rscale>
<asrwt>0</asrwt>
<pdfrwt beam="1">  1        1 0.33000168E+00 0.43229654E+04</pdfrwt>
<pdfrwt beam="2">  1       -1 0.33508938E+00 0.43229654E+04</pdfrwt>
<totfact> 0.35286351E-02</totfact>
</mgrwt>
</event>
<event>
 6    1  0.1780144E-005  0.5718016E+04  0.7818608E-02  0.7726382E-01
         -2   -1    0    0    0  501 -0.00000000000E+00  0.00000000000E+00  0.21315098319E+04  0.21315098319E+04  0.00000000000E+00 0. -1.
          2   -1    0    0  501    0  0.00000000000E+00 -0.00000000000E+00 -0.38348063248E+04  0.38348063248E+04  0.00000000000E+00 0.  1.
         23    2    1    2    0    0  0.24926042690E+04 -0.44992611333E+03 -0.22338964560E+04  0.33784510385E+04  0.90158162036E+02 0.  0.
         11    1    3    3    0    0  0.18978438164E+04 -0.34784027834E+03 -0.17516929210E+04  0.26059992518E+04  0.00000000000E+00 0.  1.
        -11    1    3    3    0    0  0.59476045259E+03 -0.10208583499E+03 -0.48220353491E+03  0.77245178668E+03  0.00000000000E+00 0. -1.
         22    1    1    2    0    0 -0.24926042690E+04  0.44992611333E+03  0.53059996308E+03  0.25878651182E+04  0.00000000000E+00 0. -1.
<mgrwt>
<rscale>  0 0.57180162E+04</rscale>
<asrwt>0</asrwt>
<pdfrwt beam="1">  1        2 0.58997020E+00 0.57180162E+04</pdfrwt>
<pdfrwt beam="2">  1       -2 0.32792459E+00 0.57180162E+04</pdfrwt>
<totfact> 0.67679224E-03</totfact>
</mgrwt>
</event>
<event>
 6    1  0.1780144E-005  0.9154650E+03  0.7818608E-02  0.9406453E-01
          1   -1    0    0  501    0  0.00000000000E+00  0.00000000000E+00  0.48086367013E+03  0.48086367013E+03  0.00000000000E+00 0. -1.
         -1   -1    0    0    0  501 -0.00000000000E+00 -0.00000000000E+00 -0.43571397361E+03  0.43571397361E+03  0.00000000000E+00 0.  1.
         23    2    1    2    0    0 -0.24420457165E+03 -0.17207280301E+03  0.36375513303E+03  0.47982331173E+03  0.93100436745E+02 0.  0.
         11    1    3    3    0    0 -0.12686771466E+03 -0.13091847834E+03  0.26181607781E+03  0.31903404770E+03  0.00000000000E+00 0.  1.
        -11    1    3    3    0    0 -0.11733685699E+03 -0.41154324669E+02  0.10193905522E+03  0.16078926403E+03  0.00000000000E+00 0. -1.
         22    1    1    2    0    0  0.24420457165E+03  0.17207280301E+03 -0.31860543652E+03  0.43675433201E+03  0.00000000000E+00 0.  1.
<mgrwt>
<rscale>  0 0.91546495E+03</rscale>
<asrwt>0</asrwt>
<pdfrwt beam="1">  1        1 0.73979027E-01 0.91546495E+03</pdfrwt>
<pdfrwt beam="2">  1       -1 0.67032918E-01 0.91546495E+03</pdfrwt>
<totfact> 0.10624110E+02</totfact>
</mgrwt>
</event>
<event>
 6    1  0.1780144E-005  0.1742377E+04  0.7818608E-02  0.8737558E-01
         -2   -1    0    0    0  501 -0.00000000000E+00  0.00000000000E+00  0.24806690153E+03  0.24806690153E+03  0.00000000000E+00 0.  1.
          2   -1    0    0  501    0  0.00000000000E+00 -0.00000000000E+00 -0.30595353214E+04  0.30595353214E+04  0.00000000000E+00 0. -1.
         23    2    1    2    0    0  0.60395146110E+03  0.37049098209E+03 -0.23640128850E+04  0.24696061664E+04  0.91524647961E+02 0.  0.
         13    1    3    3    0    0  0.19645592229E+03  0.73478427243E+02 -0.73373618664E+03  0.76312698829E+03  0.00000000000E+00 0.  1.
        -13    1    3    3    0    0  0.40749553881E+03  0.29701255484E+03 -0.16302766984E+04  0.17064791781E+04  0.00000000000E+00 0. -1.
         22    1    1    2    0    0 -0.60395146110E+03 -0.37049098209E+03 -0.44745553484E+03  0.83799605657E+03  0.00000000000E+00 0.  1.
<mgrwt>
<rscale>  0 0.17423771E+04</rscale>
<asrwt>0</asrwt>
<pdfrwt beam="1">  1        2 0.47069777E+00 0.17423771E+04</pdfrwt>
<pdfrwt beam="2">  1       -2 0.38164136E-01 0.17423771E+04</pdfrwt>
<totfact> 0.98655192E+00</totfact>
</mgrwt>
</event>
<event>
 6    1  0.1780144E-005  0.1199188E+04  0.7818608E-02  0.9113567E-01
         -1   -1    0    0    0  501 -0.00000000000E+00  0.00000000000E+00  0.16452335700E+03  0.16452335700E+03  0.00000000000E+00 0.  1.
          1   -1    0    0  501    0  0.00000000000E+00 -0.00000000000E+00 -0.21851797646E+04  0.21851797646E+04  0.00000000000E+00 0. -1.
         23    2    1    2    0    0  0.28479545450E+03  0.19246353784E+03 -0.62074555121E+02  0.36118771127E+03  0.91938284058E+02 0.  0.
         11    1    3    3    0    0  0.11028437063E+03  0.11547568101E+03 -0.59582233725E+02  0.17043273713E+03  0.00000000000E+00 0. -1.
        -11    1    3    3    0    0  0.17451108386E+03  0.76987856831E+02 -0.24923213960E+01  0.19075497413E+03  0.00000000000E+00 0.  1.
         22    1    1    2    0    0 -0.28479545450E+03 -0.19246353784E+03 -0.19585818525E+04  0.19885154103E+04  0.00000000000E+00 0. -1.
<mgrwt>
<rscale>  0 0.11991882E+04</rscale>
<asrwt>0</asrwt>
<pdfrwt beam="1">  1        1 0.33618150E+00 0.11991882E+04</pdfrwt>
<pdfrwt beam="2">  1       -1 0.25311286E-01 0.11991882E+04</pdfrwt>
<totfact> 0.30363542E+01</totfact>
</mgrwt>
</event>
<event>
 6    1  0.1780144E-005  0.5601792E+04  0.7818608E-02  0.7741836E-01
          2   -1    0    0  501    0  0.00000000000E+00  0.00000000000E+00  0.35121162532E+04  0.35121162532E+04  0.00000000000E+00 0. -1.
         -2   -1    0    0    0  501 -0.00000000000E+00 -0.00000000000E+00 -0.22337008653E+04  0.22337008653E+04  0.00000000000E+00 0.  1.
         23    2    1    2    0    0  0.17498357379E+04 -0.20025046784E+04  0.15387379407E+04  0.30737920572E+04  0.92374586600E+02 0.  0.
         13    1    3    3    0    0  0.52299905350E+03 -0.57190482081E+03  0.49276815748E+03  0.91838096183E+03  0.00000000000E+00 0. -1.
        -13    1    3    3    0    0  0.12268366844E+04 -0.14305998576E+04  0.10459697832E+04  0.21554110954E+04  0.00000000000E+00 0.  1.
         22    1    1    2    0    0 -0.17498357379E+04  0.20025046784E+04 -0.26032255279E+03  0.26720250613E+04  0.00000000000E+00 0. -1.
<mgrwt>
<rscale>  0 0.56017915E+04</rscale>
<asrwt>0</asrwt>
<pdfrwt beam="1">  1        2 0.54032557E+00 0.56017915E+04</pdfrwt>
<pdfrwt beam="2">  1       -2 0.34364629E+00 0.56017915E+04</pdfrwt>
<totfact> 0.94215130E-03</totfact>
</mgrwt>
</event>
<event>
 6    1  0.1780144E-005  0.1920909E+04  0.7818608E-02  0.8644518E-01
          1   -1    0    0  501    0  0.00000000000E+00  0.00000000000E+00  0.97951346819E+03  0.97951346819E+03  0.00000000000E+00 0. -1.
         -1   -1    0    0    0  501 -0.00000000000E+00 -0.00000000000E+00 -0.94176661787E+03  0.94176661787E+03  0.00000000000E+00 0.  1.
         23    2    1    2    0    0 -0.86903467362E+03  0.31243560901E+03  0.27477550231E+03  0.96785475830E+03  0.91673239061E+02 0.  0.
         13    1    3    3    0    0 -0.17444514204E+03  0.84496502625E+02  0.25568361194E+02  0.19551088878E+03  0.00000000000E+00 0.  1.
        -13    1    3    3    0    0 -0.69458953159E+03  0.22793910639E+03  0.24920714112E+03  0.77234386953E+03  0.00000000000E+00 0. -1.
         22    1    1    2    0    0  0.86903467362E+03 -0.31243560901E+03 -0.23702865199E+03  0.95342532775E+03  0.00000000000E+00 0. -1.
<mgrwt>
<rscale>  0 0.19209092E+04</rscale>
<asrwt>0</asrwt>
<pdfrwt beam="1">  1        1 0.15069438E+00 0.19209092E+04</pdfrwt>
<pdfrwt beam="2">  1       -1 0.14488717E+00 0.19209092E+04</pdfrwt>
<totfact> 0.56156316E+00</totfact>
</mgrwt>
</event>
<event>
 6    1  0.2152173E-005  0.2777852E+04  0.7818608E-02  0.8310178E-01
         -1   -1    0    0    0  501 -0.00000000000E+00  0.00000000000E+00  0.12148439066E+04  0.12148439066E+04  0.00000000000E+00 0.  1.
          1   -1    0    0  501    0  0.00000000000E+00 -0.00000000000E+00 -0.15879528392E+04  0.15879528392E+04  0.00000000000E+00 0. -1.
         23    2    1    2    0    0 -0.11264729303E+04 -0.55701592385E+03 -0.78015389393E+03  0.14818525371E+04  0.89659585683E+02 0.  0.
         13    1    3    3    0    0 -0.53800735952E+03 -0.21627568773E+03 -0.35582820151E+03  0.68032404117E+03  0.00000000000E+00 0. -1.
        -13    1    3    3    0    0 -0.58846557076E+03 -0.34074023613E+03 -0.42432569242E+03  0.80152849589E+03  0.00000000000E+00 0.  1.
         22    1    1    2    0    0  0.11264729303E+04  0.55701592385E+03  0.40704496136E+03  0.13209442088E+04  0.00000000000E+00 0.  1.
<mgrwt>
<rscale>  0 0.27778516E+04</rscale>
<asrwt>0</asrwt>
<pdfrwt beam="1">  1        1 0.24430044E+00 0.27778516E+04</pdfrwt>
<pdfrwt beam="2">  1       -1 0.18689906E+00 0.27778516E+04</pdfrwt>
<totfact> 0.91674401E-01</totfact>
</mgrwt>
</event>
<event>
 6    1  0.1780144E-005  0.1346831E+04  0.7818608E-02  0.8993230E-01
          2   -1    0    0  501    0  0.00000000000E+00  0.00000000000E+00  0.16292019668E+04  0.16292019668E+04  0.00000000000E+00 0.  1.
         -2   -1    0    0    0  501 -0.00000000000E+00 -0.00000000000E+00 -0.27835012536E+03  0.27835012536E+03  0.00000000000E+00 0. -1.
         23    2    1    2    0    0 -0.42980060445E+02  0.47321017794E+03  0.13482293588E+04  0.14323868203E+04  0.90743821579E+02 0.  0.
         13    1    3    3    0    0 -0.79252540780E+01  0.29837825816E+03  0.72199564466E+03  0.78126186743E+03  0.00000000000E+00 0. -1.
        -13    1    3    3    0    0 -0.35054806367E+02  0.17483191979E+03  0.62623371409E+03  0.65112495290E+03  0.00000000000E+00 0.  1.
         22    1    1    2    0    0  0.42980060445E+02 -0.47321017794E+03  0.26224826513E+01  0.47516527180E+03  0.00000000000E+00 0. -1.
<mgrwt>
<rscale>  0 0.13468312E+04</rscale>
<asrwt>0</asrwt>
<pdfrwt beam="1">  1        2 0.25064645E+00 0.13468312E+04</pdfrwt>
<pdfrwt beam="2">  1       -2 0.42823098E-01 0.13468312E+04</pdfrwt>
<totfact> 0.54235299E+01</totfact>
</mgrwt>
</event>
<event>
 6    1  0.1780144E-005  0.1608179E+04  0.7818608E-02  0.8815539E-01
         -1   -1    0    0    0  501 -0.00000000000E+00  0.00000000000E+00  0.14669513850E+04  0.14669513850E+04  0.00000000000E+00 0.  1.
          1   -1    0    0  501    0  0.00000000000E+00 -0.00000000000E+00 -0.44075083180E+03  0.44075083180E+03  0.00000000000E+00 0. -1.
         23    2    1    2    0    0  0.10694957776E+03  0.63809193788E+03 -0.46462074317E+02  0.65502322926E+03  0.91088820095E+02 0.  0.
         11    1    3    3    0    0  0.73152827576E+02  0.18405540795E+03 -0.16485906318E+02  0.19874484769E+03  0.00000000000E+00 0.  1.
        -11    1    3    3    0    0  0.33796750186E+02  0.45403652993E+03 -0.29976167999E+02  0.45627838156E+03  0.00000000000E+00 0. -1.
         22    1    1    2    0    0 -0.10694957776E+03 -0.63809193788E+03  0.10726626275E+04  0.12526789875E+04  0.00000000000E+00 0.  1.
<mgrwt>
<rscale>  0 0.16081791E+04</rscale>
<asrwt>0</asrwt>
<pdfrwt beam="1">  1        1 0.67807821E-01 0.16081791E+04</pdfrwt>
<pdfrwt beam="2">  1       -1 0.22568483E+00 0.16081791E+04</pdfrwt>
<totfact> 0.50920416E+00</totfact>
</mgrwt>
</event>
<event>
 6    1  0.1780144E-005  0.1258362E+04  0.7818608E-02  0.9063252E-01
         -2   -1    0    0    0  501 -0.00000000000E+00  0.00000000000E+00  0.50325814875E+03  0.50325814875E+03  0.00000000000E+00 0.  1.
          2   -1    0    0  501    0  0.00000000000E+00 -0.00000000000E+00 -0.78661193717E+03  0.78661193717E+03  0.00000000000E+00 0. -1.
         23    2    1    2    0    0  0.72459055728E+02  0.43209740220E+03  0.31579210343E+03  0.54762061339E+03  0.90582580460E+02 0.  0.
         13    1    3    3    0    0 -0.11072123404E+01  0.25628122295E+03  0.16792311798E+03  0.30639755990E+03  0.00000000000E+00 0. -1.
        -13    1    3    3    0    0  0.73566268068E+02  0.17581617924E+03  0.14786898545E+03  0.24122305350E+03  0.00000000000E+00 0.  1.
         22    1    1    2    0    0 -0.72459055728E+02 -0.43209740220E+03 -0.59914589185E+03  0.74224947253E+03  0.00000000000E+00 0. -1.
<mgrwt>
<rscale>  0 0.12583622E+04</rscale>
<asrwt>0</asrwt>
<pdfrwt beam="1">  1        2 0.12101722E+00 0.12583622E+04</pdfrwt>
<pdfrwt beam="2">  1       -2 0.77424330E-01 0.12583622E+04</pdfrwt>
<totfact> 0.51533041E+01</totfact>
</mgrwt>
</event>
<event>
 6    1  0.1780144E-005  0.2031753E+04  0.7818608E-02  0.8591917E-01
         -2   -1    0    0    0  501 -0.00000000000E+00  0.00000000000E+00  0.13917813124E+04  0.13917813124E+04  0.00000000000E+00 0.  1.
          2   -1    0    0  501    0  0.00000000000E+00 -0.00000000000E+00 -0.74149970819E+03  0.74149970819E+03  0.00000000000E+00 0. -1.
         23    2    1    2    0    0  0.57814177843E+03  0.13822352271E+03 -0.53657953346E+03  0.80588016993E+03  0.90396871424E+02 0.  0.
         11    1    3    3    0    0  0.37837394997E+03  0.11161950535E+03 -0.40393144477E+03  0.56461170026E+03  0.00000000000E+00 0. -1.
        -11    1    3    3    0    0  0.19976782846E+03  0.26604017354E+02 -0.13264808870E+03  0.24126846968E+03  0.00000000000E+00 0.  1.
         22    1    1    2    0    0 -0.57814177843E+03 -0.13822352271E+03  0.11868611377E+04  0.13274008506E+04  0.00000000000E+00 0.  1.
<mgrwt>
<rscale>  0 0.20317534E+04</rscale>
<asrwt>0</asrwt>
<pdfrwt beam="1">  1        2 0.11407688E+00 0.20317534E+04</pdfrwt>
<pdfrwt beam="2">  1       -2 0.21412020E+00 0.20317534E+04</pdfrwt>
<totfact> 0.37976842E+00</totfact>
</mgrwt>
</event>
<event>
 6    1  0.1780144E-005  0.1213918E+04  0.7818608E-02  0.9100760E-01
         -1   -1    0    0    0  501 -0.00000000000E+00  0.00000000000E+00  0.41805108986E+03  0.41805108986E+03  0.00000000000E+00 0.  1.
          1   -1    0    0  501    0  0.00000000000E+00 -0.00000000000E+00 -0.88123050671E+03  0.88123050671E+03  0.00000000000E+00 0. -1.
         23    2    1    2    0    0 -0.39005423150E+03  0.33768394900E+03  0.10224307564E+03  0.53385665059E+03  0.91523351854E+02 0.  0.
         11    1    3    3    0    0 -0.17302491851E+03  0.94189708322E+02  0.24274155570E+02  0.19849070056E+03  0.00000000000E+00 0.  1.
        -11    1    3    3    0    0 -0.21702931298E+03  0.24349424068E+03  0.77968920073E+02  0.33536595002E+03  0.00000000000E+00 0. -1.
         22    1    1    2    0    0  0.39005423150E+03 -0.33768394900E+03 -0.56542249249E+03  0.76542494598E+03  0.00000000000E+00 0. -1.
<mgrwt>
<rscale>  0 0.12139182E+04</rscale>
<asrwt>0</asrwt>
<pdfrwt beam="1">  1        1 0.13557392E+00 0.12139182E+04</pdfrwt>
<pdfrwt beam="2">  1       -1 0.64315553E-01 0.12139182E+04</pdfrwt>
<totfact> 0.45715414E+01</totfact>
</mgrwt>
</event>
<event>
 6    1  0.1780144E-005  0.1651387E+04  0.7818608E-02  0.8789587E-01
         -1   -1    0    0    0  501 -0.00000000000E+00  0.00000000000E+00  0.49099938335E+03  0.49099938335E+03  0.00000000000E+00 0.  1.
          1   -1    0    0  501    0  0.00000000000E+00 -0.00000000000E+00 -0.13885342456E+04  0.13885342456E+04  0.00000000000E+00 0. -1.
         23    2    1    2    0    0  0.57676109423E+03  0.45491029039E+03 -0.87294298713E+03  0.11445496206E+04  0.91474822524E+02 0.  0.
         13    1    3    3    0    0  0.28105275132E+03  0.17030693151E+03 -0.35591527585E+03  0.48442830587E+03  0.00000000000E+00 0. -1.
        -13    1    3    3    0    0  0.29570834291E+03  0.28460335888E+03 -0.51702771128E+03  0.66012131475E+03  0.00000000000E+00 0.  1.
         22    1    1    2    0    0 -0.57676109423E+03 -0.45491029039E+03 -0.24591875070E+02  0.73498400829E+03  0.00000000000E+00 0. -1.
<mgrwt>
<rscale>  0 0.16513866E+04</rscale>
<asrwt>0</asrwt>
<pdfrwt beam="1">  1        1 0.21362065E+00 0.16513866E+04</pdfrwt>
<pdfrwt beam="2">  1       -1 0.75538367E-01 0.16513866E+04</pdfrwt>
<totfact> 0.13171590E+01</totfact>
</mgrwt>
</event>
<event>
 6    1  0.1780144E-005  0.1647014E+04  0.7818608E-02  0.8792175E-01
          2   -1    0    0  501    0  0.00000000000E+00  0.00000000000E+00  0.15220837269E+04  0.15220837269E+04  0.00000000000E+00 0.  1.
         -2   -1    0    0    0  501 -0.00000000000E+00 -0.00000000000E+00 -0.44554936334E+03  0.44554936334E+03  0.00000000000E+00 0. -1.
         23    2    1    2    0    0 -0.73405217356E+03 -0.34065642681E+03  0.37420149037E+03  0.89611507387E+03  0.90089264450E+02 0.  0.
         11    1    3    3    0    0 -0.18478626424E+03 -0.87694279033E+02  0.52579699825E+02  0.21118919210E+03  0.00000000000E+00 0.  1.
        -11    1    3    3    0    0 -0.54926590932E+03 -0.25296214778E+03  0.32162179055E+03  0.68492588176E+03  0.00000000000E+00 0. -1.
         22    1    1    2    0    0  0.73405217356E+03  0.34065642681E+03  0.70233287315E+03  0.10715180163E+04  0.00000000000E+00 0.  1.
<mgrwt>
<rscale>  0 0.16470136E+04</rscale>
<asrwt>0</asrwt>
<pdfrwt beam="1">  1        2 0.23416673E+00 0.16470136E+04</pdfrwt>
<pdfrwt beam="2">  1       -2 0.68546056E-01 0.16470136E+04</pdfrwt>
<totfact> 0.22932822E+01</totfact>
</mgrwt>
</event>
<event>
 6    1  0.1780144E-005  0.2100937E+04  0.7818608E-02  0.8560831E-01
         -2   -1    0    0    0  501 -0.00000000000E+00  0.00000000000E+00  0.56687373753E+03  0.56687373753E+03  0.00000000000E+00 0.  1.
          2   -1    0    0  501    0  0.00000000000E+00 -0.00000000000E+00 -0.19466144044E+04  0.19466144044E+04  0.00000000000E+00 0. -1.
         23    2    1    2    0    0  0.25239194347E+03 -0.53273508665E+03 -0.17291403858E+04  0.18282228434E+04  0.70455131095E+02 0.  0.
         13    1    3    3    0    0  0.12346296072E+03 -0.30784724958E+03 -0.10574055218E+04  0.11082055176E+04  0.00000000000E+00 0. -1.
        -13    1    3    3    0    0  0.12892898275E+03 -0.22488783708E+03 -0.67173486402E+03  0.72001732576E+03  0.00000000000E+00 0.  1.
         22    1    1    2    0    0 -0.25239194347E+03  0.53273508665E+03  0.34939971900E+03  0.68526529849E+03  0.00000000000E+00 0.  1.
<mgrwt>
<rscale>  0 0.21009375E+04</rscale>
<asrwt>0</asrwt>
<pdfrwt beam="1">  1        2 0.29947914E+00 0.21009375E+04</pdfrwt>
<pdfrwt beam="2">  1       -2 0.87211345E-01 0.21009375E+04</pdfrwt>
<totfact> 0.74894609E+00</totfact>
</mgrwt>
</event>
<event>
 6    1  0.1780144E-005  0.1810840E+04  0.7818608E-02  0.8700556E-01
          2   -1    0    0  501    0  0.00000000000E+00  0.00000000000E+00  0.12462490028E+04  0.12462490028E+04  0.00000000000E+00 0.  1.
         -2   -1    0    0    0  501 -0.00000000000E+00 -0.00000000000E+00 -0.65780242681E+03  0.65780242681E+03  0.00000000000E+00 0. -1.
         23    2    1    2    0    0  0.38597252840E+02  0.81179290997E+03  0.70908576345E+03  0.10824363797E+04  0.91479066342E+02 0.  0.
         11    1    3    3    0    0  0.21013498730E+02  0.19619583187E+03  0.22379499027E+03  0.29835979830E+03  0.00000000000E+00 0. -1.
        -11    1    3    3    0    0  0.17583754110E+02  0.61559707810E+03  0.48529077318E+03  0.78407658141E+03  0.00000000000E+00 0.  1.
         22    1    1    2    0    0 -0.38597252840E+02 -0.81179290997E+03 -0.12063918749E+03  0.82161504987E+03  0.00000000000E+00 0. -1.
<mgrwt>
<rscale>  0 0.18108403E+04</rscale>
<asrwt>0</asrwt>
<pdfrwt beam="1">  1        2 0.19173062E+00 0.18108403E+04</pdfrwt>
<pdfrwt beam="2">  1       -2 0.10120037E+00 0.18108403E+04</pdfrwt>
<totfact> 0.13466085E+01</totfact>
</mgrwt>
</event>
<event>
 6    1  0.1780144E-005  0.3549526E+04  0.7818608E-02  0.8102152E-01
         -2   -1    0    0    0  501 -0.00000000000E+00  0.00000000000E+00  0.14402576265E+04  0.14402576265E+04  0.00000000000E+00 0.  1.
          2   -1    0    0  501    0  0.00000000000E+00 -0.00000000000E+00 -0.21869583041E+04  0.21869583041E+04  0.00000000000E+00 0. -1.
         23    2    1    2    0    0 -0.14287445579E+04 -0.97950885450E+03 -0.76262154912E+03  0.18948758711E+04  0.90632951693E+02 0.  0.
         13    1    3    3    0    0 -0.13655207779E+04 -0.91161420940E+03 -0.72311235497E+03  0.17940398378E+04  0.00000000000E+00 0. -1.
        -13    1    3    3    0    0 -0.63223779932E+02 -0.67894645098E+02 -0.39509194153E+02  0.10083603326E+03  0.00000000000E+00 0.  1.
         22    1    1    2    0    0  0.14287445579E+04  0.97950885450E+03  0.15920871493E+02  0.17323400595E+04  0.00000000000E+00 0.  1.
<mgrwt>
<rscale>  0 0.35495258E+04</rscale>
<asrwt>0</asrwt>
<pdfrwt beam="1">  1        2 0.33645512E+00 0.35495258E+04</pdfrwt>
<pdfrwt beam="2">  1       -2 0.22157810E+00 0.35495258E+04</pdfrwt>
<totfact> 0.41515592E-01</totfact>
</mgrwt>
</event>
<event>
 6    1  0.1780144E-005  0.6587451E+04  0.7818608E-02  0.7621546E-01
         -2   -1    0    0    0  501 -0.00000000000E+00  0.00000000000E+00  0.23471511832E+04  0.23471511832E+04  0.00000000000E+00 0.  1.
          2   -1    0    0  501    0  0.00000000000E+00 -0.00000000000E+00 -0.46220411236E+04  0.46220411236E+04  0.00000000000E+00 0. -1.
         23    2    1    2    0    0  0.29327337784E+04  0.95056238445E+03 -0.23625934076E+04  0.38850087585E+04  0.83361755784E+02 0.  0.
         13    1    3    3    0    0  0.13782429545E+04  0.48938587847E+03 -0.11320606164E+04  0.18494900429E+04  0.00000000000E+00 0. -1.
        -13    1    3    3    0    0  0.15544908239E+04  0.46117650598E+03 -0.12305327912E+04  0.20355187156E+04  0.00000000000E+00 0.  1.
         22    1    1    2    0    0 -0.29327337784E+04 -0.95056238445E+03  0.87703467265E+02  0.30841835483E+04  0.00000000000E+00 0.  1.
<mgrwt>
<rscale>  0 0.65874515E+04</rscale>
<asrwt>0</asrwt>
<pdfrwt beam="1">  1        2 0.71108324E+00 0.65874515E+04</pdfrwt>
<pdfrwt beam="2">  1       -2 0.36110019E+00 0.65874515E+04</pdfrwt>
<totfact> 0.77818704E-04</totfact>
</mgrwt>
</event>
<event>
 6    1  0.1780144E-005  0.1981577E+04  0.7818608E-02  0.8615283E-01
         -2   -1    0    0    0  501 -0.00000000000E+00  0.00000000000E+00  0.49609226269E+03  0.49609226269E+03  0.00000000000E+00 0. -1.
          2   -1    0    0  501    0  0.00000000000E+00 -0.00000000000E+00 -0.19787887842E+04  0.19787887842E+04  0.00000000000E+00 0.  1.
         23    2    1    2    0    0  0.27742107941E+03 -0.88206674756E+03 -0.11802405553E+04  0.15020070500E+04  0.89739663589E+02 0.  0.
         13    1    3    3    0    0  0.20801936307E+03 -0.54897956918E+03 -0.79038642582E+03  0.98456148864E+03  0.00000000000E+00 0. -1.
        -13    1    3    3    0    0  0.69401716340E+02 -0.33308717837E+03 -0.38985412950E+03  0.51744556131E+03  0.00000000000E+00 0.  1.
         22    1    1    2    0    0 -0.27742107941E+03  0.88206674756E+03 -0.30245596618E+03  0.97287399694E+03  0.00000000000E+00 0. -1.
<mgrwt>
<rscale>  0 0.19815770E+04</rscale>
<asrwt>0</asrwt>
<pdfrwt beam="1">  1        2 0.30442904E+00 0.19815770E+04</pdfrwt>
<pdfrwt beam="2">  1       -2 0.76321887E-01 0.19815770E+04</pdfrwt>
<totfact> 0.98104952E+00</totfact>
</mgrwt>
</event>
<event>
 6    1  0.1780144E-005  0.2137652E+04  0.7818608E-02  0.8544837E-01
          1   -1    0    0  501    0  0.00000000000E+00  0.00000000000E+00  0.55914404140E+03  0.55914404140E+03  0.00000000000E+00 0. -1.
         -1   -1    0    0    0  501 -0.00000000000E+00 -0.00000000000E+00 -0.20431023953E+04  0.20431023953E+04  0.00000000000E+00 0.  1.
         23    2    1    2    0    0 -0.93844828951E+03  0.12271841547E+02 -0.13606077198E+04  0.16556466431E+04  0.95271451780E+02 0.  0.
         11    1    3    3    0    0 -0.69947027213E+03  0.47699211153E+00 -0.93918635583E+03  0.11710379584E+04  0.00000000000E+00 0.  1.
        -11    1    3    3    0    0 -0.23897801738E+03  0.11794849435E+02 -0.42142136400E+03  0.48460868471E+03  0.00000000000E+00 0. -1.
         22    1    1    2    0    0  0.93844828951E+03 -0.12271841547E+02 -0.12335063403E+03  0.94659979352E+03  0.00000000000E+00 0. -1.
<mgrwt>
<rscale>  0 0.21376515E+04</rscale>
<asrwt>0</asrwt>
<pdfrwt beam="1">  1        1 0.86022160E-01 0.21376515E+04</pdfrwt>
<pdfrwt beam="2">  1       -1 0.31432345E+00 0.21376515E+04</pdfrwt>
<totfact> 0.92642794E-01</totfact>
</mgrwt>
</event>
<event>
 6    1  0.1897383E-005  0.4750698E+04  0.7818608E-02  0.7868159E-01
          2   -1    0    0  501    0  0.00000000000E+00  0.00000000000E+00  0.15284908405E+04  0.15284908405E+04  0.00000000000E+00 0. -1.
         -2   -1    0    0    0  501 -0.00000000000E+00 -0.00000000000E+00 -0.36914070442E+04  0.36914070442E+04  0.00000000000E+00 0.  1.
         23    2    1    2    0    0 -0.10154682938E+04 -0.19755748846E+04 -0.15980659636E+03  0.22288244856E+04  0.89713204311E+02 0.  0.
         11    1    3    3    0    0 -0.73091057395E+03 -0.13375571634E+04 -0.93885184687E+02  0.15271227391E+04  0.00000000000E+00 0.  1.
        -11    1    3    3    0    0 -0.28455771988E+03 -0.63801772115E+03 -0.65921411670E+02  0.70170174645E+03  0.00000000000E+00 0. -1.
         22    1    1    2    0    0  0.10154682938E+04  0.19755748846E+04 -0.20031096073E+04  0.29910733992E+04  0.00000000000E+00 0.  1.
<mgrwt>
<rscale>  0 0.47506976E+04</rscale>
<asrwt>0</asrwt>
<pdfrwt beam="1">  1        2 0.23515244E+00 0.47506976E+04</pdfrwt>
<pdfrwt beam="2">  1       -2 0.56790878E+00 0.47506976E+04</pdfrwt>
<totfact> 0.63827748E-03</totfact>
</mgrwt>
</event>
<event>
 6    1  0.1780144E-005  0.2427920E+04  0.7818608E-02  0.8429124E-01
         -2   -1    0    0    0  501 -0.00000000000E+00  0.00000000000E+00  0.15140311948E+04  0.15140311948E+04  0.00000000000E+00 0.  1.
          2   -1    0    0  501    0  0.00000000000E+00 -0.00000000000E+00 -0.97336121711E+03  0.97336121711E+03  0.00000000000E+00 0. -1.
         23    2    1    2    0    0 -0.43504197617E+03 -0.83366181171E+03 -0.51303260720E+03  0.10751096234E+04  0.91677199491E+02 0.  0.
         11    1    3    3    0    0 -0.12517073768E+03 -0.28135263697E+03 -0.21233688849E+03  0.37405076408E+03  0.00000000000E+00 0. -1.
        -11    1    3    3    0    0 -0.30987123849E+03 -0.55230917474E+03 -0.30069571871E+03  0.70105885930E+03  0.00000000000E+00 0.  1.
         22    1    1    2    0    0  0.43504197617E+03  0.83366181171E+03  0.10537025849E+04  0.14122827885E+04  0.00000000000E+00 0.  1.
<mgrwt>
<rscale>  0 0.24279203E+04</rscale>
<asrwt>0</asrwt>
<pdfrwt beam="1">  1        2 0.14974788E+00 0.24279203E+04</pdfrwt>
<pdfrwt beam="2">  1       -2 0.23292788E+00 0.24279203E+04</pdfrwt>
<totfact> 0.19270956E+00</totfact>
</mgrwt>
</event>
<event>
 6    1  0.1780144E-005  0.1444727E+04  0.7818608E-02  0.8922064E-01
         -2   -1    0    0    0  501 -0.00000000000E+00  0.00000000000E+00  0.57111751317E+03  0.57111751317E+03  0.00000000000E+00 0.  1.
          2   -1    0    0  501    0  0.00000000000E+00 -0.00000000000E+00 -0.91366305026E+03  0.91366305026E+03  0.00000000000E+00 0. -1.
         23    2    1    2    0    0  0.43759383889E+03 -0.14344268249E+03 -0.74007561044E+03  0.87642677637E+03  0.91366373318E+02 0.  0.
         13    1    3    3    0    0  0.20294384286E+03 -0.22533772366E+02 -0.29047622909E+03  0.35506395750E+03  0.00000000000E+00 0.  1.
        -13    1    3    3    0    0  0.23464999603E+03 -0.12090891013E+03 -0.44959938136E+03  0.52136281887E+03  0.00000000000E+00 0. -1.
         22    1    1    2    0    0 -0.43759383889E+03  0.14344268249E+03  0.39753007335E+03  0.60835378705E+03  0.00000000000E+00 0.  1.
<mgrwt>
<rscale>  0 0.14447269E+04</rscale>
<asrwt>0</asrwt>
<pdfrwt beam="1">  1        2 0.14056354E+00 0.14447269E+04</pdfrwt>
<pdfrwt beam="2">  1       -2 0.87864234E-01 0.14447269E+04</pdfrwt>
<totfact> 0.31113514E+01</totfact>
</mgrwt>
</event>
<event>
 6    1  0.1780144E-005  0.1972848E+04  0.7818608E-02  0.8619421E-01
          2   -1    0    0  501    0  0.00000000000E+00  0.00000000000E+00  0.91308076957E+03  0.91308076957E+03  0.00000000000E+00 0. -1.
         -2   -1    0    0    0  501 -0.00000000000E+00 -0.00000000000E+00 -0.10656585837E+04  0.10656585837E+04  0.00000000000E+00 0.  1.
         23    2    1    2    0    0  0.40861975614E+03 -0.63022344409E+03 -0.71441429955E+03  0.10407564478E+04  0.92921998099E+02 0.  0.
         11    1    3    3    0    0  0.93429844315E+02 -0.22304803616E+03 -0.23568180978E+03  0.33767658744E+03  0.00000000000E+00 0. -1.
        -11    1    3    3    0    0  0.31518991183E+03 -0.40717540792E+03 -0.47873248977E+03  0.70307986040E+03  0.00000000000E+00 0.  1.
         22    1    1    2    0    0 -0.40861975614E+03  0.63022344409E+03  0.56183648540E+03  0.93798290545E+03  0.00000000000E+00 0. -1.
<mgrwt>
<rscale>  0 0.19728481E+04</rscale>
<asrwt>0</asrwt>
<pdfrwt beam="1">  1        2 0.14047396E+00 0.19728481E+04</pdfrwt>
<pdfrwt beam="2">  1       -2 0.16394748E+00 0.19728481E+04</pdfrwt>
<totfact> 0.63017638E+00</totfact>
</mgrwt>
</event>
<event>
 6    1  0.1780144E-005  0.3770251E+04  0.7818608E-02  0.8052569E-01
         -2   -1    0    0    0  501 -0.00000000000E+00  0.00000000000E+00  0.21739031035E+04  0.21739031035E+04  0.00000000000E+00 0. -1.
          2   -1    0    0  501    0  0.00000000000E+00 -0.00000000000E+00 -0.16347087527E+04  0.16347087527E+04  0.00000000000E+00 0.  1.
         23    2    1    2    0    0  0.18378241418E+04  0.28034094126E+03 -0.39090118739E+02  0.18616651320E+04  0.89891083539E+02 0.  0.
         11    1    3    3    0    0  0.83189411700E+03  0.17191130266E+03 -0.12892226391E+02  0.84956902450E+03  0.00000000000E+00 0. -1.
        -11    1    3    3    0    0  0.10059300247E+04  0.10842963860E+03 -0.26197892348E+02  0.10120961075E+04  0.00000000000E+00 0.  1.
         22    1    1    2    0    0 -0.18378241418E+04 -0.28034094126E+03  0.57828446948E+03  0.19469467242E+04  0.00000000000E+00 0. -1.
<mgrwt>
<rscale>  0 0.37702511E+04</rscale>
<asrwt>0</asrwt>
<pdfrwt beam="1">  1        2 0.25149365E+00 0.37702511E+04</pdfrwt>
<pdfrwt beam="2">  1       -2 0.33444663E+00 0.37702511E+04</pdfrwt>
<totfact> 0.16690632E-01</totfact>
</mgrwt>
</event>
<event>
 6    1  0.1780144E-005  0.1677439E+04  0.7818608E-02  0.8774337E-01
         -2   -1    0    0    0  501 -0.00000000000E+00  0.00000000000E+00  0.84866969375E+03  0.84866969375E+03  0.00000000000E+00 0.  1.
          2   -1    0    0  501    0  0.00000000000E+00 -0.00000000000E+00 -0.82888644530E+03  0.82888644530E+03  0.00000000000E+00 0. -1.
         23    2    1    2    0    0  0.50118211002E+03 -0.93261924636E+01 -0.65953191546E+03  0.83331708689E+03  0.90357813805E+02 0.  0.
         13    1    3    3    0    0  0.42971872608E+03 -0.24216986135E+02 -0.51321738742E+03  0.66980350305E+03  0.00000000000E+00 0.  1.
        -13    1    3    3    0    0  0.71463383947E+02  0.14890793671E+02 -0.14631452804E+03  0.16351358383E+03  0.00000000000E+00 0. -1.
         22    1    1    2    0    0 -0.50118211002E+03  0.93261924636E+01  0.67931516391E+03  0.84423905216E+03  0.00000000000E+00 0.  1.
<mgrwt>
<rscale>  0 0.16774395E+04</rscale>
<asrwt>0</asrwt>
<pdfrwt beam="1">  1        2 0.12752099E+00 0.16774395E+04</pdfrwt>
<pdfrwt beam="2">  1       -2 0.13056457E+00 0.16774395E+04</pdfrwt>
<totfact> 0.13446039E+01</totfact>
</mgrwt>
</event>
<event>
 6    1  0.1908426E-005  0.1983939E+04  0.7818608E-02  0.8614167E-01
          1   -1    0    0  501    0  0.00000000000E+00  0.00000000000E+00  0.83150142935E+03  0.83150142935E+03  0.00000000000E+00 0. -1.
         -1   -1    0    0    0  501 -0.00000000000E+00 -0.00000000000E+00 -0.11834057426E+04  0.11834057426E+04  0.00000000000E+00 0.  1.
         23    2    1    2    0    0 -0.28409043662E+03 -0.51936169429E+03 -0.98207558586E+03  0.11502917786E+04  0.90855785690E+02 0.  0.
         11    1    3    3    0    0 -0.12121350288E+03 -0.21770640136E+03 -0.50125136483E+03  0.55976934644E+03  0.00000000000E+00 0. -1.
        -11    1    3    3    0    0 -0.16287693374E+03 -0.30165529294E+03 -0.48082422103E+03  0.59052243211E+03  0.00000000000E+00 0.  1.
         22    1    1    2    0    0  0.28409043662E+03  0.51936169429E+03  0.63017127261E+03  0.86461539340E+03  0.00000000000E+00 0. -1.
<mgrwt>
<rscale>  0 0.19839391E+04</rscale>
<asrwt>0</asrwt>
<pdfrwt beam="1">  1        1 0.12792330E+00 0.19839391E+04</pdfrwt>
<pdfrwt beam="2">  1       -1 0.18206242E+00 0.19839391E+04</pdfrwt>
<totfact> 0.38798868E+00</totfact>
</mgrwt>
</event>
<event>
 6    1  0.1780144E-005  0.2141090E+04  0.7818608E-02  0.8543356E-01
          2   -1    0    0  501    0  0.00000000000E+00  0.00000000000E+00  0.43830199230E+04  0.43830199230E+04  0.00000000000E+00 0. -1.
         -2   -1    0    0    0  501 -0.00000000000E+00 -0.00000000000E+00 -0.26147875922E+03  0.26147875922E+03  0.00000000000E+00 0.  1.
         23    2    1    2    0    0 -0.88411386017E+03 -0.59708518248E+03  0.21946300398E+04  0.24419650246E+04  0.92866233174E+02 0.  0.
         13    1    3    3    0    0 -0.32430558360E+03 -0.23470597386E+03  0.92331456314E+03  0.10063651366E+04  0.00000000000E+00 0. -1.
        -13    1    3    3    0    0 -0.55980827658E+03 -0.36237920862E+03  0.12713154766E+04  0.14355998880E+04  0.00000000000E+00 0.  1.
         22    1    1    2    0    0  0.88411386017E+03  0.59708518248E+03  0.19269111240E+04  0.22025336576E+04  0.00000000000E+00 0.  1.
<mgrwt>
<rscale>  0 0.21410900E+04</rscale>
<asrwt>0</asrwt>
<pdfrwt beam="1">  1        2 0.67431071E+00 0.21410900E+04</pdfrwt>
<pdfrwt beam="2">  1       -2 0.40227505E-01 0.21410900E+04</pdfrwt>
<totfact> 0.86530056E-01</totfact>
</mgrwt>
</event>
<event>
 6    1  0.1780144E-005  0.2361778E+04  0.7818608E-02  0.8453954E-01
         -1   -1    0    0    0  501 -0.00000000000E+00  0.00000000000E+00  0.15790859180E+04  0.15790859180E+04  0.00000000000E+00 0.  1.
          1   -1    0    0  501    0  0.00000000000E+00 -0.00000000000E+00 -0.88310508174E+03  0.88310508174E+03  0.00000000000E+00 0. -1.
         23    2    1    2    0    0 -0.84377941372E+03 -0.32095967157E+03 -0.44233779496E+03  0.10093496058E+04  0.90250163739E+02 0.  0.
         13    1    3    3    0    0 -0.18347604747E+03 -0.31260315587E+02 -0.85274846732E+02  0.20472534482E+03  0.00000000000E+00 0. -1.
        -13    1    3    3    0    0 -0.66030336625E+03 -0.28969935598E+03 -0.35706294822E+03  0.80462426097E+03  0.00000000000E+00 0.  1.
         22    1    1    2    0    0  0.84377941372E+03  0.32095967157E+03  0.11383186312E+04  0.14528413939E+04  0.00000000000E+00 0.  1.
<mgrwt>
<rscale>  0 0.23617780E+04</rscale>
<asrwt>0</asrwt>
<pdfrwt beam="1">  1        1 0.13586232E+00 0.23617780E+04</pdfrwt>
<pdfrwt beam="2">  1       -1 0.24293629E+00 0.23617780E+04</pdfrwt>
<totfact> 0.13100965E+00</totfact>
</mgrwt>
</event>
<event>
 6    1  0.1780144E-005  0.2470618E+04  0.7818608E-02  0.8413528E-01
         -1   -1    0    0    0  501 -0.00000000000E+00  0.00000000000E+00  0.78164413459E+03  0.78164413459E+03  0.00000000000E+00 0.  1.
          1   -1    0    0  501    0  0.00000000000E+00 -0.00000000000E+00 -0.19522797224E+04  0.19522797224E+04  0.00000000000E+00 0. -1.
         23    2    1    2    0    0 -0.40235496646E+02  0.38515659291E+03  0.70981962465E+03  0.81400815511E+03  0.93813009758E+02 0.  0.
         11    1    3    3    0    0 -0.43620683752E+02  0.36436354936E+03  0.60904523909E+03  0.71105531670E+03  0.00000000000E+00 0.  1.
        -11    1    3    3    0    0  0.33851871055E+01  0.20793043551E+02  0.10077438556E+03  0.10295283841E+03  0.00000000000E+00 0. -1.
         22    1    1    2    0    0  0.40235496646E+02 -0.38515659291E+03 -0.18804552124E+04  0.19199157018E+04  0.00000000000E+00 0. -1.
<mgrwt>
<rscale>  0 0.24706177E+04</rscale>
<asrwt>0</asrwt>
<pdfrwt beam="1">  1        1 0.30035073E+00 0.24706177E+04</pdfrwt>
<pdfrwt beam="2">  1       -1 0.12025294E+00 0.24706177E+04</pdfrwt>
<totfact> 0.17609949E+00</totfact>
</mgrwt>
</event>
<event>
 6    1  0.1780144E-005  0.2017168E+04  0.7818608E-02  0.8598636E-01
         -1   -1    0    0    0  501 -0.00000000000E+00  0.00000000000E+00  0.53643990721E+03  0.53643990721E+03  0.00000000000E+00 0.  1.
          1   -1    0    0  501    0  0.00000000000E+00 -0.00000000000E+00 -0.18962828867E+04  0.18962828867E+04  0.00000000000E+00 0. -1.
         23    2    1    2    0    0 -0.82203611326E+03  0.58001821414E+03 -0.65377796707E+03  0.12036205597E+04  0.95458479825E+02 0.  0.
         13    1    3    3    0    0 -0.52740610975E+03  0.33731380895E+03 -0.36218110787E+03  0.72326548737E+03  0.00000000000E+00 0. -1.
        -13    1    3    3    0    0 -0.29463000351E+03  0.24270440519E+03 -0.29159685920E+03  0.48035507238E+03  0.00000000000E+00 0.  1.
         22    1    1    2    0    0  0.82203611326E+03 -0.58001821414E+03 -0.70606501238E+03  0.12291022341E+04  0.00000000000E+00 0.  1.
<mgrwt>
<rscale>  0 0.20171681E+04</rscale>
<asrwt>0</asrwt>
<pdfrwt beam="1">  1        1 0.29173583E+00 0.20171681E+04</pdfrwt>
<pdfrwt beam="2">  1       -1 0.82529217E-01 0.20171681E+04</pdfrwt>
<totfact> 0.47363315E+00</totfact>
</mgrwt>
</event>
<event>
 6    1  0.1780144E-005  0.3001603E+04  0.7818608E-02  0.8243273E-01
         -1   -1    0    0    0  501 -0.00000000000E+00  0.00000000000E+00  0.13693997310E+04  0.13693997310E+04  0.00000000000E+00 0.  1.
          1   -1    0    0  501    0  0.00000000000E+00 -0.00000000000E+00 -0.16448121612E+04  0.16448121612E+04  0.00000000000E+00 0. -1.
         23    2    1    2    0    0  0.45887339289E+03  0.29103146995E+03 -0.15411142824E+04  0.16367993592E+04  0.93887186306E+02 0.  0.
         13    1    3    3    0    0  0.39498427222E+03  0.26535284613E+03 -0.12462695410E+04  0.13340211682E+04  0.00000000000E+00 0. -1.
        -13    1    3    3    0    0  0.63889120663E+02  0.25678623821E+02 -0.29484474139E+03  0.30277819107E+03  0.00000000000E+00 0.  1.
         22    1    1    2    0    0 -0.45887339289E+03 -0.29103146995E+03  0.12657018522E+04  0.13774125329E+04  0.00000000000E+00 0.  1.
<mgrwt>
<rscale>  0 0.30016031E+04</rscale>
<asrwt>0</asrwt>
<pdfrwt beam="1">  1        1 0.25304803E+00 0.30016031E+04</pdfrwt>
<pdfrwt beam="2">  1       -1 0.21067688E+00 0.30016031E+04</pdfrwt>
<totfact> 0.56276596E-01</totfact>
</mgrwt>
</event>
<event>
 6    1  0.1780144E-005  0.3088141E+04  0.7818608E-02  0.8219000E-01
          1   -1    0    0  501    0  0.00000000000E+00  0.00000000000E+00  0.23516037595E+04  0.23516037595E+04  0.00000000000E+00 0. -1.
         -1   -1    0    0    0  501 -0.00000000000E+00 -0.00000000000E+00 -0.10138418426E+04  0.10138418426E+04  0.00000000000E+00 0.  1.
         23    2    1    2    0    0  0.46236016049E+03  0.13880760609E+04  0.13621123252E+03  0.14722324297E+04  0.91557403701E+02 0.  0.
         13    1    3    3    0    0  0.26536484761E+03  0.65554676865E+03  0.75973547976E+02  0.71128900471E+03  0.00000000000E+00 0. -1.
        -13    1    3    3    0    0  0.19699531288E+03  0.73252929228E+03  0.60237684548E+02  0.76094342495E+03  0.00000000000E+00 0.  1.
         22    1    1    2    0    0 -0.46236016049E+03 -0.13880760609E+04  0.12015506844E+04  0.18932131724E+04  0.00000000000E+00 0. -1.
<mgrwt>
<rscale>  0 0.30881414E+04</rscale>
<asrwt>0</asrwt>
<pdfrwt beam="1">  1        1 0.36178519E+00 0.30881414E+04</pdfrwt>
<pdfrwt beam="2">  1       -1 0.15597567E+00 0.30881414E+04</pdfrwt>
<totfact> 0.45436751E-01</totfact>
</mgrwt>
</event>
<event>
 6    1  0.1780144E-005  0.3386608E+04  0.7818608E-02  0.8141201E-01
         -2   -1    0    0    0  501 -0.00000000000E+00  0.00000000000E+00  0.15407748670E+04  0.15407748670E+04  0.00000000000E+00 0.  1.
          2   -1    0    0  501    0  0.00000000000E+00 -0.00000000000E+00 -0.18609323531E+04  0.18609323531E+04  0.00000000000E+00 0. -1.
         23    2    1    2    0    0 -0.91116620276E+02  0.12407310385E+04 -0.13120246790E+04  0.18106332820E+04  0.96272400668E+02 0.  0.
         13    1    3    3    0    0  0.11651518813E+02  0.36826781215E+03 -0.35764872671E+03  0.51348763479E+03  0.00000000000E+00 0. -1.
        -13    1    3    3    0    0 -0.10276813909E+03  0.87246322638E+03 -0.95437595226E+03  0.12971456472E+04  0.00000000000E+00 0.  1.
         22    1    1    2    0    0  0.91116620276E+02 -0.12407310385E+04  0.99186719281E+03  0.15910739381E+04  0.00000000000E+00 0.  1.
<mgrwt>
<rscale>  0 0.33866076E+04</rscale>
<asrwt>0</asrwt>
<pdfrwt beam="1">  1        2 0.28629729E+00 0.33866076E+04</pdfrwt>
<pdfrwt beam="2">  1       -2 0.23704229E+00 0.33866076E+04</pdfrwt>
<totfact> 0.51158249E-01</totfact>
</mgrwt>
</event>
<event>
 6    1  0.1780144E-005  0.1081067E+04  0.7818608E-02  0.9223844E-01
          2   -1    0    0  501    0  0.00000000000E+00  0.00000000000E+00  0.78815976559E+03  0.78815976559E+03  0.00000000000E+00 0.  1.
         -2   -1    0    0    0  501 -0.00000000000E+00 -0.00000000000E+00 -0.37070732894E+03  0.37070732894E+03  0.00000000000E+00 0. -1.
         23    2    1    2    0    0 -0.19363202895E+03  0.45435849902E+03 -0.14429582886E+02  0.50277480904E+03  0.92947767439E+02 0.  0.
         11    1    3    3    0    0 -0.82903864698E+02  0.19251326191E+03  0.39808840353E+02  0.21335217497E+03  0.00000000000E+00 0. -1.
        -11    1    3    3    0    0 -0.11072816425E+03  0.26184523711E+03 -0.54238423239E+02  0.28942263407E+03  0.00000000000E+00 0.  1.
         22    1    1    2    0    0  0.19363202895E+03 -0.45435849902E+03  0.43188201954E+03  0.65609228548E+03  0.00000000000E+00 0.  1.
<mgrwt>
<rscale>  0 0.10810673E+04</rscale>
<asrwt>0</asrwt>
<pdfrwt beam="1">  1        2 0.12125535E+00 0.10810673E+04</pdfrwt>
<pdfrwt beam="2">  1       -2 0.57031897E-01 0.10810673E+04</pdfrwt>
<totfact> 0.10068006E+02</totfact>
</mgrwt>
</event>
<event>
 6    1  0.1780144E-005  0.1953864E+04  0.7818608E-02  0.8628500E-01
          1   -1    0    0  501    0  0.00000000000E+00  0.00000000000E+00  0.15473717250E+04  0.15473717250E+04  0.00000000000E+00 0. -1.
         -1   -1    0    0    0  501 -0.00000000000E+00 -0.00000000000E+00 -0.61678522188E+03  0.61678522188E+03  0.00000000000E+00 0.  1.
         23    2    1    2    0    0  0.15476054118E+03 -0.86366453252E+03  0.93702391376E+03  0.12867125383E+04  0.88023243787E+02 0.  0.
         11    1    3    3    0    0  0.11181333052E+03 -0.49323948625E+03  0.48500858567E+03  0.70072872058E+03  0.00000000000E+00 0.  1.
        -11    1    3    3    0    0  0.42947210661E+02 -0.37042504627E+03  0.45201532810E+03  0.58598381773E+03  0.00000000000E+00 0. -1.
         22    1    1    2    0    0 -0.15476054118E+03  0.86366453252E+03 -0.64374106528E+01  0.87744440855E+03  0.00000000000E+00 0.  1.
<mgrwt>
<rscale>  0 0.19538639E+04</rscale>
<asrwt>0</asrwt>
<pdfrwt beam="1">  1        1 0.23805719E+00 0.19538639E+04</pdfrwt>
<pdfrwt beam="2">  1       -1 0.94890034E-01 0.19538639E+04</pdfrwt>
<totfact> 0.60645473E+00</totfact>
</mgrwt>
</event>
<event>
 6    1  0.1780144E-005  0.1837686E+04  0.7818608E-02  0.8686511E-01
          2   -1    0    0  501    0  0.00000000000E+00  0.00000000000E+00  0.13927627723E+04  0.13927627723E+04  0.00000000000E+00 0.  1.
         -2   -1    0    0    0  501 -0.00000000000E+00 -0.00000000000E+00 -0.60618548435E+03  0.60618548435E+03  0.00000000000E+00 0. -1.
         23    2    1    2    0    0  0.44277552404E+03  0.70966078950E+03  0.80189159541E+03  0.11623461237E+04  0.91377129157E+02 0.  0.
         13    1    3    3    0    0  0.29420979810E+03  0.50650131364E+03  0.50740258623E+03  0.77495830245E+03  0.00000000000E+00 0. -1.
        -13    1    3    3    0    0  0.14856572594E+03  0.20315947586E+03  0.29448900918E+03  0.38738782129E+03  0.00000000000E+00 0.  1.
         22    1    1    2    0    0 -0.44277552404E+03 -0.70966078950E+03 -0.15314307438E+02  0.83660213295E+03  0.00000000000E+00 0. -1.
<mgrwt>
<rscale>  0 0.18376861E+04</rscale>
<asrwt>0</asrwt>
<pdfrwt beam="1">  1        2 0.21427119E+00 0.18376861E+04</pdfrwt>
<pdfrwt beam="2">  1       -2 0.93259306E-01 0.18376861E+04</pdfrwt>
<totfact> 0.13382715E+01</totfact>
</mgrwt>
</event>
<event>
 6    1  0.1780144E-005  0.2089462E+04  0.7818608E-02  0.8565900E-01
         -2   -1    0    0    0  501 -0.00000000000E+00  0.00000000000E+00  0.13252387965E+04  0.13252387965E+04  0.00000000000E+00 0. -1.
          2   -1    0    0  501    0  0.00000000000E+00 -0.00000000000E+00 -0.82359676826E+03  0.82359676826E+03  0.00000000000E+00 0.  1.
         23    2    1    2    0    0 -0.94587689183E+03 -0.29267292734E+03 -0.85130471709E+02  0.99790441843E+03  0.90694510436E+02 0.  0.
         13    1    3    3    0    0 -0.18157553483E+03 -0.75567738896E+02 -0.48279640858E+02  0.20251192985E+03  0.00000000000E+00 0. -1.
        -13    1    3    3    0    0 -0.76430135700E+03 -0.21710518844E+03 -0.36850830850E+02  0.79539248858E+03  0.00000000000E+00 0.  1.
         22    1    1    2    0    0  0.94587689183E+03  0.29267292734E+03  0.58677249994E+03  0.11509311463E+04  0.00000000000E+00 0. -1.
<mgrwt>
<rscale>  0 0.20894615E+04</rscale>
<asrwt>0</asrwt>
<pdfrwt beam="1">  1        2 0.12670720E+00 0.20894615E+04</pdfrwt>
<pdfrwt beam="2">  1       -2 0.20388289E+00 0.20894615E+04</pdfrwt>
<totfact> 0.38312837E+00</totfact>
</mgrwt>
</event>
<event>
 6    1  0.1780144E-005  0.1026078E+04  0.7818608E-02  0.9280396E-01
         -1   -1    0    0    0  501 -0.00000000000E+00  0.00000000000E+00  0.32609029512E+03  0.32609029512E+03  0.00000000000E+00 0.  1.
          1   -1    0    0  501    0  0.00000000000E+00 -0.00000000000E+00 -0.80716640737E+03  0.80716640737E+03  0.00000000000E+00 0. -1.
         23    2    1    2    0    0 -0.43212222983E+03  0.26873170757E+03 -0.25386532147E+03  0.57596764320E+03  0.91349725788E+02 0.  0.
         11    1    3    3    0    0 -0.27416029469E+03  0.20494771820E+03 -0.20395392489E+03  0.39845280505E+03  0.00000000000E+00 0.  1.
        -11    1    3    3    0    0 -0.15796193514E+03  0.63783989375E+02 -0.49911396588E+02  0.17751483815E+03  0.00000000000E+00 0. -1.
         22    1    1    2    0    0  0.43212222983E+03 -0.26873170757E+03 -0.22721079077E+03  0.55728905930E+03  0.00000000000E+00 0. -1.
<mgrwt>
<rscale>  0 0.10260782E+04</rscale>
<asrwt>0</asrwt>
<pdfrwt beam="1">  1        1 0.12417945E+00 0.10260782E+04</pdfrwt>
<pdfrwt beam="2">  1       -1 0.50167738E-01 0.10260782E+04</pdfrwt>
<totfact> 0.86985796E+01</totfact>
</mgrwt>
</event>
<event>
 6    1  0.1780144E-005  0.1089409E+04  0.7818608E-02  0.9215577E-01
         -4   -1    0    0    0  501 -0.00000000000E+00  0.00000000000E+00  0.12867344036E+04  0.12867344036E+04  0.00000000000E+00 0.  1.
          4   -1    0    0  501    0  0.00000000000E+00 -0.00000000000E+00 -0.23058601094E+03  0.23058601094E+03  0.00000000000E+00 0. -1.
         23    2    1    2    0    0 -0.32359548169E+03 -0.15451319685E+03  0.10950590485E+04  0.11566233076E+04  0.10017380965E+03 0.  0.
         11    1    3    3    0    0 -0.18958537316E+03 -0.35406386912E+02  0.58480928118E+03  0.61579064730E+03  0.00000000000E+00 0. -1.
        -11    1    3    3    0    0 -0.13401010853E+03 -0.11910680994E+03  0.51024976737E+03  0.54083266031E+03  0.00000000000E+00 0.  1.
         22    1    1    2    0    0  0.32359548169E+03  0.15451319685E+03 -0.38910655918E+02  0.36069710689E+03  0.00000000000E+00 0. -1.
<mgrwt>
<rscale>  0 0.10894089E+04</rscale>
<asrwt>0</asrwt>
<pdfrwt beam="1">  1        4 0.35474772E-01 0.10894089E+04</pdfrwt>
<pdfrwt beam="2">  1       -4 0.19795913E+00 0.10894089E+04</pdfrwt>
<totfact> 0.20874843E+00</totfact>
</mgrwt>
</event>
<event>
 6    1  0.1780144E-005  0.2206729E+04  0.7818608E-02  0.8515632E-01
          2   -1    0    0  501    0  0.00000000000E+00  0.00000000000E+00  0.72074989292E+03  0.72074989292E+03  0.00000000000E+00 0. -1.
         -2   -1    0    0    0  501 -0.00000000000E+00 -0.00000000000E+00 -0.16890930966E+04  0.16890930966E+04  0.00000000000E+00 0.  1.
         23    2    1    2    0    0  0.37314461165E+03  0.36930364262E+02 -0.16160443754E+04  0.16614329677E+04  0.90329009989E+02 0.  0.
         13    1    3    3    0    0  0.33600359429E+03  0.87959389338E+01 -0.13417696055E+04  0.13832286356E+04  0.00000000000E+00 0. -1.
        -13    1    3    3    0    0  0.37141017365E+02  0.28134425328E+02 -0.27427476983E+03  0.27820433214E+03  0.00000000000E+00 0.  1.
         22    1    1    2    0    0 -0.37314461165E+03 -0.36930364262E+02  0.64770117166E+03  0.74841002183E+03  0.00000000000E+00 0. -1.
<mgrwt>
<rscale>  0 0.22067294E+04</rscale>
<asrwt>0</asrwt>
<pdfrwt beam="1">  1        2 0.11088460E+00 0.22067294E+04</pdfrwt>
<pdfrwt beam="2">  1       -2 0.25986048E+00 0.22067294E+04</pdfrwt>
<totfact> 0.20157723E+00</totfact>
</mgrwt>
</event>
<event>
 6    1  0.1780144E-005  0.1210745E+04  0.7818608E-02  0.9103503E-01
         -2   -1    0    0    0  501 -0.00000000000E+00  0.00000000000E+00  0.23490094397E+03  0.23490094397E+03  0.00000000000E+00 0.  1.
          2   -1    0    0  501    0  0.00000000000E+00 -0.00000000000E+00 -0.15601304704E+04  0.15601304704E+04  0.00000000000E+00 0. -1.
         23    2    1    2    0    0  0.23210460066E+03 -0.49914037797E+03 -0.10268517598E+04  0.11688980786E+04  0.94257725822E+02 0.  0.
         11    1    3    3    0    0  0.15057309156E+03 -0.27054851596E+03 -0.66018675606E+03  0.72918811583E+03  0.00000000000E+00 0.  1.
        -11    1    3    3    0    0  0.81531509100E+02 -0.22859186201E+03 -0.36666500378E+03  0.43970996276E+03  0.00000000000E+00 0. -1.
         22    1    1    2    0    0 -0.23210460066E+03  0.49914037797E+03 -0.29837776658E+03  0.62613333577E+03  0.00000000000E+00 0.  1.
<mgrwt>
<rscale>  0 0.12107454E+04</rscale>
<asrwt>0</asrwt>
<pdfrwt beam="1">  1        2 0.24002007E+00 0.12107454E+04</pdfrwt>
<pdfrwt beam="2">  1       -2 0.36138606E-01 0.12107454E+04</pdfrwt>
<totfact> 0.83363010E+01</totfact>
</mgrwt>
</event>
<event>
 6    1  0.1780144E-005  0.4409917E+04  0.7818608E-02  0.7926600E-01
         -2   -1    0    0    0  501 -0.00000000000E+00  0.00000000000E+00  0.15631376852E+04  0.15631376852E+04  0.00000000000E+00 0.  1.
          2   -1    0    0  501    0  0.00000000000E+00 -0.00000000000E+00 -0.31103087914E+04  0.31103087914E+04  0.00000000000E+00 0. -1.
         23    2    1    2    0    0  0.18064238349E+04  0.16630693682E+03 -0.21005004020E+04  0.27768710423E+04  0.89920954156E+02 0.  0.
         13    1    3    3    0    0  0.10816937567E+04  0.55680793914E+02 -0.12436112941E+04  0.16491606304E+04  0.00000000000E+00 0.  1.
        -13    1    3    3    0    0  0.72473007820E+03  0.11062614291E+03 -0.85688910792E+03  0.11277104119E+04  0.00000000000E+00 0. -1.
         22    1    1    2    0    0 -0.18064238349E+04 -0.16630693682E+03  0.55332929585E+03  0.18965754343E+04  0.00000000000E+00 0.  1.
<mgrwt>
<rscale>  0 0.44099165E+04</rscale>
<asrwt>0</asrwt>
<pdfrwt beam="1">  1        2 0.47850904E+00 0.44099165E+04</pdfrwt>
<pdfrwt beam="2">  1       -2 0.24048272E+00 0.44099165E+04</pdfrwt>
<totfact> 0.83157209E-02</totfact>
</mgrwt>
</event>
<event>
 6    1  0.1780144E-005  0.1781038E+04  0.7818608E-02  0.8716449E-01
          2   -1    0    0  501    0  0.00000000000E+00  0.00000000000E+00  0.44508702213E+03  0.44508702213E+03  0.00000000000E+00 0. -1.
         -2   -1    0    0    0  501 -0.00000000000E+00 -0.00000000000E+00 -0.17817282080E+04  0.17817282080E+04  0.00000000000E+00 0.  1.
         23    2    1    2    0    0  0.55922523786E+03 -0.41434658491E+03 -0.13599488087E+04  0.15304251064E+04  0.91237520380E+02 0.  0.
         11    1    3    3    0    0  0.30017911372E+03 -0.22409855887E+03 -0.83020259213E+03  0.91080404500E+03  0.00000000000E+00 0. -1.
        -11    1    3    3    0    0  0.25904612413E+03 -0.19024802604E+03 -0.52974621655E+03  0.61962106145E+03  0.00000000000E+00 0.  1.
         22    1    1    2    0    0 -0.55922523786E+03  0.41434658491E+03  0.23307622814E+02  0.69639012368E+03  0.00000000000E+00 0. -1.
<mgrwt>
<rscale>  0 0.17810380E+04</rscale>
<asrwt>0</asrwt>
<pdfrwt beam="1">  1        2 0.68474925E-01 0.17810380E+04</pdfrwt>
<pdfrwt beam="2">  1       -2 0.27411204E+00 0.17810380E+04</pdfrwt>
<totfact> 0.30483728E+00</totfact>
</mgrwt>
</event>
<event>
 6    1  0.1780144E-005  0.8424697E+03  0.7818608E-02  0.9500500E-01
         -3   -1    0    0    0  501 -0.00000000000E+00  0.00000000000E+00  0.22458662591E+04  0.22458662591E+04  0.00000000000E+00 0.  1.
          3   -1    0    0  501    0  0.00000000000E+00 -0.00000000000E+00 -0.79006844953E+02  0.79006844953E+02  0.00000000000E+00 0. -1.
         23    2    1    2    0    0 -0.41024901713E+03  0.67844262610E+02  0.11570490111E+04  0.12327997777E+04  0.90143096149E+02 0.  0.
         13    1    3    3    0    0 -0.48561226721E+02  0.20343586155E+02  0.24314274694E+03  0.24877791226E+03  0.00000000000E+00 0.  1.
        -13    1    3    3    0    0 -0.36168779041E+03  0.47500676455E+02  0.91390626417E+03  0.98402186545E+03  0.00000000000E+00 0. -1.
         22    1    1    2    0    0  0.41024901713E+03 -0.67844262610E+02  0.10098104031E+04  0.10920733264E+04  0.00000000000E+00 0. -1.
<mgrwt>
<rscale>  0 0.84246972E+03</rscale>
<asrwt>0</asrwt>
<pdfrwt beam="1">  1        3 0.12154901E-01 0.84246972E+03</pdfrwt>
<pdfrwt beam="2">  1       -3 0.34551784E+00 0.84246972E+03</pdfrwt>
<totfact> 0.31741801E+00</totfact>
</mgrwt>
</event>
<event>
 6    1  0.1780144E-005  0.1394335E+04  0.7818608E-02  0.8957930E-01
          2   -1    0    0  501    0  0.00000000000E+00  0.00000000000E+00  0.44097150912E+03  0.44097150912E+03  0.00000000000E+00 0.  1.
         -2   -1    0    0    0  501 -0.00000000000E+00 -0.00000000000E+00 -0.11022080437E+04  0.11022080437E+04  0.00000000000E+00 0. -1.
         23    2    1    2    0    0 -0.56169755592E+02 -0.36483783500E+03  0.31855970739E+03  0.49615406934E+03  0.91798072218E+02 0.  0.
         11    1    3    3    0    0 -0.25065939469E+02 -0.38489504648E+02  0.74233739784E+02  0.87294853295E+02  0.00000000000E+00 0.  1.
        -11    1    3    3    0    0 -0.31103816123E+02 -0.32634833035E+03  0.24432596760E+03  0.40885921605E+03  0.00000000000E+00 0. -1.
         22    1    1    2    0    0  0.56169755592E+02  0.36483783500E+03 -0.97979624200E+03  0.10470254835E+04  0.00000000000E+00 0. -1.
<mgrwt>
<rscale>  0 0.13943347E+04</rscale>
<asrwt>0</asrwt>
<pdfrwt beam="1">  1        2 0.67841771E-01 0.13943347E+04</pdfrwt>
<pdfrwt beam="2">  1       -2 0.16957047E+00 0.13943347E+04</pdfrwt>
<totfact> 0.14859233E+01</totfact>
</mgrwt>
</event>
<event>
 6    1  0.1780144E-005  0.3098823E+04  0.7818608E-02  0.8216061E-01
         -1   -1    0    0    0  501 -0.00000000000E+00  0.00000000000E+00  0.13332649801E+04  0.13332649801E+04  0.00000000000E+00 0.  1.
          1   -1    0    0  501    0  0.00000000000E+00 -0.00000000000E+00 -0.18005993500E+04  0.18005993500E+04  0.00000000000E+00 0. -1.
         23    2    1    2    0    0  0.37653515730E+03 -0.13561765712E+04  0.41809436947E+03  0.14710421299E+04  0.90379363499E+02 0.  0.
         11    1    3    3    0    0  0.11403584423E+03 -0.37286929122E+03  0.75308375492E+02  0.39712344872E+03  0.00000000000E+00 0. -1.
        -11    1    3    3    0    0  0.26249931308E+03 -0.98330727996E+03  0.34278599398E+03  0.10739186812E+04  0.00000000000E+00 0.  1.
         22    1    1    2    0    0 -0.37653515730E+03  0.13561765712E+04 -0.88542873935E+03  0.16628222002E+04  0.00000000000E+00 0. -1.
<mgrwt>
<rscale>  0 0.30988230E+04</rscale>
<asrwt>0</asrwt>
<pdfrwt beam="1">  1        1 0.27701529E+00 0.30988230E+04</pdfrwt>
<pdfrwt beam="2">  1       -1 0.20511769E+00 0.30988230E+04</pdfrwt>
<totfact> 0.47677386E-01</totfact>
</mgrwt>
</event>
<event>
 6    1  0.1780144E-005  0.3210848E+04  0.7818608E-02  0.8185958E-01
          2   -1    0    0  501    0  0.00000000000E+00  0.00000000000E+00  0.41913045155E+04  0.41913045155E+04  0.00000000000E+00 0.  1.
         -2   -1    0    0    0  501 -0.00000000000E+00 -0.00000000000E+00 -0.61493668230E+03  0.61493668230E+03  0.00000000000E+00 0. -1.
         23    2    1    2    0    0 -0.15048756018E+04  0.77657210827E+02  0.96579903995E+03  0.17919833051E+04  0.88063392401E+02 0.  0.
         11    1    3    3    0    0 -0.67267503530E+03  0.70369241966E+02  0.46332553258E+03  0.81982564151E+03  0.00000000000E+00 0.  1.
        -11    1    3    3    0    0 -0.83220056648E+03  0.72879688611E+01  0.50247350737E+03  0.97215766363E+03  0.00000000000E+00 0. -1.
         22    1    1    2    0    0  0.15048756018E+04 -0.77657210827E+02  0.26105687932E+04  0.30142578927E+04  0.00000000000E+00 0.  1.
<mgrwt>
<rscale>  0 0.32108484E+04</rscale>
<asrwt>0</asrwt>
<pdfrwt beam="1">  1        2 0.64481606E+00 0.32108484E+04</pdfrwt>
<pdfrwt beam="2">  1       -2 0.94605646E-01 0.32108484E+04</pdfrwt>
<totfact> 0.18695394E-01</totfact>
</mgrwt>
</event>
<event>
 6    1  0.1780144E-005  0.1954973E+04  0.7818608E-02  0.8627966E-01
          1   -1    0    0  501    0  0.00000000000E+00  0.00000000000E+00  0.21581590584E+04  0.21581590584E+04  0.00000000000E+00 0. -1.
         -1   -1    0    0    0  501 -0.00000000000E+00 -0.00000000000E+00 -0.44272917436E+03  0.44272917436E+03  0.00000000000E+00 0.  1.
         23    2    1    2    0    0 -0.27102419388E+03 -0.54222836858E+02  0.21040654152E+04  0.21239901243E+04  0.88592026889E+02 0.  0.
         13    1    3    3    0    0 -0.13342516349E+03 -0.61828809733E+02  0.88145538896E+03  0.89363789013E+03  0.00000000000E+00 0. -1.
        -13    1    3    3    0    0 -0.13759903039E+03  0.76059728747E+01  0.12226100262E+04  0.12303522342E+04  0.00000000000E+00 0.  1.
         22    1    1    2    0    0  0.27102419388E+03  0.54222836858E+02 -0.38863553117E+03  0.47689810840E+03  0.00000000000E+00 0.  1.
<mgrwt>
<rscale>  0 0.19549731E+04</rscale>
<asrwt>0</asrwt>
<pdfrwt beam="1">  1        1 0.33202447E+00 0.19549731E+04</pdfrwt>
<pdfrwt beam="2">  1       -1 0.68112182E-01 0.19549731E+04</pdfrwt>
<totfact> 0.47280221E+00</totfact>
</mgrwt>
</event>
<event>
 6    1  0.1780144E-005  0.2527813E+04  0.7818608E-02  0.8393144E-01
         -2   -1    0    0    0  501 -0.00000000000E+00  0.00000000000E+00  0.13545356997E+04  0.13545356997E+04  0.00000000000E+00 0.  1.
          2   -1    0    0  501    0  0.00000000000E+00 -0.00000000000E+00 -0.11793407337E+04  0.11793407337E+04  0.00000000000E+00 0. -1.
         23    2    1    2    0    0 -0.10480774893E+04  0.64173931645E+03 -0.20147666664E+03  0.12485059450E+04  0.88760766189E+02 0.  0.
         11    1    3    3    0    0 -0.94702455923E+03  0.60694492415E+03 -0.17454774859E+03  0.11382901973E+04  0.00000000000E+00 0.  1.
        -11    1    3    3    0    0 -0.10105293003E+03  0.34794392302E+02 -0.26928918050E+02  0.11021574766E+03  0.00000000000E+00 0. -1.
         22    1    1    2    0    0  0.10480774893E+04 -0.64173931645E+03  0.37667163265E+03  0.12853704885E+04  0.00000000000E+00 0.  1.
<mgrwt>
<rscale>  0 0.25278126E+04</rscale>
<asrwt>0</asrwt>
<pdfrwt beam="1">  1        2 0.18143704E+00 0.25278126E+04</pdfrwt>
<pdfrwt beam="2">  1       -2 0.20839011E+00 0.25278126E+04</pdfrwt>
<totfact> 0.20338037E+00</totfact>
</mgrwt>
</event>
<event>
 6    1  0.1780144E-005  0.3757310E+04  0.7818608E-02  0.8055379E-01
          2   -1    0    0  501    0  0.00000000000E+00  0.00000000000E+00  0.35991894780E+04  0.35991894780E+04  0.00000000000E+00 0. -1.
         -2   -1    0    0    0  501 -0.00000000000E+00 -0.00000000000E+00 -0.98059412616E+03  0.98059412616E+03  0.00000000000E+00 0.  1.
         23    2    1    2    0    0  0.11427814183E+04 -0.40443407479E+03  0.30577157015E+04  0.32904648025E+04  0.89537781201E+02 0.  0.
         13    1    3    3    0    0  0.45208770876E+03 -0.18065214399E+03  0.13351461096E+04  0.14211381452E+04  0.00000000000E+00 0. -1.
        -13    1    3    3    0    0  0.69069370952E+03 -0.22378193080E+03  0.17225695919E+04  0.18693266573E+04  0.00000000000E+00 0.  1.
         22    1    1    2    0    0 -0.11427814183E+04  0.40443407479E+03 -0.43912034967E+03  0.12893188017E+04  0.00000000000E+00 0.  1.
<mgrwt>
<rscale>  0 0.37573097E+04</rscale>
<asrwt>0</asrwt>
<pdfrwt beam="1">  1        2 0.55372145E+00 0.37573097E+04</pdfrwt>
<pdfrwt beam="2">  1       -2 0.15086064E+00 0.37573097E+04</pdfrwt>
<totfact> 0.16381754E-01</totfact>
</mgrwt>
</event>
<event>
 6    1  0.1780144E-005  0.1869330E+04  0.7818608E-02  0.8670275E-01
         -2   -1    0    0    0  501 -0.00000000000E+00  0.00000000000E+00  0.61106211058E+03  0.61106211058E+03  0.00000000000E+00 0. -1.
          2   -1    0    0  501    0  0.00000000000E+00 -0.00000000000E+00 -0.14296400058E+04  0.14296400058E+04  0.00000000000E+00 0.  1.
         23    2    1    2    0    0 -0.92708362319E+03  0.94202096929E+02 -0.37434093489E+03  0.10083724421E+04  0.91245640932E+02 0.  0.
         13    1    3    3    0    0 -0.60326751912E+03  0.81964502216E+02 -0.28511697928E+03  0.67226599730E+03  0.00000000000E+00 0.  1.
        -13    1    3    3    0    0 -0.32381610407E+03  0.12237594713E+02 -0.89223955606E+02  0.33610644479E+03  0.00000000000E+00 0. -1.
         22    1    1    2    0    0  0.92708362319E+03 -0.94202096929E+02 -0.44423696031E+03  0.10323296743E+04  0.00000000000E+00 0.  1.
<mgrwt>
<rscale>  0 0.18693302E+04</rscale>
<asrwt>0</asrwt>
<pdfrwt beam="1">  1        2 0.21994462E+00 0.18693302E+04</pdfrwt>
<pdfrwt beam="2">  1       -2 0.94009556E-01 0.18693302E+04</pdfrwt>
<totfact> 0.12480665E+01</totfact>
</mgrwt>
</event>
<event>
 6    1  0.1780144E-005  0.1805169E+04  0.7818608E-02  0.8703556E-01
         -2   -1    0    0    0  501 -0.00000000000E+00  0.00000000000E+00  0.18139954567E+04  0.18139954567E+04  0.00000000000E+00 0. -1.
          2   -1    0    0  501    0  0.00000000000E+00 -0.00000000000E+00 -0.44909622969E+03  0.44909622969E+03  0.00000000000E+00 0.  1.
         23    2    1    2    0    0  0.34444233206E+03 -0.79737850981E+03  0.98067592815E+03  0.13133124745E+04  0.92797475709E+02 0.  0.
         13    1    3    3    0    0  0.14640904789E+03 -0.30207326187E+03  0.31560932174E+03  0.46075276322E+03  0.00000000000E+00 0. -1.
        -13    1    3    3    0    0  0.19803328417E+03 -0.49530524794E+03  0.66506660641E+03  0.85255971124E+03  0.00000000000E+00 0.  1.
         22    1    1    2    0    0 -0.34444233206E+03  0.79737850981E+03  0.38422329887E+03  0.94977921193E+03  0.00000000000E+00 0.  1.
<mgrwt>
<rscale>  0 0.18051687E+04</rscale>
<asrwt>0</asrwt>
<pdfrwt beam="1">  1        2 0.69091729E-01 0.18051687E+04</pdfrwt>
<pdfrwt beam="2">  1       -2 0.27907622E+00 0.18051687E+04</pdfrwt>
<totfact> 0.28088895E+00</totfact>
</mgrwt>
</event>
<event>
 6    1  0.1780144E-005  0.1194607E+04  0.7818608E-02  0.9117590E-01
          1   -1    0    0  501    0  0.00000000000E+00  0.00000000000E+00  0.31758289255E+04  0.31758289255E+04  0.00000000000E+00 0. -1.
         -1   -1    0    0    0  501 -0.00000000000E+00 -0.00000000000E+00 -0.11233970510E+03  0.11233970510E+03  0.00000000000E+00 0.  1.
         23    2    1    2    0    0 -0.14719812322E+03 -0.81015464755E+02  0.31083868543E+04  0.31142531611E+04  0.90956705029E+02 0.  0.
         11    1    3    3    0    0 -0.40478044388E+02  0.18388763819E+02  0.85012175869E+03  0.85128351523E+03  0.00000000000E+00 0. -1.
        -11    1    3    3    0    0 -0.10672007883E+03 -0.99404228574E+02  0.22582650956E+04  0.22629696459E+04  0.00000000000E+00 0.  1.
         22    1    1    2    0    0  0.14719812322E+03  0.81015464755E+02 -0.44897633911E+02  0.17391546952E+03  0.00000000000E+00 0.  1.
<mgrwt>
<rscale>  0 0.11946074E+04</rscale>
<asrwt>0</asrwt>
<pdfrwt beam="1">  1        1 0.48858900E+00 0.11946074E+04</pdfrwt>
<pdfrwt beam="2">  1       -1 0.17283034E-01 0.11946074E+04</pdfrwt>
<totfact> 0.11632227E+01</totfact>
</mgrwt>
</event>
<event>
 6    1  0.1780144E-005  0.3365080E+04  0.7818608E-02  0.8146531E-01
          2   -1    0    0  501    0  0.00000000000E+00  0.00000000000E+00  0.17493578349E+04  0.17493578349E+04  0.00000000000E+00 0. -1.
         -2   -1    0    0    0  501 -0.00000000000E+00 -0.00000000000E+00 -0.16182738624E+04  0.16182738624E+04  0.00000000000E+00 0.  1.
         23    2    1    2    0    0 -0.12499248728E+04 -0.94409662928E+03 -0.54539354554E+03  0.16613924218E+04  0.95603486372E+02 0.  0.
         11    1    3    3    0    0 -0.49259373624E+03 -0.42937802254E+03 -0.23918811174E+03  0.69586279396E+03  0.00000000000E+00 0. -1.
        -11    1    3    3    0    0 -0.75733113654E+03 -0.51471860674E+03 -0.30620543381E+03  0.96552962781E+03  0.00000000000E+00 0.  1.
         22    1    1    2    0    0  0.12499248728E+04  0.94409662928E+03  0.67647751806E+03  0.17062392756E+04  0.00000000000E+00 0. -1.
<mgrwt>
<rscale>  0 0.33650795E+04</rscale>
<asrwt>0</asrwt>
<pdfrwt beam="1">  1        2 0.26913197E+00 0.33650795E+04</pdfrwt>
<pdfrwt beam="2">  1       -2 0.24896521E+00 0.33650795E+04</pdfrwt>
<totfact> 0.49879159E-01</totfact>
</mgrwt>
</event>
<event>
 6    1  0.1780144E-005  0.1831682E+04  0.7818608E-02  0.8689630E-01
          2   -1    0    0  501    0  0.00000000000E+00  0.00000000000E+00  0.15592806358E+04  0.15592806358E+04  0.00000000000E+00 0. -1.
         -2   -1    0    0    0  501 -0.00000000000E+00 -0.00000000000E+00 -0.53791794129E+03  0.53791794129E+03  0.00000000000E+00 0.  1.
         23    2    1    2    0    0 -0.51524772963E+03  0.52530791999E+03  0.11316581777E+04  0.13531597829E+04  0.94670655508E+02 0.  0.
         13    1    3    3    0    0 -0.46370981706E+03  0.47075715376E+03  0.95600322480E+03  0.11621451106E+04  0.00000000000E+00 0. -1.
        -13    1    3    3    0    0 -0.51537912570E+02  0.54550766232E+02  0.17565495294E+03  0.19101467227E+03  0.00000000000E+00 0.  1.
         22    1    1    2    0    0  0.51524772963E+03 -0.52530791999E+03 -0.11029548323E+03  0.74403879423E+03  0.00000000000E+00 0.  1.
<mgrwt>
<rscale>  0 0.18316823E+04</rscale>
<asrwt>0</asrwt>
<pdfrwt beam="1">  1        2 0.23988933E+00 0.18316823E+04</pdfrwt>
<pdfrwt beam="2">  1       -2 0.82756607E-01 0.18316823E+04</pdfrwt>
<totfact> 0.14172392E+01</totfact>
</mgrwt>
</event>
<event>
 6    1  0.1780144E-005  0.2415964E+04  0.7818608E-02  0.8433551E-01
         -2   -1    0    0    0  501 -0.00000000000E+00  0.00000000000E+00  0.81696763954E+03  0.81696763954E+03  0.00000000000E+00 0.  1.
          2   -1    0    0  501    0  0.00000000000E+00 -0.00000000000E+00 -0.17861424426E+04  0.17861424426E+04  0.00000000000E+00 0. -1.
         23    2    1    2    0    0 -0.15255414109E+03 -0.11847902733E+04 -0.66595495322E+03  0.13706560120E+04  0.90560176958E+02 0.  0.
         11    1    3    3    0    0 -0.58324445204E+02 -0.54469090860E+03 -0.35533896767E+03  0.65295919380E+03  0.00000000000E+00 0.  1.
        -11    1    3    3    0    0 -0.94229695883E+02 -0.64009936474E+03 -0.31061598555E+03  0.71769681817E+03  0.00000000000E+00 0. -1.
         22    1    1    2    0    0  0.15255414109E+03  0.11847902733E+04 -0.30321984984E+03  0.12324540702E+04  0.00000000000E+00 0.  1.
<mgrwt>
<rscale>  0 0.24159641E+04</rscale>
<asrwt>0</asrwt>
<pdfrwt beam="1">  1        2 0.27479114E+00 0.24159641E+04</pdfrwt>
<pdfrwt beam="2">  1       -2 0.12568733E+00 0.24159641E+04</pdfrwt>
<totfact> 0.37305839E+00</totfact>
</mgrwt>
</event>
<event>
 6    1  0.1780144E-005  0.6399871E+03  0.7818608E-02  0.9825751E-01
          2   -1    0    0  501    0  0.00000000000E+00  0.00000000000E+00  0.81844852163E+03  0.81844852163E+03  0.00000000000E+00 0. -1.
         -2   -1    0    0    0  501 -0.00000000000E+00 -0.00000000000E+00 -0.12510972468E+03  0.12510972468E+03  0.00000000000E+00 0.  1.
         23    2    1    2    0    0 -0.21950515728E+03 -0.22009945332E+03  0.29932938743E+03  0.44169203086E+03  0.94167321943E+02 0.  0.
         13    1    3    3    0    0 -0.13134975268E+03 -0.65392885587E+02  0.13695825268E+03  0.20071509657E+03  0.00000000000E+00 0.  1.
        -13    1    3    3    0    0 -0.88155404604E+02 -0.15470656773E+03  0.16237113475E+03  0.24097693429E+03  0.00000000000E+00 0. -1.
         22    1    1    2    0    0  0.21950515728E+03  0.22009945332E+03  0.39400940952E+03  0.50186621545E+03  0.00000000000E+00 0. -1.
<mgrwt>
<rscale>  0 0.63998709E+03</rscale>
<asrwt>0</asrwt>
<pdfrwt beam="1">  1        2 0.12591515E+00 0.63998709E+03</pdfrwt>
<pdfrwt beam="2">  1       -2 0.19247650E-01 0.63998709E+03</pdfrwt>
<totfact> 0.76703302E+02</totfact>
</mgrwt>
</event>
<event>
 6    1  0.1780144E-005  0.1218285E+04  0.7818608E-02  0.9097001E-01
          3   -1    0    0  501    0  0.00000000000E+00  0.00000000000E+00  0.20594737591E+04  0.20594737591E+04  0.00000000000E+00 0. -1.
         -3   -1    0    0    0  501 -0.00000000000E+00 -0.00000000000E+00 -0.18016961238E+03  0.18016961238E+03  0.00000000000E+00 0.  1.
         23    2    1    2    0    0 -0.42520706412E+03  0.34859517195E+03  0.14139157512E+04  0.15192920683E+04  0.82286062646E+02 0.  0.
         11    1    3    3    0    0 -0.35082591839E+03  0.24522152068E+03  0.11179235453E+04  0.11970653584E+04  0.00000000000E+00 0.  1.
        -11    1    3    3    0    0 -0.74381145734E+02  0.10337365128E+03  0.29599220592E+03  0.32222670992E+03  0.00000000000E+00 0. -1.
         22    1    1    2    0    0  0.42520706412E+03 -0.34859517195E+03  0.46538839556E+03  0.72035130319E+03  0.00000000000E+00 0. -1.
<mgrwt>
<rscale>  0 0.12182850E+04</rscale>
<asrwt>0</asrwt>
<pdfrwt beam="1">  1        3 0.31684210E+00 0.12182850E+04</pdfrwt>
<pdfrwt beam="2">  1       -3 0.27718403E-01 0.12182850E+04</pdfrwt>
<totfact> 0.10282806E+00</totfact>
</mgrwt>
</event>
<event>
 6    1  0.1780144E-005  0.1109196E+04  0.7818608E-02  0.9196275E-01
          2   -1    0    0  501    0  0.00000000000E+00  0.00000000000E+00  0.41839286786E+03  0.41839286786E+03  0.00000000000E+00 0.  1.
         -2   -1    0    0    0  501 -0.00000000000E+00 -0.00000000000E+00 -0.73514439023E+03  0.73514439023E+03  0.00000000000E+00 0. -1.
         23    2    1    2    0    0 -0.40298993561E+03  0.36298276845E+03 -0.59374533891E+02  0.55320377361E+03  0.91387643919E+02 0.  0.
         13    1    3    3    0    0 -0.21487519509E+03  0.17565346543E+03 -0.74289745839E+02  0.28730550938E+03  0.00000000000E+00 0. -1.
        -13    1    3    3    0    0 -0.18811474053E+03  0.18732930302E+03  0.14915211948E+02  0.26589826423E+03  0.00000000000E+00 0.  1.
         22    1    1    2    0    0  0.40298993561E+03 -0.36298276845E+03 -0.25737698848E+03  0.60033348449E+03  0.00000000000E+00 0. -1.
<mgrwt>
<rscale>  0 0.11091964E+04</rscale>
<asrwt>0</asrwt>
<pdfrwt beam="1">  1        2 0.64368134E-01 0.11091964E+04</pdfrwt>
<pdfrwt beam="2">  1       -2 0.11309914E+00 0.11091964E+04</pdfrwt>
<totfact> 0.46046592E+01</totfact>
</mgrwt>
</event>
<event>
 6    1  0.1780144E-005  0.1867893E+04  0.7818608E-02  0.8671005E-01
          2   -1    0    0  501    0  0.00000000000E+00  0.00000000000E+00  0.94834804820E+03  0.94834804820E+03  0.00000000000E+00 0.  1.
         -2   -1    0    0    0  501 -0.00000000000E+00 -0.00000000000E+00 -0.91976340735E+03  0.91976340735E+03  0.00000000000E+00 0. -1.
         23    2    1    2    0    0  0.45412670134E+03  0.47904129105E+03  0.67217777779E+03  0.94619836566E+03  0.88072486215E+02 0.  0.
         11    1    3    3    0    0  0.60669037421E+02  0.92664095555E+02  0.15239420462E+03  0.18839150806E+03  0.00000000000E+00 0. -1.
        -11    1    3    3    0    0  0.39345766392E+03  0.38637719549E+03  0.51978357317E+03  0.75780685760E+03  0.00000000000E+00 0.  1.
         22    1    1    2    0    0 -0.45412670134E+03 -0.47904129105E+03 -0.64359313694E+03  0.92191308989E+03  0.00000000000E+00 0. -1.
<mgrwt>
<rscale>  0 0.18678928E+04</rscale>
<asrwt>0</asrwt>
<pdfrwt beam="1">  1        2 0.14589970E+00 0.18678928E+04</pdfrwt>
<pdfrwt beam="2">  1       -2 0.14150206E+00 0.18678928E+04</pdfrwt>
<totfact> 0.89263155E+00</totfact>
</mgrwt>
</event>
<event>
 6    1  0.2561203E-005  0.3893378E+04  0.7818608E-02  0.8026408E-01
         -2   -1    0    0    0  501 -0.00000000000E+00  0.00000000000E+00  0.16789203561E+04  0.16789203561E+04  0.00000000000E+00 0.  1.
          2   -1    0    0  501    0  0.00000000000E+00 -0.00000000000E+00 -0.22571632798E+04  0.22571632798E+04  0.00000000000E+00 0. -1.
         23    2    1    2    0    0 -0.13729287599E+04 -0.36755087281E+03 -0.16325253451E+04  0.21664682968E+04  0.91754317728E+02 0.  0.
         11    1    3    3    0    0 -0.40727479178E+03 -0.77494609278E+02 -0.43303818846E+03  0.59949999429E+03  0.00000000000E+00 0.  1.
        -11    1    3    3    0    0 -0.96565396810E+03 -0.29005626353E+03 -0.11994871567E+04  0.15669683025E+04  0.00000000000E+00 0. -1.
         22    1    1    2    0    0  0.13729287599E+04  0.36755087281E+03  0.10542824215E+04  0.17696153390E+04  0.00000000000E+00 0.  1.
<mgrwt>
<rscale>  0 0.38933776E+04</rscale>
<asrwt>0</asrwt>
<pdfrwt beam="1">  1        2 0.34725589E+00 0.38933776E+04</pdfrwt>
<pdfrwt beam="2">  1       -2 0.25829544E+00 0.38933776E+04</pdfrwt>
<totfact> 0.21803052E-01</totfact>
</mgrwt>
</event>
<event>
 6    1  0.1780144E-005  0.7931461E+03  0.7818608E-02  0.9569991E-01
         -2   -1    0    0    0  501 -0.00000000000E+00  0.00000000000E+00  0.96871850476E+02  0.96871850476E+02  0.00000000000E+00 0. -1.
          2   -1    0    0  501    0  0.00000000000E+00 -0.00000000000E+00 -0.16234869595E+04  0.16234869595E+04  0.00000000000E+00 0.  1.
         23    2    1    2    0    0 -0.29830054708E+03  0.16400111631E+03 -0.35566878518E+03  0.50093481651E+03  0.92497692402E+02 0.  0.
         13    1    3    3    0    0 -0.24546767604E+03  0.89408983486E+02 -0.25812826476E+03  0.36725814814E+03  0.00000000000E+00 0.  1.
        -13    1    3    3    0    0 -0.52832871036E+02  0.74592132823E+02 -0.97540520427E+02  0.13367666837E+03  0.00000000000E+00 0. -1.
         22    1    1    2    0    0  0.29830054708E+03 -0.16400111631E+03 -0.11709463239E+04  0.12194239935E+04  0.00000000000E+00 0. -1.
<mgrwt>
<rscale>  0 0.79314611E+03</rscale>
<asrwt>0</asrwt>
<pdfrwt beam="1">  1        2 0.24976721E+00 0.79314611E+03</pdfrwt>
<pdfrwt beam="2">  1       -2 0.14903362E-01 0.79314611E+03</pdfrwt>
<totfact> 0.38793412E+02</totfact>
</mgrwt>
</event>
<event>
 6    1  0.1780144E-005  0.2035647E+04  0.7818608E-02  0.8590134E-01
         -2   -1    0    0    0  501 -0.00000000000E+00  0.00000000000E+00  0.62064182505E+03  0.62064182505E+03  0.00000000000E+00 0. -1.
          2   -1    0    0  501    0  0.00000000000E+00 -0.00000000000E+00 -0.16691828955E+04  0.16691828955E+04  0.00000000000E+00 0.  1.
         23    2    1    2    0    0  0.22421246760E+03 -0.58852972814E+03 -0.14218097666E+04  0.15577263726E+04  0.91268659374E+02 0.  0.
         11    1    3    3    0    0  0.58423803156E+02 -0.25050549253E+03 -0.64798875287E+03  0.69717699791E+03  0.00000000000E+00 0. -1.
        -11    1    3    3    0    0  0.16578866444E+03 -0.33802423561E+03 -0.77382101368E+03  0.86054937472E+03  0.00000000000E+00 0.  1.
         22    1    1    2    0    0 -0.22421246760E+03  0.58852972814E+03  0.37326869610E+03  0.73209834792E+03  0.00000000000E+00 0. -1.
<mgrwt>
<rscale>  0 0.20356470E+04</rscale>
<asrwt>0</asrwt>
<pdfrwt beam="1">  1        2 0.25679737E+00 0.20356470E+04</pdfrwt>
<pdfrwt beam="2">  1       -2 0.95483359E-01 0.20356470E+04</pdfrwt>
<totfact> 0.87049399E+00</totfact>
</mgrwt>
</event>
<event>
 6    1  0.1780144E-005  0.3738495E+04  0.7818608E-02  0.8059484E-01
          2   -1    0    0  501    0  0.00000000000E+00  0.00000000000E+00  0.29440703567E+04  0.29440703567E+04  0.00000000000E+00 0. -1.
         -2   -1    0    0    0  501 -0.00000000000E+00 -0.00000000000E+00 -0.11868214928E+04  0.11868214928E+04  0.00000000000E+00 0.  1.
         23    2    1    2    0    0 -0.50027079604E+03 -0.51833624134E+03  0.27836817735E+04  0.28768951005E+04  0.93262399840E+02 0.  0.
         11    1    3    3    0    0 -0.62208432069E+02 -0.92756124781E+02  0.54966777521E+03  0.56089950152E+03  0.00000000000E+00 0.  1.
        -11    1    3    3    0    0 -0.43806236397E+03 -0.42558011656E+03  0.22340139982E+04  0.23159955990E+04  0.00000000000E+00 0. -1.
         22    1    1    2    0    0  0.50027079604E+03  0.51833624134E+03 -0.10264329096E+04  0.12539967490E+04  0.00000000000E+00 0.  1.
<mgrwt>
<rscale>  0 0.37384949E+04</rscale>
<asrwt>0</asrwt>
<pdfrwt beam="1">  1        2 0.45293390E+00 0.37384949E+04</pdfrwt>
<pdfrwt beam="2">  1       -2 0.18258792E+00 0.37384949E+04</pdfrwt>
<totfact> 0.26447920E-01</totfact>
</mgrwt>
</event>
<event>
 6    1  0.1780144E-005  0.3152420E+04  0.7818608E-02  0.8201497E-01
         -1   -1    0    0    0  501 -0.00000000000E+00  0.00000000000E+00  0.85335201971E+03  0.85335201971E+03  0.00000000000E+00 0.  1.
          1   -1    0    0  501    0  0.00000000000E+00 -0.00000000000E+00 -0.29113870755E+04  0.29113870755E+04  0.00000000000E+00 0. -1.
         23    2    1    2    0    0  0.15113939893E+02 -0.15658714155E+04 -0.12300972089E+04  0.19933941826E+04  0.91101606842E+02 0.  0.
         13    1    3    3    0    0  0.29401957472E+01 -0.53718295227E+03 -0.47752427364E+03  0.71875141800E+03  0.00000000000E+00 0. -1.
        -13    1    3    3    0    0  0.12173744145E+02 -0.10286884633E+04 -0.75257293525E+03  0.12746427646E+04  0.00000000000E+00 0.  1.
         22    1    1    2    0    0 -0.15113939893E+02  0.15658714155E+04 -0.82793784694E+03  0.17713449126E+04  0.00000000000E+00 0.  1.
<mgrwt>
<rscale>  0 0.31524200E+04</rscale>
<asrwt>0</asrwt>
<pdfrwt beam="1">  1        1 0.44790569E+00 0.31524200E+04</pdfrwt>
<pdfrwt beam="2">  1       -1 0.13128493E+00 0.31524200E+04</pdfrwt>
<totfact> 0.28785434E-01</totfact>
</mgrwt>
</event>
<event>
 6    1  0.1780144E-005  0.3007222E+04  0.7818608E-02  0.8241671E-01
          2   -1    0    0  501    0  0.00000000000E+00  0.00000000000E+00  0.15310705064E+04  0.15310705064E+04  0.00000000000E+00 0. -1.
         -2   -1    0    0    0  501 -0.00000000000E+00 -0.00000000000E+00 -0.14766444648E+04  0.14766444648E+04  0.00000000000E+00 0.  1.
         23    2    1    2    0    0 -0.46878040166E+03  0.23598417123E+03  0.14350512607E+04  0.15307012306E+04  0.90722338795E+02 0.  0.
         11    1    3    3    0    0 -0.22502987153E+03  0.16394475397E+03  0.74356439105E+03  0.79398005584E+03  0.00000000000E+00 0.  1.
        -11    1    3    3    0    0 -0.24375053013E+03  0.72039417263E+02  0.69148686960E+03  0.73672117481E+03  0.00000000000E+00 0. -1.
         22    1    1    2    0    0  0.46878040166E+03 -0.23598417123E+03 -0.13806252191E+04  0.14770137405E+04  0.00000000000E+00 0.  1.
<mgrwt>
<rscale>  0 0.30072225E+04</rscale>
<asrwt>0</asrwt>
<pdfrwt beam="1">  1        2 0.23554931E+00 0.30072225E+04</pdfrwt>
<pdfrwt beam="2">  1       -2 0.22717607E+00 0.30072225E+04</pdfrwt>
<totfact> 0.92891095E-01</totfact>
</mgrwt>
</event>
<event>
 6    1  0.1780144E-005  0.3336334E+04  0.7818608E-02  0.8153711E-01
          1   -1    0    0  501    0  0.00000000000E+00  0.00000000000E+00  0.25460879077E+04  0.25460879077E+04  0.00000000000E+00 0.  1.
         -1   -1    0    0    0  501 -0.00000000000E+00 -0.00000000000E+00 -0.10929637877E+04  0.10929637877E+04  0.00000000000E+00 0. -1.
         23    2    1    2    0    0  0.14547887341E+04  0.55907930554E+02  0.16126815203E+04  0.21744717141E+04  0.89719517071E+02 0.  0.
         13    1    3    3    0    0  0.50470029788E+03 -0.16511964284E+02  0.52441762119E+03  0.72801708569E+03  0.00000000000E+00 0.  1.
        -13    1    3    3    0    0  0.95008843627E+03  0.72419894838E+02  0.10882638991E+04  0.14464546284E+04  0.00000000000E+00 0. -1.
         22    1    1    2    0    0 -0.14547887341E+04 -0.55907930554E+02 -0.15955740023E+03  0.14645799813E+04  0.00000000000E+00 0. -1.
<mgrwt>
<rscale>  0 0.33363344E+04</rscale>
<asrwt>0</asrwt>
<pdfrwt beam="1">  1        1 0.39170583E+00 0.33363344E+04</pdfrwt>
<pdfrwt beam="2">  1       -1 0.16814828E+00 0.33363344E+04</pdfrwt>
<totfact> 0.26420197E-01</totfact>
</mgrwt>
</event>
<event>
 6    1  0.1780144E-005  0.3144332E+04  0.7818608E-02  0.8203676E-01
          2   -1    0    0  501    0  0.00000000000E+00  0.00000000000E+00  0.16490246456E+04  0.16490246456E+04  0.00000000000E+00 0.  1.
         -2   -1    0    0    0  501 -0.00000000000E+00 -0.00000000000E+00 -0.14988893847E+04  0.14988893847E+04  0.00000000000E+00 0. -1.
         23    2    1    2    0    0 -0.74945108760E+03 -0.11819485077E+03  0.14521447023E+04  0.16409715825E+04  0.91741717463E+02 0.  0.
         11    1    3    3    0    0 -0.38160631749E+03 -0.91604277382E+02  0.82090393414E+03  0.90988900107E+03  0.00000000000E+00 0. -1.
        -11    1    3    3    0    0 -0.36784477012E+03 -0.26590573385E+02  0.63124076814E+03  0.73108258142E+03  0.00000000000E+00 0.  1.
         22    1    1    2    0    0  0.74945108760E+03  0.11819485077E+03 -0.13020094414E+04  0.15069424478E+04  0.00000000000E+00 0. -1.
<mgrwt>
<rscale>  0 0.31443317E+04</rscale>
<asrwt>0</asrwt>
<pdfrwt beam="1">  1        2 0.25369610E+00 0.31443317E+04</pdfrwt>
<pdfrwt beam="2">  1       -2 0.23059837E+00 0.31443317E+04</pdfrwt>
<totfact> 0.75079485E-01</totfact>
</mgrwt>
</event>
<event>
 6    1  0.2502346E-005  0.3771066E+04  0.7818608E-02  0.8052393E-01
          2   -1    0    0  501    0  0.00000000000E+00  0.00000000000E+00  0.21138415912E+04  0.21138415912E+04  0.00000000000E+00 0. -1.
         -2   -1    0    0    0  501 -0.00000000000E+00 -0.00000000000E+00 -0.16818832057E+04  0.16818832057E+04  0.00000000000E+00 0.  1.
         23    2    1    2    0    0 -0.34762563283E+03 -0.83002778998E+03 -0.14504447523E+04  0.17092849377E+04  0.89862706889E+02 0.  0.
         13    1    3    3    0    0 -0.25600540519E+03 -0.53160213126E+03 -0.10035885282E+04  0.11641862082E+04  0.00000000000E+00 0. -1.
        -13    1    3    3    0    0 -0.91620227645E+02 -0.29842565872E+03 -0.44685622410E+03  0.54509872952E+03  0.00000000000E+00 0.  1.
         22    1    1    2    0    0  0.34762563283E+03  0.83002778998E+03  0.18824031378E+04  0.20864398591E+04  0.00000000000E+00 0. -1.
<mgrwt>
<rscale>  0 0.37710660E+04</rscale>
<asrwt>0</asrwt>
<pdfrwt beam="1">  1        2 0.32520640E+00 0.37710660E+04</pdfrwt>
<pdfrwt beam="2">  1       -2 0.25875126E+00 0.37710660E+04</pdfrwt>
<totfact> 0.26344219E-01</totfact>
</mgrwt>
</event>
<event>
 6    1  0.1780144E-005  0.1938840E+04  0.7818608E-02  0.8635761E-01
         -1   -1    0    0    0  501 -0.00000000000E+00  0.00000000000E+00  0.58407636082E+03  0.58407636082E+03  0.00000000000E+00 0.  1.
          1   -1    0    0  501    0  0.00000000000E+00 -0.00000000000E+00 -0.16089940981E+04  0.16089940981E+04  0.00000000000E+00 0. -1.
         23    2    1    2    0    0  0.44676432640E+03  0.68707379460E+03  0.67425474239E+02  0.82746346775E+03  0.92091439972E+02 0.  0.
         11    1    3    3    0    0  0.24415344007E+03  0.30210982277E+03  0.54550078331E+02  0.39224604314E+03  0.00000000000E+00 0. -1.
        -11    1    3    3    0    0  0.20261088633E+03  0.38496397183E+03  0.12875395908E+02  0.43521742461E+03  0.00000000000E+00 0.  1.
         22    1    1    2    0    0 -0.44676432640E+03 -0.68707379460E+03 -0.10923432115E+04  0.13656069912E+04  0.00000000000E+00 0. -1.
<mgrwt>
<rscale>  0 0.19388403E+04</rscale>
<asrwt>0</asrwt>
<pdfrwt beam="1">  1        1 0.24753755E+00 0.19388403E+04</pdfrwt>
<pdfrwt beam="2">  1       -1 0.89857903E-01 0.19388403E+04</pdfrwt>
<totfact> 0.62180264E+00</totfact>
</mgrwt>
</event>
<event>
 6    1  0.1780144E-005  0.2088636E+04  0.7818608E-02  0.8566266E-01
         -2   -1    0    0    0  501 -0.00000000000E+00  0.00000000000E+00  0.32029952442E+03  0.32029952442E+03  0.00000000000E+00 0.  1.
          2   -1    0    0  501    0  0.00000000000E+00 -0.00000000000E+00 -0.34049387334E+04  0.34049387334E+04  0.00000000000E+00 0. -1.
         23    2    1    2    0    0  0.46141325165E+03  0.46928915208E+03 -0.10653819560E+03  0.67528413637E+03  0.10734887358E+03 0.  0.
         13    1    3    3    0    0  0.15465306443E+03  0.18694147632E+03  0.85509381157E+01  0.24277109476E+03  0.00000000000E+00 0.  1.
        -13    1    3    3    0    0  0.30676018722E+03  0.28234767576E+03 -0.11508913371E+03  0.43251304162E+03  0.00000000000E+00 0. -1.
         22    1    1    2    0    0 -0.46141325165E+03 -0.46928915208E+03 -0.29781010134E+04  0.30499541215E+04  0.00000000000E+00 0. -1.
<mgrwt>
<rscale>  0 0.20886362E+04</rscale>
<asrwt>0</asrwt>
<pdfrwt beam="1">  1        2 0.52383677E+00 0.20886362E+04</pdfrwt>
<pdfrwt beam="2">  1       -2 0.49276846E-01 0.20886362E+04</pdfrwt>
<totfact> 0.34154858E+00</totfact>
</mgrwt>
</event>
<event>
 6    1  0.1780144E-005  0.8951247E+03  0.7818608E-02  0.9431696E-01
         -1   -1    0    0    0  501 -0.00000000000E+00  0.00000000000E+00  0.11751956656E+03  0.11751956656E+03  0.00000000000E+00 0.  1.
          1   -1    0    0  501    0  0.00000000000E+00 -0.00000000000E+00 -0.17044997018E+04  0.17044997018E+04  0.00000000000E+00 0. -1.
         23    2    1    2    0    0  0.13486814331E+03 -0.42056062103E+03 -0.85770903009E+03  0.96943672289E+03  0.95300195921E+02 0.  0.
         11    1    3    3    0    0  0.96263982310E+02 -0.20260091794E+03 -0.51140048952E+03  0.55843025251E+03  0.00000000000E+00 0. -1.
        -11    1    3    3    0    0  0.38604160999E+02 -0.21795970309E+03 -0.34630854058E+03  0.41100647038E+03  0.00000000000E+00 0.  1.
         22    1    1    2    0    0 -0.13486814331E+03  0.42056062103E+03 -0.72927110518E+03  0.85258254550E+03  0.00000000000E+00 0. -1.
<mgrwt>
<rscale>  0 0.89512472E+03</rscale>
<asrwt>0</asrwt>
<pdfrwt beam="1">  1        1 0.26223072E+00 0.89512472E+03</pdfrwt>
<pdfrwt beam="2">  1       -1 0.18079933E-01 0.89512472E+03</pdfrwt>
<totfact> 0.11586850E+02</totfact>
</mgrwt>
</event>
<event>
 6    1  0.1780144E-005  0.3546376E+04  0.7818608E-02  0.8102886E-01
          2   -1    0    0  501    0  0.00000000000E+00  0.00000000000E+00  0.29417833832E+04  0.29417833832E+04  0.00000000000E+00 0. -1.
         -2   -1    0    0    0  501 -0.00000000000E+00 -0.00000000000E+00 -0.10688061071E+04  0.10688061071E+04  0.00000000000E+00 0.  1.
         23    2    1    2    0    0 -0.13278549691E+04  0.96543270884E+03  0.16914088594E+04  0.23588551823E+04  0.89859374481E+02 0.  0.
         11    1    3    3    0    0 -0.69554480103E+03  0.53408571952E+03  0.95823980698E+03  0.12989432835E+04  0.00000000000E+00 0. -1.
        -11    1    3    3    0    0 -0.63231016805E+03  0.43134698932E+03  0.73316905247E+03  0.10599118988E+04  0.00000000000E+00 0.  1.
         22    1    1    2    0    0  0.13278549691E+04 -0.96543270884E+03  0.18156841664E+03  0.16517343080E+04  0.00000000000E+00 0.  1.
<mgrwt>
<rscale>  0 0.35463762E+04</rscale>
<asrwt>0</asrwt>
<pdfrwt beam="1">  1        2 0.45258206E+00 0.35463762E+04</pdfrwt>
<pdfrwt beam="2">  1       -2 0.16443171E+00 0.35463762E+04</pdfrwt>
<totfact> 0.36197752E-01</totfact>
</mgrwt>
</event>
<event>
 6    1  0.1780144E-005  0.2436282E+04  0.7818608E-02  0.8426044E-01
          2   -1    0    0  501    0  0.00000000000E+00  0.00000000000E+00  0.67924829778E+03  0.67924829778E+03  0.00000000000E+00 0. -1.
         -2   -1    0    0    0  501 -0.00000000000E+00 -0.00000000000E+00 -0.21845725762E+04  0.21845725762E+04  0.00000000000E+00 0.  1.
         23    2    1    2    0    0 -0.56044775405E+02  0.35067826095E+03 -0.21213676889E+04  0.21527472188E+04  0.89462042955E+02 0.  0.
         11    1    3    3    0    0 -0.35336174152E+02  0.11673685597E+03 -0.97262224357E+03  0.98023985200E+03  0.00000000000E+00 0.  1.
        -11    1    3    3    0    0 -0.20708601254E+02  0.23394140498E+03 -0.11487454453E+04  0.11725073668E+04  0.00000000000E+00 0. -1.
         22    1    1    2    0    0  0.56044775405E+02 -0.35067826095E+03  0.61604341044E+03  0.71107365519E+03  0.00000000000E+00 0. -1.
<mgrwt>
<rscale>  0 0.24362818E+04</rscale>
<asrwt>0</asrwt>
<pdfrwt beam="1">  1        2 0.10449974E+00 0.24362818E+04</pdfrwt>
<pdfrwt beam="2">  1       -2 0.33608809E+00 0.24362818E+04</pdfrwt>
<totfact> 0.72625920E-01</totfact>
</mgrwt>
</event>
<event>
 6    1  0.1780144E-005  0.4819822E+04  0.7818608E-02  0.7856919E-01
          2   -1    0    0  501    0  0.00000000000E+00  0.00000000000E+00  0.24312114331E+04  0.24312114331E+04  0.00000000000E+00 0. -1.
         -2   -1    0    0    0  501 -0.00000000000E+00 -0.00000000000E+00 -0.23887971564E+04  0.23887971564E+04  0.00000000000E+00 0.  1.
         23    2    1    2    0    0 -0.46151556119E+03  0.95796171893E+03 -0.21406532027E+04  0.23917435942E+04  0.85755570784E+02 0.  0.
         11    1    3    3    0    0 -0.76828270772E+02  0.12104735180E+03 -0.23768059150E+03  0.27757360851E+03  0.00000000000E+00 0. -1.
        -11    1    3    3    0    0 -0.38468729041E+03  0.83691436713E+03 -0.19029726112E+04  0.21141699857E+04  0.00000000000E+00 0.  1.
         22    1    1    2    0    0  0.46151556119E+03 -0.95796171893E+03  0.21830674793E+04  0.24282649953E+04  0.00000000000E+00 0. -1.
<mgrwt>
<rscale>  0 0.48198220E+04</rscale>
<asrwt>0</asrwt>
<pdfrwt beam="1">  1        2 0.37403253E+00 0.48198220E+04</pdfrwt>
<pdfrwt beam="2">  1       -2 0.36750726E+00 0.48198220E+04</pdfrwt>
<totfact> 0.33935983E-02</totfact>
</mgrwt>
</event>
<event>
 6    1  0.1780144E-005  0.1934278E+04  0.7818608E-02  0.8637980E-01
          1   -1    0    0  501    0  0.00000000000E+00  0.00000000000E+00  0.12226534381E+04  0.12226534381E+04  0.00000000000E+00 0. -1.
         -1   -1    0    0    0  501 -0.00000000000E+00 -0.00000000000E+00 -0.76502263454E+03  0.76502263454E+03  0.00000000000E+00 0.  1.
         23    2    1    2    0    0  0.48246245037E+03 -0.54922547727E+03 -0.41785174196E+03  0.84711115629E+03  0.92620688655E+02 0.  0.
         13    1    3    3    0    0  0.24264174191E+03 -0.26334611326E+03 -0.15236478587E+03  0.38915449150E+03  0.00000000000E+00 0.  1.
        -13    1    3    3    0    0  0.23982070846E+03 -0.28587936401E+03 -0.26548695609E+03  0.45795666479E+03  0.00000000000E+00 0. -1.
         22    1    1    2    0    0 -0.48246245037E+03  0.54922547727E+03  0.87548254547E+03  0.11405649163E+04  0.00000000000E+00 0. -1.
<mgrwt>
<rscale>  0 0.19342777E+04</rscale>
<asrwt>0</asrwt>
<pdfrwt beam="1">  1        1 0.18810053E+00 0.19342777E+04</pdfrwt>
<pdfrwt beam="2">  1       -1 0.11769579E+00 0.19342777E+04</pdfrwt>
<totfact> 0.62291879E+00</totfact>
</mgrwt>
</event>
<event>
 6    1  0.1780144E-005  0.1732327E+04  0.7818608E-02  0.8743139E-01
         -2   -1    0    0    0  501 -0.00000000000E+00  0.00000000000E+00  0.43809795593E+03  0.43809795593E+03  0.00000000000E+00 0.  1.
          2   -1    0    0  501    0  0.00000000000E+00 -0.00000000000E+00 -0.17124913815E+04  0.17124913815E+04  0.00000000000E+00 0. -1.
         23    2    1    2    0    0 -0.45582379397E+03  0.45916455041E+02 -0.15480027151E+04  0.16169736561E+04  0.91693765570E+02 0.  0.
         11    1    3    3    0    0 -0.17008969191E+03 -0.18121408900E+02 -0.48052318421E+03  0.51006021146E+03  0.00000000000E+00 0. -1.
        -11    1    3    3    0    0 -0.28573410206E+03  0.64037863941E+02 -0.10674795309E+04  0.11069134447E+04  0.00000000000E+00 0.  1.
         22    1    1    2    0    0  0.45582379397E+03 -0.45916455041E+02  0.27360928955E+03  0.53361568129E+03  0.00000000000E+00 0.  1.
<mgrwt>
<rscale>  0 0.17323267E+04</rscale>
<asrwt>0</asrwt>
<pdfrwt beam="1">  1        2 0.26346022E+00 0.17323267E+04</pdfrwt>
<pdfrwt beam="2">  1       -2 0.67399685E-01 0.17323267E+04</pdfrwt>
<totfact> 0.18489594E+01</totfact>
</mgrwt>
</event>
<event>
 6    1  0.1780144E-005  0.3795553E+04  0.7818608E-02  0.8047110E-01
          2   -1    0    0  501    0  0.00000000000E+00  0.00000000000E+00  0.20918194714E+04  0.20918194714E+04  0.00000000000E+00 0. -1.
         -2   -1    0    0    0  501 -0.00000000000E+00 -0.00000000000E+00 -0.17217337313E+04  0.17217337313E+04  0.00000000000E+00 0.  1.
         23    2    1    2    0    0 -0.26606385162E+03 -0.18507834969E+04 -0.13474559274E+03  0.18767919370E+04  0.89454316734E+02 0.  0.
         13    1    3    3    0    0 -0.23008148283E+03 -0.15085192120E+04 -0.14206796095E+03  0.15325635410E+04  0.00000000000E+00 0. -1.
        -13    1    3    3    0    0 -0.35982368788E+02 -0.34226428487E+03  0.73223682034E+01  0.34422839604E+03  0.00000000000E+00 0.  1.
         22    1    1    2    0    0  0.26606385162E+03  0.18507834969E+04  0.50483133290E+03  0.19367612656E+04  0.00000000000E+00 0.  1.
<mgrwt>
<rscale>  0 0.37955533E+04</rscale>
<asrwt>0</asrwt>
<pdfrwt beam="1">  1        2 0.32181838E+00 0.37955533E+04</pdfrwt>
<pdfrwt beam="2">  1       -2 0.26488211E+00 0.37955533E+04</pdfrwt>
<totfact> 0.24810373E-01</totfact>
</mgrwt>
</event>
<event>
 6    1  0.1780144E-005  0.6899756E+04  0.7818608E-02  0.7587863E-01
         -2   -1    0    0    0  501 -0.00000000000E+00  0.00000000000E+00  0.38106139451E+04  0.38106139451E+04  0.00000000000E+00 0.  1.
          2   -1    0    0  501    0  0.00000000000E+00 -0.00000000000E+00 -0.31232912395E+04  0.31232912395E+04  0.00000000000E+00 0. -1.
         23    2    1    2    0    0 -0.75885210223E+03  0.10877364307E+04  0.35436246876E+04  0.37847008298E+04  0.87506506001E+02 0.  0.
         11    1    3    3    0    0 -0.23240014155E+03  0.26563872386E+03  0.94345269953E+03  0.10073116467E+04  0.00000000000E+00 0. -1.
        -11    1    3    3    0    0 -0.52645196068E+03  0.82209770681E+03  0.26001719881E+04  0.27773891831E+04  0.00000000000E+00 0.  1.
         22    1    1    2    0    0  0.75885210223E+03 -0.10877364307E+04 -0.28563019821E+04  0.31492043548E+04  0.00000000000E+00 0. -1.
<mgrwt>
<rscale>  0 0.68997557E+04</rscale>
<asrwt>0</asrwt>
<pdfrwt beam="1">  1        2 0.48050635E+00 0.68997557E+04</pdfrwt>
<pdfrwt beam="2">  1       -2 0.58624830E+00 0.68997557E+04</pdfrwt>
<totfact> 0.54219834E-04</totfact>
</mgrwt>
</event>
<event>
 6    1  0.1780144E-005  0.3229073E+04  0.7818608E-02  0.8181181E-01
         -2   -1    0    0    0  501 -0.00000000000E+00  0.00000000000E+00  0.10389471290E+04  0.10389471290E+04  0.00000000000E+00 0.  1.
          2   -1    0    0  501    0  0.00000000000E+00 -0.00000000000E+00 -0.25090100526E+04  0.25090100526E+04  0.00000000000E+00 0. -1.
         23    2    1    2    0    0 -0.13333619899E+03  0.82074269594E+03  0.78332126506E+03  0.11460543075E+04  0.91930172006E+02 0.  0.
         13    1    3    3    0    0 -0.11076030839E+03  0.71170052965E+03  0.63238353665E+03  0.95848548620E+03  0.00000000000E+00 0. -1.
        -13    1    3    3    0    0 -0.22575890598E+02  0.10904216629E+03  0.15093772840E+03  0.18756882129E+03  0.00000000000E+00 0.  1.
         22    1    1    2    0    0  0.13333619899E+03 -0.82074269594E+03 -0.22533841887E+04  0.24019028741E+04  0.00000000000E+00 0. -1.
<mgrwt>
<rscale>  0 0.32290734E+04</rscale>
<asrwt>0</asrwt>
<pdfrwt beam="1">  1        2 0.38600155E+00 0.32290734E+04</pdfrwt>
<pdfrwt beam="2">  1       -2 0.15983802E+00 0.32290734E+04</pdfrwt>
<totfact> 0.72966076E-01</totfact>
</mgrwt>
</event>
<event>
 6    1  0.1780144E-005  0.3176689E+04  0.7818608E-02  0.8195001E-01
         -1   -1    0    0    0  501 -0.00000000000E+00  0.00000000000E+00  0.19463531533E+04  0.19463531533E+04  0.00000000000E+00 0.  1.
          1   -1    0    0  501    0  0.00000000000E+00 -0.00000000000E+00 -0.12961875306E+04  0.12961875306E+04  0.00000000000E+00 0. -1.
         23    2    1    2    0    0 -0.83496504726E+03 -0.53406866767E+03  0.15905937030E+04  0.18762314413E+04  0.88657325632E+02 0.  0.
         13    1    3    3    0    0 -0.49833794114E+03 -0.34468510932E+03  0.10406888261E+04  0.12042349276E+04  0.00000000000E+00 0. -1.
        -13    1    3    3    0    0 -0.33662710612E+03 -0.18938355835E+03  0.54990487693E+03  0.67199651370E+03  0.00000000000E+00 0.  1.
         22    1    1    2    0    0  0.83496504726E+03  0.53406866767E+03 -0.94042808031E+03  0.13663092425E+04  0.00000000000E+00 0. -1.
<mgrwt>
<rscale>  0 0.31766893E+04</rscale>
<asrwt>0</asrwt>
<pdfrwt beam="1">  1        1 0.19941347E+00 0.31766893E+04</pdfrwt>
<pdfrwt beam="2">  1       -1 0.29943895E+00 0.31766893E+04</pdfrwt>
<totfact> 0.25409521E-01</totfact>
</mgrwt>
</event>
<event>
 6    1  0.1780144E-005  0.3515133E+04  0.7818608E-02  0.8110213E-01
          2   -1    0    0  501    0  0.00000000000E+00  0.00000000000E+00  0.21258957612E+04  0.21258957612E+04  0.00000000000E+00 0. -1.
         -2   -1    0    0    0  501 -0.00000000000E+00 -0.00000000000E+00 -0.14530532981E+04  0.14530532981E+04  0.00000000000E+00 0.  1.
         23    2    1    2    0    0 -0.10824389999E+04 -0.10272829826E+04  0.12796733530E+04  0.19679778480E+04  0.91588235916E+02 0.  0.
         11    1    3    3    0    0 -0.97250888451E+03 -0.90083587073E+03  0.11030897932E+04  0.17245538230E+04  0.00000000000E+00 0.  1.
        -11    1    3    3    0    0 -0.10993011539E+03 -0.12644711190E+03  0.17658355974E+03  0.24342402500E+03  0.00000000000E+00 0. -1.
         22    1    1    2    0    0  0.10824389999E+04  0.10272829826E+04 -0.60683088980E+03  0.16109712113E+04  0.00000000000E+00 0.  1.
<mgrwt>
<rscale>  0 0.35151329E+04</rscale>
<asrwt>0</asrwt>
<pdfrwt beam="1">  1        2 0.32706089E+00 0.35151329E+04</pdfrwt>
<pdfrwt beam="2">  1       -2 0.22354666E+00 0.35151329E+04</pdfrwt>
<totfact> 0.43779822E-01</totfact>
</mgrwt>
</event>
<event>
 6    1  0.1780144E-005  0.2169082E+04  0.7818608E-02  0.8531408E-01
          2   -1    0    0  501    0  0.00000000000E+00  0.00000000000E+00  0.17260607376E+04  0.17260607376E+04  0.00000000000E+00 0. -1.
         -2   -1    0    0    0  501 -0.00000000000E+00 -0.00000000000E+00 -0.68145322868E+03  0.68145322868E+03  0.00000000000E+00 0.  1.
         23    2    1    2    0    0  0.12640498196E+03 -0.45873015865E+03  0.16026250783E+04  0.16741687640E+04  0.89567465272E+02 0.  0.
         13    1    3    3    0    0  0.39341864862E+02 -0.27502151021E+03  0.83091340377E+03  0.87612881357E+03  0.00000000000E+00 0. -1.
        -13    1    3    3    0    0  0.87063117094E+02 -0.18370864844E+03  0.77171167451E+03  0.79803995041E+03  0.00000000000E+00 0.  1.
         22    1    1    2    0    0 -0.12640498196E+03  0.45873015865E+03 -0.55801756940E+03  0.73334520226E+03  0.00000000000E+00 0.  1.
<mgrwt>
<rscale>  0 0.21690824E+04</rscale>
<asrwt>0</asrwt>
<pdfrwt beam="1">  1        2 0.26554780E+00 0.21690824E+04</pdfrwt>
<pdfrwt beam="2">  1       -2 0.10483896E+00 0.21690824E+04</pdfrwt>
<totfact> 0.64129543E+00</totfact>
</mgrwt>
</event>
<event>
 6    1  0.1780144E-005  0.4141421E+04  0.7818608E-02  0.7976610E-01
          1   -1    0    0  501    0  0.00000000000E+00  0.00000000000E+00  0.26316673865E+04  0.26316673865E+04  0.00000000000E+00 0. -1.
         -1   -1    0    0    0  501 -0.00000000000E+00 -0.00000000000E+00 -0.16293251118E+04  0.16293251118E+04  0.00000000000E+00 0.  1.
         23    2    1    2    0    0 -0.12361411266E+04  0.81705310588E+02 -0.12044305876E+04  0.17302678770E+04  0.91941521630E+02 0.  0.
         11    1    3    3    0    0 -0.22601517781E+03  0.17855015231E+02 -0.27193737778E+03  0.35405027835E+03  0.00000000000E+00 0. -1.
        -11    1    3    3    0    0 -0.10101259488E+04  0.63850295357E+02 -0.93249320982E+03  0.13762175987E+04  0.00000000000E+00 0.  1.
         22    1    1    2    0    0  0.12361411266E+04 -0.81705310588E+02  0.22067728623E+04  0.25307246212E+04  0.00000000000E+00 0. -1.
<mgrwt>
<rscale>  0 0.41414209E+04</rscale>
<asrwt>0</asrwt>
<pdfrwt beam="1">  1        1 0.40487190E+00 0.41414209E+04</pdfrwt>
<pdfrwt beam="2">  1       -1 0.25066540E+00 0.41414209E+04</pdfrwt>
<totfact> 0.58545811E-02</totfact>
</mgrwt>
</event>
<event>
 6    1  0.1780144E-005  0.2486684E+04  0.7818608E-02  0.8407745E-01
          2   -1    0    0  501    0  0.00000000000E+00  0.00000000000E+00  0.24129567597E+04  0.24129567597E+04  0.00000000000E+00 0. -1.
         -2   -1    0    0    0  501 -0.00000000000E+00 -0.00000000000E+00 -0.64066604586E+03  0.64066604586E+03  0.00000000000E+00 0.  1.
         23    2    1    2    0    0 -0.11299164093E+04  0.23091521210E+03  0.14524784951E+04  0.18568300991E+04  0.89951713701E+02 0.  0.
         11    1    3    3    0    0 -0.91818998620E+03  0.15337005946E+03  0.11878812886E+04  0.15091909030E+04  0.00000000000E+00 0.  1.
        -11    1    3    3    0    0 -0.21172642307E+03  0.77545152636E+02  0.26459720650E+03  0.34763919602E+03  0.00000000000E+00 0. -1.
         22    1    1    2    0    0  0.11299164093E+04 -0.23091521210E+03  0.31981221872E+03  0.11967927065E+04  0.00000000000E+00 0.  1.
<mgrwt>
<rscale>  0 0.24866841E+04</rscale>
<asrwt>0</asrwt>
<pdfrwt beam="1">  1        2 0.37122411E+00 0.24866841E+04</pdfrwt>
<pdfrwt beam="2">  1       -2 0.98564008E-01 0.24866841E+04</pdfrwt>
<totfact> 0.29819737E+00</totfact>
</mgrwt>
</event>
<event>
 6    1  0.1780144E-005  0.3654543E+04  0.7818608E-02  0.8078111E-01
          1   -1    0    0  501    0  0.00000000000E+00  0.00000000000E+00  0.20058144408E+04  0.20058144408E+04  0.00000000000E+00 0. -1.
         -1   -1    0    0    0  501 -0.00000000000E+00 -0.00000000000E+00 -0.16646208659E+04  0.16646208659E+04  0.00000000000E+00 0.  1.
         23    2    1    2    0    0  0.16792240647E+04 -0.40955841879E+03 -0.41984806737E+03  0.17818601986E+04  0.10593304310E+03 0.  0.
         13    1    3    3    0    0  0.10054822769E+04 -0.28284994018E+03 -0.21560175734E+03  0.10665283941E+04  0.00000000000E+00 0. -1.
        -13    1    3    3    0    0  0.67374178785E+03 -0.12670847861E+03 -0.20424631004E+03  0.71533180442E+03  0.00000000000E+00 0.  1.
         22    1    1    2    0    0 -0.16792240647E+04  0.40955841879E+03  0.76104164223E+03  0.18885751081E+04  0.00000000000E+00 0. -1.
<mgrwt>
<rscale>  0 0.36545427E+04</rscale>
<asrwt>0</asrwt>
<pdfrwt beam="1">  1        1 0.30858684E+00 0.36545427E+04</pdfrwt>
<pdfrwt beam="2">  1       -1 0.25609552E+00 0.36545427E+04</pdfrwt>
<totfact> 0.15131119E-01</totfact>
</mgrwt>
</event>
<event>
 6    1  0.1780144E-005  0.1217095E+04  0.7818608E-02  0.9098024E-01
         -1   -1    0    0    0  501 -0.00000000000E+00  0.00000000000E+00  0.60991453596E+03  0.60991453596E+03  0.00000000000E+00 0.  1.
          1   -1    0    0  501    0  0.00000000000E+00 -0.00000000000E+00 -0.60718329747E+03  0.60718329747E+03  0.00000000000E+00 0. -1.
         23    2    1    2    0    0  0.87294655788E+02  0.19350730419E+03 -0.56524973180E+03  0.61074165402E+03  0.91829597319E+02 0.  0.
         11    1    3    3    0    0  0.54299797607E+02  0.10891928380E+03 -0.43682768066E+03  0.45346477371E+03  0.00000000000E+00 0. -1.
        -11    1    3    3    0    0  0.32994858181E+02  0.84588020390E+02 -0.12842205114E+03  0.15727688031E+03  0.00000000000E+00 0.  1.
         22    1    1    2    0    0 -0.87294655788E+02 -0.19350730419E+03  0.56798097029E+03  0.60635617941E+03  0.00000000000E+00 0.  1.
<mgrwt>
<rscale>  0 0.12170948E+04</rscale>
<asrwt>0</asrwt>
<pdfrwt beam="1">  1        1 0.93412815E-01 0.12170948E+04</pdfrwt>
<pdfrwt beam="2">  1       -1 0.93833006E-01 0.12170948E+04</pdfrwt>
<totfact> 0.36652986E+01</totfact>
</mgrwt>
</event>
<event>
 6    1  0.1780144E-005  0.9092730E+03  0.7818608E-02  0.9414063E-01
          2   -1    0    0  501    0  0.00000000000E+00  0.00000000000E+00  0.46058967055E+03  0.46058967055E+03  0.00000000000E+00 0. -1.
         -2   -1    0    0    0  501 -0.00000000000E+00 -0.00000000000E+00 -0.44876025639E+03  0.44876025639E+03  0.00000000000E+00 0.  1.
         23    2    1    2    0    0 -0.59275859222E+02 -0.12337315902E+03  0.43467405178E+03  0.46490403438E+03  0.91976442880E+02 0.  0.
         13    1    3    3    0    0 -0.34154173373E+02 -0.13194572038E+03  0.33277593087E+03  0.35960534041E+03  0.00000000000E+00 0.  1.
        -13    1    3    3    0    0 -0.25121685849E+02  0.85725613582E+01  0.10189812091E+03  0.10529869397E+03  0.00000000000E+00 0. -1.
         22    1    1    2    0    0  0.59275859222E+02  0.12337315902E+03 -0.42284463761E+03  0.44444589255E+03  0.00000000000E+00 0.  1.
<mgrwt>
<rscale>  0 0.90927298E+03</rscale>
<asrwt>0</asrwt>
<pdfrwt beam="1">  1        2 0.70859950E-01 0.90927298E+03</pdfrwt>
<pdfrwt beam="2">  1       -2 0.69040039E-01 0.90927298E+03</pdfrwt>
<totfact> 0.13020310E+02</totfact>
</mgrwt>
</event>
<event>
 6    1  0.1780144E-005  0.6531217E+03  0.7818608E-02  0.9800939E-01
          2   -1    0    0  501    0  0.00000000000E+00  0.00000000000E+00  0.12755551481E+04  0.12755551481E+04  0.00000000000E+00 0.  1.
         -2   -1    0    0    0  501 -0.00000000000E+00 -0.00000000000E+00 -0.83604375345E+02  0.83604375345E+02  0.00000000000E+00 0. -1.
         23    2    1    2    0    0  0.21604599425E+03  0.16937551216E+03  0.25402532910E+03  0.38188368030E+03  0.77086585734E+02 0.  0.
         13    1    3    3    0    0  0.73623475967E+02  0.96471911965E+02  0.14076905015E+03  0.18585793363E+03  0.00000000000E+00 0. -1.
        -13    1    3    3    0    0  0.14242251828E+03  0.72903600199E+02  0.11325627895E+03  0.19602574667E+03  0.00000000000E+00 0.  1.
         22    1    1    2    0    0 -0.21604599425E+03 -0.16937551216E+03  0.93792544368E+03  0.97727584318E+03  0.00000000000E+00 0.  1.
<mgrwt>
<rscale>  0 0.65312171E+03</rscale>
<asrwt>0</asrwt>
<pdfrwt beam="1">  1        2 0.19623924E+00 0.65312171E+03</pdfrwt>
<pdfrwt beam="2">  1       -2 0.12862213E-01 0.65312171E+03</pdfrwt>
<totfact> 0.78437697E+02</totfact>
</mgrwt>
</event>
<event>
 6    1  0.1780144E-005  0.1290470E+04  0.7818608E-02  0.9037157E-01
          3   -1    0    0  501    0  0.00000000000E+00  0.00000000000E+00  0.12119155142E+04  0.12119155142E+04  0.00000000000E+00 0. -1.
         -3   -1    0    0    0  501 -0.00000000000E+00 -0.00000000000E+00 -0.34352881673E+03  0.34352881673E+03  0.00000000000E+00 0.  1.
         23    2    1    2    0    0 -0.47013847486E+03  0.21265273211E+03 -0.24013557314E+02  0.52460506859E+03  0.91555759163E+02 0.  0.
         11    1    3    3    0    0 -0.11959767382E+03  0.13512080955E+02  0.44815520574E+01  0.12044195375E+03  0.00000000000E+00 0.  1.
        -11    1    3    3    0    0 -0.35054080105E+03  0.19914065115E+03 -0.28495109371E+02  0.40416311484E+03  0.00000000000E+00 0. -1.
         22    1    1    2    0    0  0.47013847486E+03 -0.21265273211E+03  0.89240025475E+03  0.10308392623E+04  0.00000000000E+00 0. -1.
<mgrwt>
<rscale>  0 0.12904695E+04</rscale>
<asrwt>0</asrwt>
<pdfrwt beam="1">  1        3 0.18644854E+00 0.12904695E+04</pdfrwt>
<pdfrwt beam="2">  1       -3 0.52850588E-01 0.12904695E+04</pdfrwt>
<totfact> 0.16389976E+00</totfact>
</mgrwt>
</event>
<event>
 6    1  0.1780144E-005  0.2655431E+04  0.7818608E-02  0.8349612E-01
         -2   -1    0    0    0  501 -0.00000000000E+00  0.00000000000E+00  0.60548236745E+03  0.60548236745E+03  0.00000000000E+00 0.  1.
          2   -1    0    0  501    0  0.00000000000E+00 -0.00000000000E+00 -0.29114455772E+04  0.29114455772E+04  0.00000000000E+00 0. -1.
         23    2    1    2    0    0 -0.11880135641E+03  0.27882172509E+03 -0.28642398843E+04  0.28816892793E+04  0.91693351195E+02 0.  0.
         13    1    3    3    0    0 -0.46909267554E+02  0.17553246347E+03 -0.20151053825E+04  0.20232799677E+04  0.00000000000E+00 0. -1.
        -13    1    3    3    0    0 -0.71892088857E+02  0.10328926162E+03 -0.84913450177E+03  0.85840931152E+03  0.00000000000E+00 0.  1.
         22    1    1    2    0    0  0.11880135641E+03 -0.27882172509E+03  0.55827667456E+03  0.63523866540E+03  0.00000000000E+00 0.  1.
<mgrwt>
<rscale>  0 0.26554314E+04</rscale>
<asrwt>0</asrwt>
<pdfrwt beam="1">  1        2 0.44791469E+00 0.26554314E+04</pdfrwt>
<pdfrwt beam="2">  1       -2 0.93151136E-01 0.26554314E+04</pdfrwt>
<totfact> 0.16978851E+00</totfact>
</mgrwt>
</event>
<event>
 6    1  0.1780144E-005  0.2530683E+04  0.7818608E-02  0.8392135E-01
         -2   -1    0    0    0  501 -0.00000000000E+00  0.00000000000E+00  0.17675802352E+04  0.17675802352E+04  0.00000000000E+00 0.  1.
          2   -1    0    0  501    0  0.00000000000E+00 -0.00000000000E+00 -0.90580853916E+03  0.90580853916E+03  0.00000000000E+00 0. -1.
         23    2    1    2    0    0  0.11507206242E+04  0.47385726074E+03  0.19935437794E+03  0.12636032014E+04  0.90841752045E+02 0.  0.
         13    1    3    3    0    0  0.77795627784E+03  0.35731473276E+03  0.16178126509E+03  0.87124219722E+03  0.00000000000E+00 0. -1.
        -13    1    3    3    0    0  0.37276434638E+03  0.11654252798E+03  0.37573112847E+02  0.39236100414E+03  0.00000000000E+00 0.  1.
         22    1    1    2    0    0 -0.11507206242E+04 -0.47385726074E+03  0.66241731812E+03  0.14097855730E+04  0.00000000000E+00 0. -1.
<mgrwt>
<rscale>  0 0.25306831E+04</rscale>
<asrwt>0</asrwt>
<pdfrwt beam="1">  1        2 0.13935516E+00 0.25306831E+04</pdfrwt>
<pdfrwt beam="2">  1       -2 0.27193542E+00 0.25306831E+04</pdfrwt>
<totfact> 0.12192096E+00</totfact>
</mgrwt>
</event>
<event>
 6    1  0.2005517E-005  0.2819026E+04  0.7818608E-02  0.8297386E-01
         -1   -1    0    0    0  501 -0.00000000000E+00  0.00000000000E+00  0.83765742532E+03  0.83765742532E+03  0.00000000000E+00 0.  1.
          1   -1    0    0  501    0  0.00000000000E+00 -0.00000000000E+00 -0.23717655683E+04  0.23717655683E+04  0.00000000000E+00 0. -1.
         23    2    1    2    0    0 -0.63511251565E+03  0.12554512856E+04 -0.83018016134E+03  0.16361968683E+04  0.91734691494E+02 0.  0.
         11    1    3    3    0    0 -0.28832017394E+03  0.53252441910E+03 -0.30849214140E+03  0.67961620121E+03  0.00000000000E+00 0.  1.
        -11    1    3    3    0    0 -0.34679234171E+03  0.72292686647E+03 -0.52168801994E+03  0.95658066711E+03  0.00000000000E+00 0. -1.
         22    1    1    2    0    0  0.63511251565E+03 -0.12554512856E+04 -0.70392798161E+03  0.15732261253E+04  0.00000000000E+00 0. -1.
<mgrwt>
<rscale>  0 0.28190261E+04</rscale>
<asrwt>0</asrwt>
<pdfrwt beam="1">  1        1 0.36488700E+00 0.28190261E+04</pdfrwt>
<pdfrwt beam="2">  1       -1 0.12887038E+00 0.28190261E+04</pdfrwt>
<totfact> 0.74424702E-01</totfact>
</mgrwt>
</event>
<event>
 6    1  0.1780144E-005  0.3380841E+04  0.7818608E-02  0.8142625E-01
         -1   -1    0    0    0  501 -0.00000000000E+00  0.00000000000E+00  0.24667229940E+04  0.24667229940E+04  0.00000000000E+00 0.  1.
          1   -1    0    0  501    0  0.00000000000E+00 -0.00000000000E+00 -0.11584282617E+04  0.11584282617E+04  0.00000000000E+00 0. -1.
         23    2    1    2    0    0 -0.12971870381E+04 -0.10451869373E+04  0.35485448433E+03  0.17057351330E+04  0.92199203589E+02 0.  0.
         11    1    3    3    0    0 -0.10061095760E+04 -0.82761953355E+03  0.31372077182E+03  0.13400116768E+04  0.00000000000E+00 0.  1.
        -11    1    3    3    0    0 -0.29107746210E+03 -0.21756740378E+03  0.41133712512E+02  0.36572345622E+03  0.00000000000E+00 0. -1.
         22    1    1    2    0    0  0.12971870381E+04  0.10451869373E+04  0.95344024797E+03  0.19194161227E+04  0.00000000000E+00 0. -1.
<mgrwt>
<rscale>  0 0.33808411E+04</rscale>
<asrwt>0</asrwt>
<pdfrwt beam="1">  1        1 0.17821973E+00 0.33808411E+04</pdfrwt>
<pdfrwt beam="2">  1       -1 0.37949584E+00 0.33808411E+04</pdfrwt>
<totfact> 0.93106119E-02</totfact>
</mgrwt>
</event>
<event>
 6    1  0.1780144E-005  0.3054589E+04  0.7818608E-02  0.8228312E-01
         -1   -1    0    0    0  501 -0.00000000000E+00  0.00000000000E+00  0.10169837983E+04  0.10169837983E+04  0.00000000000E+00 0.  1.
          1   -1    0    0  501    0  0.00000000000E+00 -0.00000000000E+00 -0.22936737201E+04  0.22936737201E+04  0.00000000000E+00 0. -1.
         23    2    1    2    0    0  0.14947145884E+04 -0.23123986952E+03 -0.42010117040E+03  0.15724435307E+04  0.91924348259E+02 0.  0.
         11    1    3    3    0    0  0.98876046592E+03 -0.19547602366E+03 -0.29063570602E+03  0.10489648461E+04  0.00000000000E+00 0. -1.
        -11    1    3    3    0    0  0.50595412250E+03 -0.35763845859E+02 -0.12946546438E+03  0.52347868458E+03  0.00000000000E+00 0.  1.
         22    1    1    2    0    0 -0.14947145884E+04  0.23123986952E+03 -0.85658875142E+03  0.17382139877E+04  0.00000000000E+00 0. -1.
<mgrwt>
<rscale>  0 0.30545893E+04</rscale>
<asrwt>0</asrwt>
<pdfrwt beam="1">  1        1 0.35287288E+00 0.30545893E+04</pdfrwt>
<pdfrwt beam="2">  1       -1 0.15645905E+00 0.30545893E+04</pdfrwt>
<totfact> 0.49512448E-01</totfact>
</mgrwt>
</event>
<event>
 6    1  0.1780144E-005  0.1820724E+04  0.7818608E-02  0.8695356E-01
         -2   -1    0    0    0  501 -0.00000000000E+00  0.00000000000E+00  0.17023439306E+04  0.17023439306E+04  0.00000000000E+00 0. -1.
          2   -1    0    0  501    0  0.00000000000E+00 -0.00000000000E+00 -0.48683402165E+03  0.48683402165E+03  0.00000000000E+00 0.  1.
         23    2    1    2    0    0  0.42788901002E+03 -0.23301226367E+02 -0.35354198256E+03  0.56266149359E+03  0.89241643254E+02 0.  0.
         13    1    3    3    0    0  0.17050181774E+03  0.34386103633E+02 -0.14230755876E+03  0.22473254161E+03  0.00000000000E+00 0. -1.
        -13    1    3    3    0    0  0.25738719228E+03 -0.57687329999E+02 -0.21123442380E+03  0.33792895199E+03  0.00000000000E+00 0.  1.
         22    1    1    2    0    0 -0.42788901002E+03  0.23301226367E+02  0.15690518915E+04  0.16265164587E+04  0.00000000000E+00 0. -1.
<mgrwt>
<rscale>  0 0.18207240E+04</rscale>
<asrwt>0</asrwt>
<pdfrwt beam="1">  1        2 0.74897543E-01 0.18207240E+04</pdfrwt>
<pdfrwt beam="2">  1       -2 0.26189906E+00 0.18207240E+04</pdfrwt>
<totfact> 0.32528143E+00</totfact>
</mgrwt>
</event>
<event>
 6    1  0.1780144E-005  0.9978337E+03  0.7818608E-02  0.9310924E-01
         -2   -1    0    0    0  501 -0.00000000000E+00  0.00000000000E+00  0.93114611190E+03  0.93114611190E+03  0.00000000000E+00 0.  1.
          2   -1    0    0  501    0  0.00000000000E+00 -0.00000000000E+00 -0.26732433190E+03  0.26732433190E+03  0.00000000000E+00 0. -1.
         23    2    1    2    0    0 -0.36275225560E+03 -0.13187837631E+02  0.73771932682E+03  0.82803291137E+03  0.98211909450E+02 0.  0.
         13    1    3    3    0    0 -0.85269208642E+02 -0.42952911106E+02  0.22163669402E+03  0.24132677981E+03  0.00000000000E+00 0.  1.
        -13    1    3    3    0    0 -0.27748304696E+03  0.29765073475E+02  0.51608263279E+03  0.58670613157E+03  0.00000000000E+00 0. -1.
         22    1    1    2    0    0  0.36275225560E+03  0.13187837631E+02 -0.73897546809E+02  0.37043753242E+03  0.00000000000E+00 0. -1.
<mgrwt>
<rscale>  0 0.99783368E+03</rscale>
<asrwt>0</asrwt>
<pdfrwt beam="1">  1        2 0.41126821E-01 0.99783368E+03</pdfrwt>
<pdfrwt beam="2">  1       -2 0.14325325E+00 0.99783368E+03</pdfrwt>
<totfact> 0.42138826E+01</totfact>
</mgrwt>
</event>
<event>
 6    1  0.1780144E-005  0.1746746E+04  0.7818608E-02  0.8735144E-01
          2   -1    0    0  501    0  0.00000000000E+00  0.00000000000E+00  0.13839063944E+04  0.13839063944E+04  0.00000000000E+00 0. -1.
         -2   -1    0    0    0  501 -0.00000000000E+00 -0.00000000000E+00 -0.55117896886E+03  0.55117896886E+03  0.00000000000E+00 0.  1.
         23    2    1    2    0    0 -0.68192422150E+03 -0.24266996406E+03  0.95402282772E+03  0.12011766973E+04  0.93576423371E+02 0.  0.
         11    1    3    3    0    0 -0.63857092265E+03 -0.21927706391E+03  0.84553317063E+03  0.10820266155E+04  0.00000000000E+00 0. -1.
        -11    1    3    3    0    0 -0.43353298844E+02 -0.23392900151E+02  0.10848965709E+03  0.11915008180E+03  0.00000000000E+00 0.  1.
         22    1    1    2    0    0  0.68192422150E+03  0.24266996406E+03 -0.12129540221E+03  0.73390866592E+03  0.00000000000E+00 0.  1.
<mgrwt>
<rscale>  0 0.17467457E+04</rscale>
<asrwt>0</asrwt>
<pdfrwt beam="1">  1        2 0.21290867E+00 0.17467457E+04</pdfrwt>
<pdfrwt beam="2">  1       -2 0.84796765E-01 0.17467457E+04</pdfrwt>
<totfact> 0.16978957E+01</totfact>
</mgrwt>
</event>
<event>
 6    1  0.1780144E-005  0.2392982E+04  0.7818608E-02  0.8442136E-01
          1   -1    0    0  501    0  0.00000000000E+00  0.00000000000E+00  0.14757005604E+04  0.14757005604E+04  0.00000000000E+00 0. -1.
         -1   -1    0    0    0  501 -0.00000000000E+00 -0.00000000000E+00 -0.97010902763E+03  0.97010902763E+03  0.00000000000E+00 0.  1.
         23    2    1    2    0    0 -0.11890844496E+04 -0.26948968644E+02  0.13749074119E+03  0.12007608870E+04  0.90966635093E+02 0.  0.
         13    1    3    3    0    0 -0.52342307439E+03  0.11850166576E+02  0.99192319496E+02  0.53287076998E+03  0.00000000000E+00 0. -1.
        -13    1    3    3    0    0 -0.66566137520E+03 -0.38799135220E+02  0.38298421695E+02  0.66789011703E+03  0.00000000000E+00 0.  1.
         22    1    1    2    0    0  0.11890844496E+04  0.26948968644E+02  0.36810079161E+03  0.12450487010E+04  0.00000000000E+00 0.  1.
<mgrwt>
<rscale>  0 0.23929818E+04</rscale>
<asrwt>0</asrwt>
<pdfrwt beam="1">  1        1 0.22703086E+00 0.23929818E+04</pdfrwt>
<pdfrwt beam="2">  1       -1 0.14924754E+00 0.23929818E+04</pdfrwt>
<totfact> 0.21568268E+00</totfact>
</mgrwt>
</event>
<event>
 6    1  0.1780144E-005  0.1501849E+04  0.7818608E-02  0.8883225E-01
         -2   -1    0    0    0  501 -0.00000000000E+00  0.00000000000E+00  0.21289615512E+03  0.21289615512E+03  0.00000000000E+00 0.  1.
          2   -1    0    0  501    0  0.00000000000E+00 -0.00000000000E+00 -0.26486498412E+04  0.26486498412E+04  0.00000000000E+00 0. -1.
         23    2    1    2    0    0  0.23149349500E+03 -0.99770977674E+02 -0.25648047472E+04  0.25783540781E+04  0.78376491058E+02 0.  0.
         11    1    3    3    0    0  0.13123471549E+03 -0.14144049773E+02 -0.12412242390E+04  0.12482228232E+04  0.00000000000E+00 0.  1.
        -11    1    3    3    0    0  0.10025877952E+03 -0.85626927901E+02 -0.13235805082E+04  0.13301312549E+04  0.00000000000E+00 0. -1.
         22    1    1    2    0    0 -0.23149349500E+03  0.99770977674E+02  0.12905106109E+03  0.28319191829E+03  0.00000000000E+00 0.  1.
<mgrwt>
<rscale>  0 0.15018487E+04</rscale>
<asrwt>0</asrwt>
<pdfrwt beam="1">  1        2 0.40748461E+00 0.15018487E+04</pdfrwt>
<pdfrwt beam="2">  1       -2 0.32753253E-01 0.15018487E+04</pdfrwt>
<totfact> 0.24016816E+01</totfact>
</mgrwt>
</event>
<event>
 6    1  0.1780144E-005  0.2173227E+04  0.7818608E-02  0.8529655E-01
          2   -1    0    0  501    0  0.00000000000E+00  0.00000000000E+00  0.36593109568E+04  0.36593109568E+04  0.00000000000E+00 0.  1.
         -2   -1    0    0    0  501 -0.00000000000E+00 -0.00000000000E+00 -0.32266416168E+03  0.32266416168E+03  0.00000000000E+00 0. -1.
         23    2    1    2    0    0 -0.37630102066E+03 -0.44791089019E+03  0.33449689974E+04  0.33969145380E+04  0.89354135245E+02 0.  0.
         13    1    3    3    0    0 -0.15445773943E+02 -0.10384092924E+02  0.47260484566E+02  0.50793254670E+02  0.00000000000E+00 0.  1.
        -13    1    3    3    0    0 -0.36085524672E+03 -0.43752679727E+03  0.32977085128E+04  0.33461212834E+04  0.00000000000E+00 0. -1.
         22    1    1    2    0    0  0.37630102066E+03  0.44791089019E+03 -0.83222023154E+01  0.58506058041E+03  0.00000000000E+00 0. -1.
<mgrwt>
<rscale>  0 0.21732266E+04</rscale>
<asrwt>0</asrwt>
<pdfrwt beam="1">  1        2 0.56297089E+00 0.21732266E+04</pdfrwt>
<pdfrwt beam="2">  1       -2 0.49640643E-01 0.21732266E+04</pdfrwt>
<totfact> 0.22105242E+00</totfact>
</mgrwt>
</event>
<event>
 6    1  0.1780144E-005  0.1890605E+04  0.7818608E-02  0.8659547E-01
          2   -1    0    0  501    0  0.00000000000E+00  0.00000000000E+00  0.82521817415E+03  0.82521817415E+03  0.00000000000E+00 0. -1.
         -2   -1    0    0    0  501 -0.00000000000E+00 -0.00000000000E+00 -0.10828616432E+04  0.10828616432E+04  0.00000000000E+00 0.  1.
         23    2    1    2    0    0  0.92029521489E+02 -0.55472943776E+03 -0.89287475879E+03  0.10597208288E+04  0.97922000771E+02 0.  0.
         11    1    3    3    0    0  0.40922625257E+02 -0.33070664804E+03 -0.44058254641E+03  0.55240793668E+03  0.00000000000E+00 0. -1.
        -11    1    3    3    0    0  0.51106896232E+02 -0.22402278972E+03 -0.45229221238E+03  0.50731289215E+03  0.00000000000E+00 0.  1.
         22    1    1    2    0    0 -0.92029521489E+02  0.55472943776E+03  0.63523128974E+03  0.84835898852E+03  0.00000000000E+00 0. -1.
<mgrwt>
<rscale>  0 0.18906053E+04</rscale>
<asrwt>0</asrwt>
<pdfrwt beam="1">  1        2 0.12695664E+00 0.18906053E+04</pdfrwt>
<pdfrwt beam="2">  1       -2 0.16659410E+00 0.18906053E+04</pdfrwt>
<totfact> 0.69788344E+00</totfact>
</mgrwt>
</event>
<event>
 6    1  0.1780144E-005  0.2790515E+04  0.7818608E-02  0.8306219E-01
          2   -1    0    0  501    0  0.00000000000E+00  0.00000000000E+00  0.19144326959E+04  0.19144326959E+04  0.00000000000E+00 0. -1.
         -2   -1    0    0    0  501 -0.00000000000E+00 -0.00000000000E+00 -0.10168774213E+04  0.10168774213E+04  0.00000000000E+00 0.  1.
         23    2    1    2    0    0  0.95914097986E+03  0.83679460719E+03 -0.14727507736E+03  0.12845414334E+04  0.90443970489E+02 0.  0.
         13    1    3    3    0    0  0.74344693431E+03  0.69260017729E+03 -0.13236257867E+03  0.10246600421E+04  0.00000000000E+00 0. -1.
        -13    1    3    3    0    0  0.21569404555E+03  0.14419442990E+03 -0.14912498695E+02  0.25988139125E+03  0.00000000000E+00 0.  1.
         22    1    1    2    0    0 -0.95914097986E+03 -0.83679460719E+03  0.10448303519E+04  0.16467686839E+04  0.00000000000E+00 0. -1.
<mgrwt>
<rscale>  0 0.27905149E+04</rscale>
<asrwt>0</asrwt>
<pdfrwt beam="1">  1        2 0.29452811E+00 0.27905149E+04</pdfrwt>
<pdfrwt beam="2">  1       -2 0.15644268E+00 0.27905149E+04</pdfrwt>
<totfact> 0.17383227E+00</totfact>
</mgrwt>
</event>
<event>
 6    1  0.1780144E-005  0.1978749E+04  0.7818608E-02  0.8616621E-01
         -2   -1    0    0    0  501 -0.00000000000E+00  0.00000000000E+00  0.43775999921E+03  0.43775999921E+03  0.00000000000E+00 0.  1.
          2   -1    0    0  501    0  0.00000000000E+00 -0.00000000000E+00 -0.22360705760E+04  0.22360705760E+04  0.00000000000E+00 0. -1.
         23    2    1    2    0    0  0.17046718531E+03  0.95780084385E+03 -0.67479431073E+03  0.11876508022E+04  0.93410643518E+02 0.  0.
         13    1    3    3    0    0  0.15493598700E+03  0.70396593032E+03 -0.53309627539E+03  0.89652932465E+03  0.00000000000E+00 0.  1.
        -13    1    3    3    0    0  0.15531198311E+02  0.25383491353E+03 -0.14169803534E+03  0.29112147751E+03  0.00000000000E+00 0. -1.
         22    1    1    2    0    0 -0.17046718531E+03 -0.95780084385E+03 -0.11235162661E+04  0.14861797731E+04  0.00000000000E+00 0.  1.
<mgrwt>
<rscale>  0 0.19787494E+04</rscale>
<asrwt>0</asrwt>
<pdfrwt beam="1">  1        2 0.34401086E+00 0.19787494E+04</pdfrwt>
<pdfrwt beam="2">  1       -2 0.67347691E-01 0.19787494E+04</pdfrwt>
<totfact> 0.92737611E+00</totfact>
</mgrwt>
</event>
<event>
 6    1  0.1780144E-005  0.2281030E+04  0.7818608E-02  0.8485438E-01
         -1   -1    0    0    0  501 -0.00000000000E+00  0.00000000000E+00  0.14849894611E+04  0.14849894611E+04  0.00000000000E+00 0.  1.
          1   -1    0    0  501    0  0.00000000000E+00 -0.00000000000E+00 -0.87594896970E+03  0.87594896970E+03  0.00000000000E+00 0. -1.
         23    2    1    2    0    0  0.72746035282E+03 -0.30682300190E+03  0.11543044653E+04  0.14014324534E+04  0.90858150049E+02 0.  0.
         13    1    3    3    0    0  0.13735778255E+03 -0.50159934017E+02  0.27947836421E+03  0.31542247141E+03  0.00000000000E+00 0.  1.
        -13    1    3    3    0    0  0.59010257026E+03 -0.25666306788E+03  0.87482610111E+03  0.10860099820E+04  0.00000000000E+00 0. -1.
         22    1    1    2    0    0 -0.72746035282E+03  0.30682300190E+03 -0.54526397390E+03  0.95950597739E+03  0.00000000000E+00 0. -1.
<mgrwt>
<rscale>  0 0.22810305E+04</rscale>
<asrwt>0</asrwt>
<pdfrwt beam="1">  1        1 0.13476138E+00 0.22810305E+04</pdfrwt>
<pdfrwt beam="2">  1       -1 0.22845992E+00 0.22810305E+04</pdfrwt>
<totfact> 0.16665960E+00</totfact>
</mgrwt>
</event>
<event>
 6    1  0.1780144E-005  0.2985577E+04  0.7818608E-02  0.8247862E-01
         -2   -1    0    0    0  501 -0.00000000000E+00  0.00000000000E+00  0.96960184810E+03  0.96960184810E+03  0.00000000000E+00 0.  1.
          2   -1    0    0  501    0  0.00000000000E+00 -0.00000000000E+00 -0.22982806442E+04  0.22982806442E+04  0.00000000000E+00 0. -1.
         23    2    1    2    0    0  0.59973213545E+03  0.55643050887E+03  0.70027423517E+03  0.10802024543E+04  0.84615556237E+02 0.  0.
         13    1    3    3    0    0  0.44366088378E+03  0.45916438855E+03  0.54994450700E+03  0.84267780100E+03  0.00000000000E+00 0.  1.
        -13    1    3    3    0    0  0.15607125167E+03  0.97266120322E+02  0.15032972817E+03  0.23752465332E+03  0.00000000000E+00 0. -1.
         22    1    1    2    0    0 -0.59973213545E+03 -0.55643050887E+03 -0.20289530313E+04  0.21876800380E+04  0.00000000000E+00 0. -1.
<mgrwt>
<rscale>  0 0.29855768E+04</rscale>
<asrwt>0</asrwt>
<pdfrwt beam="1">  1        2 0.35358163E+00 0.29855768E+04</pdfrwt>
<pdfrwt beam="2">  1       -2 0.14916952E+00 0.29855768E+04</pdfrwt>
<totfact> 0.11839758E+00</totfact>
</mgrwt>
</event>
<event>
 6    1  0.1780144E-005  0.8462538E+03  0.7818608E-02  0.9495379E-01
          1   -1    0    0  501    0  0.00000000000E+00  0.00000000000E+00  0.71118670490E+03  0.71118670490E+03  0.00000000000E+00 0. -1.
         -1   -1    0    0    0  501 -0.00000000000E+00 -0.00000000000E+00 -0.25174316504E+03  0.25174316504E+03  0.00000000000E+00 0.  1.
         23    2    1    2    0    0  0.38025022427E+03 -0.17336524787E+03  0.21227851316E+03  0.47740305023E+03  0.90585666604E+02 0.  0.
         11    1    3    3    0    0  0.20849051230E+03 -0.45520624424E+02  0.10097295222E+03  0.23608464170E+03  0.00000000000E+00 0. -1.
        -11    1    3    3    0    0  0.17175971198E+03 -0.12784462344E+03  0.11130556094E+03  0.24131840853E+03  0.00000000000E+00 0.  1.
         22    1    1    2    0    0 -0.38025022427E+03  0.17336524787E+03  0.24716502671E+03  0.48552681971E+03  0.00000000000E+00 0.  1.
<mgrwt>
<rscale>  0 0.84625384E+03</rscale>
<asrwt>0</asrwt>
<pdfrwt beam="1">  1        1 0.10941334E+00 0.84625384E+03</pdfrwt>
<pdfrwt beam="2">  1       -1 0.38729718E-01 0.84625384E+03</pdfrwt>
<totfact> 0.17334175E+02</totfact>
</mgrwt>
</event>
<event>
 6    1  0.1780144E-005  0.1731983E+04  0.7818608E-02  0.8743331E-01
          1   -1    0    0  501    0  0.00000000000E+00  0.00000000000E+00  0.20599154988E+04  0.20599154988E+04  0.00000000000E+00 0. -1.
         -1   -1    0    0    0  501 -0.00000000000E+00 -0.00000000000E+00 -0.36406399809E+03  0.36406399809E+03  0.00000000000E+00 0.  1.
         23    2    1    2    0    0  0.23723837885E+03  0.60147003853E+03  0.16514996041E+04  0.17758935872E+04  0.91097942202E+02 0.  0.
         13    1    3    3    0    0  0.21218725119E+03  0.42831901214E+03  0.12068864181E+04  0.12980968500E+04  0.00000000000E+00 0. -1.
        -13    1    3    3    0    0  0.25051127659E+02  0.17315102638E+03  0.44461318594E+03  0.47779673716E+03  0.00000000000E+00 0.  1.
         22    1    1    2    0    0 -0.23723837885E+03 -0.60147003853E+03  0.44351896642E+02  0.64808590972E+03  0.00000000000E+00 0.  1.
<mgrwt>
<rscale>  0 0.17319828E+04</rscale>
<asrwt>0</asrwt>
<pdfrwt beam="1">  1        1 0.31691007E+00 0.17319828E+04</pdfrwt>
<pdfrwt beam="2">  1       -1 0.56009847E-01 0.17319828E+04</pdfrwt>
<totfact> 0.83071314E+00</totfact>
</mgrwt>
</event>
<event>
 6    1  0.1780144E-005  0.6432864E+03  0.7818608E-02  0.9819459E-01
          2   -1    0    0  501    0  0.00000000000E+00  0.00000000000E+00  0.84118748153E+03  0.84118748153E+03  0.00000000000E+00 0. -1.
         -2   -1    0    0    0  501 -0.00000000000E+00 -0.00000000000E+00 -0.12298606294E+03  0.12298606294E+03  0.00000000000E+00 0.  1.
         23    2    1    2    0    0  0.99931697673E+02 -0.17893112301E+03  0.78506710354E+01  0.22484893678E+03  0.92155956707E+02 0.  0.
         11    1    3    3    0    0  0.51858183367E+02 -0.16011138387E+02 -0.49728332777E+01  0.54500979857E+02  0.00000000000E+00 0.  1.
        -11    1    3    3    0    0  0.48073514307E+02 -0.16291998462E+03  0.12823504313E+02  0.17034795693E+03  0.00000000000E+00 0. -1.
         22    1    1    2    0    0 -0.99931697673E+02  0.17893112301E+03  0.71035074756E+03  0.73932460769E+03  0.00000000000E+00 0. -1.
<mgrwt>
<rscale>  0 0.64328636E+03</rscale>
<asrwt>0</asrwt>
<pdfrwt beam="1">  1        2 0.12941345E+00 0.64328636E+03</pdfrwt>
<pdfrwt beam="2">  1       -2 0.18920933E-01 0.64328636E+03</pdfrwt>
<totfact> 0.76164039E+02</totfact>
</mgrwt>
</event>
<event>
 6    1  0.1780144E-005  0.2987985E+04  0.7818608E-02  0.8247170E-01
          2   -1    0    0  501    0  0.00000000000E+00  0.00000000000E+00  0.25723886070E+04  0.25723886070E+04  0.00000000000E+00 0. -1.
         -2   -1    0    0    0  501 -0.00000000000E+00 -0.00000000000E+00 -0.86768116347E+03  0.86768116347E+03  0.00000000000E+00 0.  1.
         23    2    1    2    0    0 -0.59307870504E+03 -0.69126220327E+03  0.22145448352E+04  0.23962690472E+04  0.91163234985E+02 0.  0.
         11    1    3    3    0    0 -0.51779819314E+03 -0.64339965524E+03  0.19805525766E+04  0.21458486885E+04  0.00000000000E+00 0.  1.
        -11    1    3    3    0    0 -0.75280511894E+02 -0.47862548029E+02  0.23399225856E+03  0.25042035867E+03  0.00000000000E+00 0. -1.
         22    1    1    2    0    0  0.59307870504E+03  0.69126220327E+03 -0.50983739165E+03  0.10438007233E+04  0.00000000000E+00 0.  1.
<mgrwt>
<rscale>  0 0.29879847E+04</rscale>
<asrwt>0</asrwt>
<pdfrwt beam="1">  1        2 0.39575209E+00 0.29879847E+04</pdfrwt>
<pdfrwt beam="2">  1       -2 0.13348941E+00 0.29879847E+04</pdfrwt>
<totfact> 0.10986767E+00</totfact>
</mgrwt>
</event>
<event>
 6    1  0.1780144E-005  0.1842536E+04  0.7818608E-02  0.8684001E-01
          1   -1    0    0  501    0  0.00000000000E+00  0.00000000000E+00  0.93574882666E+03  0.93574882666E+03  0.00000000000E+00 0. -1.
         -1   -1    0    0    0  501 -0.00000000000E+00 -0.00000000000E+00 -0.90701133864E+03  0.90701133864E+03  0.00000000000E+00 0.  1.
         23    2    1    2    0    0 -0.25108616564E+03 -0.16966055959E+03  0.88217131533E+03  0.93712322609E+03  0.90248231158E+02 0.  0.
         13    1    3    3    0    0 -0.90015212002E+02 -0.10117944253E+03  0.29869625651E+03  0.32796260707E+03  0.00000000000E+00 0. -1.
        -13    1    3    3    0    0 -0.16107095364E+03 -0.68481117064E+02  0.58347505883E+03  0.60916061903E+03  0.00000000000E+00 0.  1.
         22    1    1    2    0    0  0.25108616564E+03  0.16966055959E+03 -0.85343382731E+03  0.90563693921E+03  0.00000000000E+00 0.  1.
<mgrwt>
<rscale>  0 0.18425361E+04</rscale>
<asrwt>0</asrwt>
<pdfrwt beam="1">  1        1 0.14396136E+00 0.18425361E+04</pdfrwt>
<pdfrwt beam="2">  1       -1 0.13954021E+00 0.18425361E+04</pdfrwt>
<totfact> 0.67652981E+00</totfact>
</mgrwt>
</event>
<event>
 6    1  0.1780144E-005  0.8447932E+03  0.7818608E-02  0.9497352E-01
         -1   -1    0    0    0  501 -0.00000000000E+00  0.00000000000E+00  0.14571412239E+03  0.14571412239E+03  0.00000000000E+00 0.  1.
          1   -1    0    0  501    0  0.00000000000E+00 -0.00000000000E+00 -0.12244446111E+04  0.12244446111E+04  0.00000000000E+00 0. -1.
         23    2    1    2    0    0 -0.40055571531E+03 -0.10500547352E+03 -0.45547745262E+03  0.62188379903E+03  0.88366957127E+02 0.  0.
         11    1    3    3    0    0 -0.14037647450E+03 -0.64084282563E+01 -0.11099372347E+03  0.17907045875E+03  0.00000000000E+00 0. -1.
        -11    1    3    3    0    0 -0.26017924081E+03 -0.98597045261E+02 -0.34448372915E+03  0.44281334028E+03  0.00000000000E+00 0.  1.
         22    1    1    2    0    0  0.40055571531E+03  0.10500547352E+03 -0.62325303608E+03  0.74827493445E+03  0.00000000000E+00 0. -1.
<mgrwt>
<rscale>  0 0.84479316E+03</rscale>
<asrwt>0</asrwt>
<pdfrwt beam="1">  1        1 0.18837609E+00 0.84479316E+03</pdfrwt>
<pdfrwt beam="2">  1       -1 0.22417558E-01 0.84479316E+03</pdfrwt>
<totfact> 0.17465375E+02</totfact>
</mgrwt>
</event>
<event>
 6    1  0.1780144E-005  0.2145435E+04  0.7818608E-02  0.8541489E-01
          2   -1    0    0  501    0  0.00000000000E+00  0.00000000000E+00  0.19496474177E+04  0.19496474177E+04  0.00000000000E+00 0. -1.
         -2   -1    0    0    0  501 -0.00000000000E+00 -0.00000000000E+00 -0.59022118015E+03  0.59022118015E+03  0.00000000000E+00 0.  1.
         23    2    1    2    0    0  0.67636512251E+03 -0.79263419859E+02  0.16591872690E+04  0.17958194431E+04  0.91173515856E+02 0.  0.
         13    1    3    3    0    0  0.24697674171E+03 -0.70787834563E+02  0.66002347305E+03  0.70826507287E+03  0.00000000000E+00 0.  1.
        -13    1    3    3    0    0  0.42938838080E+03 -0.84755852961E+01  0.99916379591E+03  0.10875543702E+04  0.00000000000E+00 0. -1.
         22    1    1    2    0    0 -0.67636512251E+03  0.79263419859E+02 -0.29976103145E+03  0.74404915473E+03  0.00000000000E+00 0.  1.
<mgrwt>
<rscale>  0 0.21454353E+04</rscale>
<asrwt>0</asrwt>
<pdfrwt beam="1">  1        2 0.29994575E+00 0.21454353E+04</pdfrwt>
<pdfrwt beam="2">  1       -2 0.90803260E-01 0.21454353E+04</pdfrwt>
<totfact> 0.67734590E+00</totfact>
</mgrwt>
</event>
<event>
 6    1  0.1780144E-005  0.2363866E+04  0.7818608E-02  0.8453157E-01
          1   -1    0    0  501    0  0.00000000000E+00  0.00000000000E+00  0.12306542537E+04  0.12306542537E+04  0.00000000000E+00 0. -1.
         -1   -1    0    0    0  501 -0.00000000000E+00 -0.00000000000E+00 -0.11351403231E+04  0.11351403231E+04  0.00000000000E+00 0.  1.
         23    2    1    2    0    0 -0.10544610175E+04 -0.17646851896E+03  0.54759648489E+03  0.12050156092E+04  0.95768118940E+02 0.  0.
         11    1    3    3    0    0 -0.31383280596E+03 -0.77979833515E+02  0.20653507683E+03  0.38370382132E+03  0.00000000000E+00 0. -1.
        -11    1    3    3    0    0 -0.74062821157E+03 -0.98488685443E+02  0.34106140805E+03  0.82131178793E+03  0.00000000000E+00 0.  1.
         22    1    1    2    0    0  0.10544610175E+04  0.17646851896E+03 -0.45208255428E+03  0.11607789676E+04  0.00000000000E+00 0.  1.
<mgrwt>
<rscale>  0 0.23638657E+04</rscale>
<asrwt>0</asrwt>
<pdfrwt beam="1">  1        1 0.18933142E+00 0.23638657E+04</pdfrwt>
<pdfrwt beam="2">  1       -1 0.17463697E+00 0.23638657E+04</pdfrwt>
<totfact> 0.20763555E+00</totfact>
</mgrwt>
</event>
<event>
 6    1  0.1780144E-005  0.2687444E+04  0.7818608E-02  0.8339090E-01
         -2   -1    0    0    0  501 -0.00000000000E+00  0.00000000000E+00  0.10593643528E+04  0.10593643528E+04  0.00000000000E+00 0.  1.
          2   -1    0    0  501    0  0.00000000000E+00 -0.00000000000E+00 -0.17044083567E+04  0.17044083567E+04  0.00000000000E+00 0. -1.
         23    2    1    2    0    0  0.41913404197E+03  0.88485566570E+03 -0.12669656406E+04  0.16038462392E+04  0.92075677128E+02 0.  0.
         11    1    3    3    0    0  0.24820454022E+03  0.46898042736E+03 -0.74969367689E+03  0.91847087281E+03  0.00000000000E+00 0.  1.
        -11    1    3    3    0    0  0.17092950175E+03  0.41587523834E+03 -0.51727196374E+03  0.68537536643E+03  0.00000000000E+00 0. -1.
         22    1    1    2    0    0 -0.41913404197E+03 -0.88485566570E+03  0.62192163666E+03  0.11599264703E+04  0.00000000000E+00 0.  1.
<mgrwt>
<rscale>  0 0.26874445E+04</rscale>
<asrwt>0</asrwt>
<pdfrwt beam="1">  1        2 0.26221667E+00 0.26874445E+04</pdfrwt>
<pdfrwt beam="2">  1       -2 0.16297913E+00 0.26874445E+04</pdfrwt>
<totfact> 0.20513696E+00</totfact>
</mgrwt>
</event>
<event>
 6    1  0.1780144E-005  0.2008074E+04  0.7818608E-02  0.8602855E-01
          1   -1    0    0  501    0  0.00000000000E+00  0.00000000000E+00  0.13659943538E+04  0.13659943538E+04  0.00000000000E+00 0. -1.
         -1   -1    0    0    0  501 -0.00000000000E+00 -0.00000000000E+00 -0.73799011144E+03  0.73799011144E+03  0.00000000000E+00 0.  1.
         23    2    1    2    0    0 -0.18060557413E+03 -0.95344487941E+03  0.53119095843E+02  0.97608001751E+03  0.90747180385E+02 0.  0.
         11    1    3    3    0    0 -0.17703349531E+03 -0.87181199766E+03  0.71005753518E+02  0.89243421873E+03  0.00000000000E+00 0. -1.
        -11    1    3    3    0    0 -0.35720788172E+01 -0.81632881757E+02 -0.17886657675E+02  0.83645798782E+02  0.00000000000E+00 0.  1.
         22    1    1    2    0    0  0.18060557413E+03  0.95344487941E+03  0.57488514648E+03  0.11279044477E+04  0.00000000000E+00 0. -1.
<mgrwt>
<rscale>  0 0.20080740E+04</rscale>
<asrwt>0</asrwt>
<pdfrwt beam="1">  1        1 0.21015298E+00 0.20080740E+04</pdfrwt>
<pdfrwt beam="2">  1       -1 0.11353694E+00 0.20080740E+04</pdfrwt>
<totfact> 0.53273144E+00</totfact>
</mgrwt>
</event>
<event>
 6    1  0.1780144E-005  0.7139447E+04  0.7818608E-02  0.7563223E-01
          2   -1    0    0  501    0  0.00000000000E+00  0.00000000000E+00  0.36728876490E+04  0.36728876490E+04  0.00000000000E+00 0.  1.
         -2   -1    0    0    0  501 -0.00000000000E+00 -0.00000000000E+00 -0.34694565820E+04  0.34694565820E+04  0.00000000000E+00 0. -1.
         23    2    1    2    0    0 -0.29306902230E+04 -0.72895785616E+03 -0.18012878835E+04  0.35175376417E+04  0.90046002525E+02 0.  0.
         13    1    3    3    0    0 -0.25888918266E+03 -0.87153065615E+02 -0.17860905768E+03  0.32637472517E+03  0.00000000000E+00 0. -1.
        -13    1    3    3    0    0 -0.26718010403E+04 -0.64180479055E+03 -0.16226788258E+04  0.31911629165E+04  0.00000000000E+00 0.  1.
         22    1    1    2    0    0  0.29306902230E+04  0.72895785616E+03  0.20047189505E+04  0.36248065893E+04  0.00000000000E+00 0.  1.
<mgrwt>
<rscale>  0 0.71394465E+04</rscale>
<asrwt>0</asrwt>
<pdfrwt beam="1">  1        2 0.56505964E+00 0.71394465E+04</pdfrwt>
<pdfrwt beam="2">  1       -2 0.53376255E+00 0.71394465E+04</pdfrwt>
<totfact> 0.40084783E-04</totfact>
</mgrwt>
</event>
<event>
 6    1  0.1780144E-005  0.2076960E+04  0.7818608E-02  0.8571461E-01
          1   -1    0    0  501    0  0.00000000000E+00  0.00000000000E+00  0.16481188123E+04  0.16481188123E+04  0.00000000000E+00 0.  1.
         -1   -1    0    0    0  501 -0.00000000000E+00 -0.00000000000E+00 -0.65434637039E+03  0.65434637039E+03  0.00000000000E+00 0. -1.
         23    2    1    2    0    0 -0.61638114801E+03  0.76355997422E+03  0.86727031467E+03  0.13130449777E+04  0.94761599844E+02 0.  0.
         13    1    3    3    0    0 -0.34747786768E+03  0.46241274576E+03  0.56623462327E+03  0.80943688114E+03  0.00000000000E+00 0. -1.
        -13    1    3    3    0    0 -0.26890328033E+03  0.30114722846E+03  0.30103569140E+03  0.50360809652E+03  0.00000000000E+00 0.  1.
         22    1    1    2    0    0  0.61638114801E+03 -0.76355997422E+03  0.12650212720E+03  0.98942020498E+03  0.00000000000E+00 0. -1.
<mgrwt>
<rscale>  0 0.20769599E+04</rscale>
<asrwt>0</asrwt>
<pdfrwt beam="1">  1        1 0.25355674E+00 0.20769599E+04</pdfrwt>
<pdfrwt beam="2">  1       -1 0.10066867E+00 0.20769599E+04</pdfrwt>
<totfact> 0.44729771E+00</totfact>
</mgrwt>
</event>
<event>
 6    1  0.1780144E-005  0.7599881E+03  0.7818608E-02  0.9619810E-01
         -1   -1    0    0    0  501 -0.00000000000E+00  0.00000000000E+00  0.24002118535E+03  0.24002118535E+03  0.00000000000E+00 0.  1.
          1   -1    0    0  501    0  0.00000000000E+00 -0.00000000000E+00 -0.60159472696E+03  0.60159472696E+03  0.00000000000E+00 0. -1.
         23    2    1    2    0    0  0.30278849569E+03 -0.21548985890E+03 -0.23299762276E+03  0.44836215287E+03  0.92865362240E+02 0.  0.
         11    1    3    3    0    0  0.55635477643E+02 -0.84998407897E+02 -0.42448605388E+02  0.11009959045E+03  0.00000000000E+00 0. -1.
        -11    1    3    3    0    0  0.24715301804E+03 -0.13049145100E+03 -0.19054901737E+03  0.33826256242E+03  0.00000000000E+00 0.  1.
         22    1    1    2    0    0 -0.30278849569E+03  0.21548985890E+03 -0.12857591884E+03  0.39325375944E+03  0.00000000000E+00 0.  1.
<mgrwt>
<rscale>  0 0.75998810E+03</rscale>
<asrwt>0</asrwt>
<pdfrwt beam="1">  1        1 0.92553033E-01 0.75998810E+03</pdfrwt>
<pdfrwt beam="2">  1       -1 0.36926337E-01 0.75998810E+03</pdfrwt>
<totfact> 0.24309795E+02</totfact>
</mgrwt>
</event>
<event>
 6    1  0.1780144E-005  0.3502151E+03  0.7818608E-02  0.1062527E+00
          1   -1    0    0  501    0  0.00000000000E+00  0.00000000000E+00  0.22111880614E+03  0.22111880614E+03  0.00000000000E+00 0. -1.
         -1   -1    0    0    0  501 -0.00000000000E+00 -0.00000000000E+00 -0.13867047549E+03  0.13867047549E+03  0.00000000000E+00 0.  1.
         23    2    1    2    0    0 -0.45395469402E+02  0.41009860935E+02 -0.11178866412E+03  0.15614604587E+03  0.90234831849E+02 0.  0.
         13    1    3    3    0    0 -0.14597778863E+02  0.65114930343E+02 -0.51542958340E+02  0.84319190317E+02  0.00000000000E+00 0.  1.
        -13    1    3    3    0    0 -0.30797690539E+02 -0.24105069408E+02 -0.60245705777E+02  0.71826855551E+02  0.00000000000E+00 0. -1.
         22    1    1    2    0    0  0.45395469402E+02 -0.41009860935E+02  0.19423699477E+03  0.20364323576E+03  0.00000000000E+00 0. -1.
<mgrwt>
<rscale>  0 0.35021508E+03</rscale>
<asrwt>0</asrwt>
<pdfrwt beam="1">  1        1 0.34018278E-01 0.35021508E+03</pdfrwt>
<pdfrwt beam="2">  1       -1 0.21333919E-01 0.35021508E+03</pdfrwt>
<totfact> 0.23477897E+03</totfact>
</mgrwt>
</event>
<event>
 6    1  0.1780144E-005  0.1216671E+04  0.7818608E-02  0.9098389E-01
         -2   -1    0    0    0  501 -0.00000000000E+00  0.00000000000E+00  0.42050954753E+03  0.42050954753E+03  0.00000000000E+00 0.  1.
          2   -1    0    0  501    0  0.00000000000E+00 -0.00000000000E+00 -0.88005598818E+03  0.88005598818E+03  0.00000000000E+00 0. -1.
         23    2    1    2    0    0 -0.47035988276E+03  0.13522158069E+03 -0.61121064591E+03  0.78819328202E+03  0.90260184743E+02 0.  0.
         11    1    3    3    0    0 -0.22049450838E+03  0.84665397680E+02 -0.23058891479E+03  0.33008681496E+03  0.00000000000E+00 0.  1.
        -11    1    3    3    0    0 -0.24986537438E+03  0.50556183014E+02 -0.38062173112E+03  0.45810646705E+03  0.00000000000E+00 0. -1.
         22    1    1    2    0    0  0.47035988276E+03 -0.13522158069E+03  0.15166420525E+03  0.51237225369E+03  0.00000000000E+00 0.  1.
<mgrwt>
<rscale>  0 0.12166708E+04</rscale>
<asrwt>0</asrwt>
<pdfrwt beam="1">  1        2 0.13539323E+00 0.12166708E+04</pdfrwt>
<pdfrwt beam="2">  1       -2 0.64693777E-01 0.12166708E+04</pdfrwt>
<totfact> 0.65788139E+01</totfact>
</mgrwt>
</event>
<event>
 6    1  0.1780144E-005  0.3133869E+04  0.7818608E-02  0.8206504E-01
          2   -1    0    0  501    0  0.00000000000E+00  0.00000000000E+00  0.27287366018E+04  0.27287366018E+04  0.00000000000E+00 0. -1.
         -2   -1    0    0    0  501 -0.00000000000E+00 -0.00000000000E+00 -0.89978759703E+03  0.89978759703E+03  0.00000000000E+00 0.  1.
         23    2    1    2    0    0  0.66002253994E+03  0.88215592241E+03  0.22031668818E+04  0.24649659303E+04  0.91015953607E+02 0.  0.
         11    1    3    3    0    0  0.39213527187E+03  0.56888492973E+03  0.13008898174E+04  0.14729950617E+04  0.00000000000E+00 0. -1.
        -11    1    3    3    0    0  0.26788726807E+03  0.31327099268E+03  0.90227706443E+03  0.99197086865E+03  0.00000000000E+00 0.  1.
         22    1    1    2    0    0 -0.66002253994E+03 -0.88215592241E+03 -0.37421787707E+03  0.11635582685E+04  0.00000000000E+00 0.  1.
<mgrwt>
<rscale>  0 0.31338688E+04</rscale>
<asrwt>0</asrwt>
<pdfrwt beam="1">  1        2 0.41980563E+00 0.31338688E+04</pdfrwt>
<pdfrwt beam="2">  1       -2 0.13842886E+00 0.31338688E+04</pdfrwt>
<totfact> 0.79896388E-01</totfact>
</mgrwt>
</event>
<event>
 6    1  0.1780144E-005  0.1860815E+04  0.7818608E-02  0.8674611E-01
         -2   -1    0    0    0  501 -0.00000000000E+00  0.00000000000E+00  0.23987369299E+03  0.23987369299E+03  0.00000000000E+00 0.  1.
          2   -1    0    0  501    0  0.00000000000E+00 -0.00000000000E+00 -0.36088076443E+04  0.36088076443E+04  0.00000000000E+00 0. -1.
         23    2    1    2    0    0  0.61050408717E+02 -0.27888184671E+03 -0.35151285375E+04  0.35279398621E+04  0.93428040359E+02 0.  0.
         13    1    3    3    0    0  0.45880035158E+02 -0.12970502656E+03 -0.21984502997E+04  0.22027510281E+04  0.00000000000E+00 0. -1.
        -13    1    3    3    0    0  0.15170373559E+02 -0.14917682016E+03 -0.13166782378E+04  0.13251888340E+04  0.00000000000E+00 0.  1.
         22    1    1    2    0    0 -0.61050408717E+02  0.27888184671E+03  0.14619458623E+03  0.32074147514E+03  0.00000000000E+00 0.  1.
<mgrwt>
<rscale>  0 0.18608149E+04</rscale>
<asrwt>0</asrwt>
<pdfrwt beam="1">  1        2 0.55520116E+00 0.18608149E+04</pdfrwt>
<pdfrwt beam="2">  1       -2 0.36903646E-01 0.18608149E+04</pdfrwt>
<totfact> 0.44600378E+00</totfact>
</mgrwt>
</event>
<event>
 6    1  0.1780144E-005  0.4785506E+04  0.7818608E-02  0.7862475E-01
         -2   -1    0    0    0  501 -0.00000000000E+00  0.00000000000E+00  0.30868654710E+04  0.30868654710E+04  0.00000000000E+00 0. -1.
          2   -1    0    0  501    0  0.00000000000E+00 -0.00000000000E+00 -0.18547184148E+04  0.18547184148E+04  0.00000000000E+00 0.  1.
         23    2    1    2    0    0  0.11930309413E+04  0.20333222732E+04  0.20349423918E+03  0.23694546294E+04  0.12321948788E+03 0.  0.
         11    1    3    3    0    0  0.93731031560E+03  0.15540139791E+04  0.20367422647E+03  0.18261963930E+04  0.00000000000E+00 0. -1.
        -11    1    3    3    0    0  0.25572062567E+03  0.47930829402E+03 -0.17998728756E+00  0.54325823648E+03  0.00000000000E+00 0.  1.
         22    1    1    2    0    0 -0.11930309413E+04 -0.20333222732E+04  0.10286528170E+04  0.25721292563E+04  0.00000000000E+00 0.  1.
<mgrwt>
<rscale>  0 0.47855057E+04</rscale>
<asrwt>0</asrwt>
<pdfrwt beam="1">  1        2 0.28534129E+00 0.47855057E+04</pdfrwt>
<pdfrwt beam="2">  1       -2 0.47490238E+00 0.47855057E+04</pdfrwt>
<totfact> 0.14247019E-02</totfact>
</mgrwt>
</event>
<event>
 6    1  0.1973695E-005  0.3691099E+04  0.7818608E-02  0.8069937E-01
         -2   -1    0    0    0  501 -0.00000000000E+00  0.00000000000E+00  0.13748279020E+04  0.13748279020E+04  0.00000000000E+00 0.  1.
          2   -1    0    0  501    0  0.00000000000E+00 -0.00000000000E+00 -0.24774390562E+04  0.24774390562E+04  0.00000000000E+00 0. -1.
         23    2    1    2    0    0  0.12688747340E+04  0.97546645961E+03 -0.15082564922E+04  0.22011685225E+04  0.93420091702E+02 0.  0.
         11    1    3    3    0    0  0.56092107931E+03  0.47896962225E+03 -0.65715622380E+03  0.98787583164E+03  0.00000000000E+00 0. -1.
        -11    1    3    3    0    0  0.70795365466E+03  0.49649683735E+03 -0.85110026845E+03  0.12132926908E+04  0.00000000000E+00 0.  1.
         22    1    1    2    0    0 -0.12688747340E+04 -0.97546645961E+03  0.40564533808E+03  0.16510984358E+04  0.00000000000E+00 0.  1.
<mgrwt>
<rscale>  0 0.36910987E+04</rscale>
<asrwt>0</asrwt>
<pdfrwt beam="1">  1        2 0.38114447E+00 0.36910987E+04</pdfrwt>
<pdfrwt beam="2">  1       -2 0.21151199E+00 0.36910987E+04</pdfrwt>
<totfact> 0.32494991E-01</totfact>
</mgrwt>
</event>
<event>
 6    1  0.1780144E-005  0.3280248E+04  0.7818608E-02  0.8167940E-01
         -1   -1    0    0    0  501 -0.00000000000E+00  0.00000000000E+00  0.86716563869E+03  0.86716563869E+03  0.00000000000E+00 0.  1.
          1   -1    0    0  501    0  0.00000000000E+00 -0.00000000000E+00 -0.31020672141E+04  0.31020672141E+04  0.00000000000E+00 0. -1.
         23    2    1    2    0    0 -0.15363909229E+04  0.38537876505E+03 -0.16269875062E+04  0.22725969531E+04  0.92707633475E+02 0.  0.
         11    1    3    3    0    0 -0.26717915008E+03  0.99235474589E+02 -0.31710560600E+03  0.42636644217E+03  0.00000000000E+00 0.  1.
        -11    1    3    3    0    0 -0.12692117728E+04  0.28614329046E+03 -0.13098819003E+04  0.18462305110E+04  0.00000000000E+00 0. -1.
         22    1    1    2    0    0  0.15363909229E+04 -0.38537876505E+03 -0.60791406917E+03  0.16966358997E+04  0.00000000000E+00 0.  1.
<mgrwt>
<rscale>  0 0.32802476E+04</rscale>
<asrwt>0</asrwt>
<pdfrwt beam="1">  1        1 0.47724112E+00 0.32802476E+04</pdfrwt>
<pdfrwt beam="2">  1       -1 0.13341010E+00 0.32802476E+04</pdfrwt>
<totfact> 0.19824293E-01</totfact>
</mgrwt>
</event>
<event>
 6    1  0.1780144E-005  0.2740190E+04  0.7818608E-02  0.8322081E-01
          2   -1    0    0  501    0  0.00000000000E+00  0.00000000000E+00  0.28579047319E+04  0.28579047319E+04  0.00000000000E+00 0. -1.
         -2   -1    0    0    0  501 -0.00000000000E+00 -0.00000000000E+00 -0.65683096463E+03  0.65683096463E+03  0.00000000000E+00 0.  1.
         23    2    1    2    0    0  0.78075020831E+03  0.10841598020E+04  0.14821827443E+04  0.19975746415E+04  0.92007590734E+02 0.  0.
         11    1    3    3    0    0  0.49927162683E+03  0.67281185678E+03  0.86455957280E+03  0.12039149500E+04  0.00000000000E+00 0.  1.
        -11    1    3    3    0    0  0.28147858148E+03  0.41134794520E+03  0.61762317150E+03  0.79365969145E+03  0.00000000000E+00 0. -1.
         22    1    1    2    0    0 -0.78075020831E+03 -0.10841598020E+04  0.71889102293E+03  0.15171610550E+04  0.00000000000E+00 0.  1.
<mgrwt>
<rscale>  0 0.27401900E+04</rscale>
<asrwt>0</asrwt>
<pdfrwt beam="1">  1        2 0.43967765E+00 0.27401900E+04</pdfrwt>
<pdfrwt beam="2">  1       -2 0.10105092E+00 0.27401900E+04</pdfrwt>
<totfact> 0.15016920E+00</totfact>
</mgrwt>
</event>
<event>
 6    1  0.1780144E-005  0.2371716E+04  0.7818608E-02  0.8450169E-01
          1   -1    0    0  501    0  0.00000000000E+00  0.00000000000E+00  0.27754142127E+04  0.27754142127E+04  0.00000000000E+00 0. -1.
         -1   -1    0    0    0  501 -0.00000000000E+00 -0.00000000000E+00 -0.50668445350E+03  0.50668445350E+03  0.00000000000E+00 0.  1.
         23    2    1    2    0    0 -0.10246710259E+04  0.13979821470E+03  0.33724672059E+03  0.10911808264E+04  0.86290168669E+02 0.  0.
         11    1    3    3    0    0 -0.35588604815E+03  0.89454948867E+02  0.11122300136E+03  0.38344181198E+03  0.00000000000E+00 0. -1.
        -11    1    3    3    0    0 -0.66878497778E+03  0.50343265833E+02  0.22602371923E+03  0.70773901445E+03  0.00000000000E+00 0.  1.
         22    1    1    2    0    0  0.10246710259E+04 -0.13979821470E+03  0.19314830386E+04  0.21909178398E+04  0.00000000000E+00 0. -1.
<mgrwt>
<rscale>  0 0.23717160E+04</rscale>
<asrwt>0</asrwt>
<pdfrwt beam="1">  1        1 0.42698679E+00 0.23717160E+04</pdfrwt>
<pdfrwt beam="2">  1       -1 0.77951456E-01 0.23717160E+04</pdfrwt>
<totfact> 0.12848219E+00</totfact>
</mgrwt>
</event>
<event>
 6    1  0.1780144E-005  0.3387751E+04  0.7818608E-02  0.8140919E-01
         -2   -1    0    0    0  501 -0.00000000000E+00  0.00000000000E+00  0.18901588400E+04  0.18901588400E+04  0.00000000000E+00 0.  1.
          2   -1    0    0  501    0  0.00000000000E+00 -0.00000000000E+00 -0.15179754644E+04  0.15179754644E+04  0.00000000000E+00 0. -1.
         23    2    1    2    0    0 -0.10447730033E+04  0.11960385237E+04  0.77550825977E+03  0.17696198124E+04  0.89902398271E+02 0.  0.
         13    1    3    3    0    0 -0.72331857527E+03  0.79023535007E+03  0.48472336338E+03  0.11758479531E+04  0.00000000000E+00 0. -1.
        -13    1    3    3    0    0 -0.32145442798E+03  0.40580317359E+03  0.29078489639E+03  0.59377185933E+03  0.00000000000E+00 0.  1.
         22    1    1    2    0    0  0.10447730033E+04 -0.11960385237E+04 -0.40332488418E+03  0.16385144920E+04  0.00000000000E+00 0. -1.
<mgrwt>
<rscale>  0 0.33877513E+04</rscale>
<asrwt>0</asrwt>
<pdfrwt beam="1">  1        2 0.23353469E+00 0.33877513E+04</pdfrwt>
<pdfrwt beam="2">  1       -2 0.29079367E+00 0.33877513E+04</pdfrwt>
<totfact> 0.37206074E-01</totfact>
</mgrwt>
</event>
<event>
 6    1  0.1780144E-005  0.3336638E+04  0.7818608E-02  0.8153635E-01
         -1   -1    0    0    0  501 -0.00000000000E+00  0.00000000000E+00  0.10201525492E+04  0.10201525492E+04  0.00000000000E+00 0.  1.
          1   -1    0    0  501    0  0.00000000000E+00 -0.00000000000E+00 -0.27283054122E+04  0.27283054122E+04  0.00000000000E+00 0. -1.
         23    2    1    2    0    0  0.95928585689E+03 -0.92165160754E+03 -0.19835649637E+04  0.23899577346E+04  0.87732360073E+02 0.  0.
         13    1    3    3    0    0  0.75567714637E+03 -0.74562900290E+03 -0.16381665087E+04  0.19520758360E+04  0.00000000000E+00 0.  1.
        -13    1    3    3    0    0  0.20360871052E+03 -0.17602260463E+03 -0.34539845501E+03  0.43788189853E+03  0.00000000000E+00 0. -1.
         22    1    1    2    0    0 -0.95928585689E+03  0.92165160754E+03  0.27541210067E+03  0.13585002268E+04  0.00000000000E+00 0.  1.
<mgrwt>
<rscale>  0 0.33366377E+04</rscale>
<asrwt>0</asrwt>
<pdfrwt beam="1">  1        1 0.41973929E+00 0.33366377E+04</pdfrwt>
<pdfrwt beam="2">  1       -1 0.15694655E+00 0.33366377E+04</pdfrwt>
<totfact> 0.23886830E-01</totfact>
</mgrwt>
</event>
<event>
 6    1  0.1780144E-005  0.2909914E+04  0.7818608E-02  0.8269934E-01
          1   -1    0    0  501    0  0.00000000000E+00  0.00000000000E+00  0.87314309489E+03  0.87314309489E+03  0.00000000000E+00 0. -1.
         -1   -1    0    0    0  501 -0.00000000000E+00 -0.00000000000E+00 -0.24244591923E+04  0.24244591923E+04  0.00000000000E+00 0.  1.
         23    2    1    2    0    0  0.61695810754E+03  0.12574768155E+04 -0.12165895736E+04  0.18574887175E+04  0.91043379769E+02 0.  0.
         11    1    3    3    0    0  0.27518754400E+03  0.65531230241E+03 -0.64071503463E+03  0.95691073443E+03  0.00000000000E+00 0. -1.
        -11    1    3    3    0    0  0.34177056353E+03  0.60216451306E+03 -0.57587453898E+03  0.90057798304E+03  0.00000000000E+00 0.  1.
         22    1    1    2    0    0 -0.61695810754E+03 -0.12574768155E+04 -0.33472652378E+03  0.14401135697E+04  0.00000000000E+00 0.  1.
<mgrwt>
<rscale>  0 0.29099140E+04</rscale>
<asrwt>0</asrwt>
<pdfrwt beam="1">  1        1 0.13432971E+00 0.29099140E+04</pdfrwt>
<pdfrwt beam="2">  1       -1 0.37299371E+00 0.29099140E+04</pdfrwt>
<totfact> 0.17911572E-01</totfact>
</mgrwt>
</event>
<event>
 6    1  0.1780144E-005  0.5127429E+03  0.7818608E-02  0.1010505E+00
         -2   -1    0    0    0  501 -0.00000000000E+00  0.00000000000E+00  0.54591453664E+03  0.54591453664E+03  0.00000000000E+00 0.  1.
          2   -1    0    0  501    0  0.00000000000E+00 -0.00000000000E+00 -0.12039674091E+03  0.12039674091E+03  0.00000000000E+00 0. -1.
         23    2    1    2    0    0 -0.87764297647E+02 -0.22611589738E+03  0.14945062959E+03  0.29882787491E+03  0.90175590641E+02 0.  0.
         11    1    3    3    0    0 -0.46500690725E+02 -0.34527283992E+02  0.11201007001E+02  0.58990763138E+02  0.00000000000E+00 0. -1.
        -11    1    3    3    0    0 -0.41263606923E+02 -0.19158861339E+03  0.13824962259E+03  0.23983711177E+03  0.00000000000E+00 0.  1.
         22    1    1    2    0    0  0.87764297647E+02  0.22611589738E+03  0.27606716615E+03  0.36748340264E+03  0.00000000000E+00 0. -1.
<mgrwt>
<rscale>  0 0.51274294E+03</rscale>
<asrwt>0</asrwt>
<pdfrwt beam="1">  1        2 0.18522576E-01 0.51274294E+03</pdfrwt>
<pdfrwt beam="2">  1       -2 0.83986851E-01 0.51274294E+03</pdfrwt>
<totfact> 0.38925756E+02</totfact>
</mgrwt>
</event>
<event>
 6    1  0.1780144E-005  0.3154097E+04  0.7818608E-02  0.8201046E-01
          1   -1    0    0  501    0  0.00000000000E+00  0.00000000000E+00  0.17256919640E+04  0.17256919640E+04  0.00000000000E+00 0. -1.
         -1   -1    0    0    0  501 -0.00000000000E+00 -0.00000000000E+00 -0.14412085407E+04  0.14412085407E+04  0.00000000000E+00 0.  1.
         23    2    1    2    0    0 -0.14657516134E+04 -0.24844399302E+03  0.66641751689E+03  0.16319653719E+04  0.95112871529E+02 0.  0.
         13    1    3    3    0    0 -0.80837918260E+02 -0.31829337765E+02  0.53830589509E+02  0.10220375795E+03  0.00000000000E+00 0. -1.
        -13    1    3    3    0    0 -0.13849136952E+04 -0.21661465526E+03  0.61258692738E+03  0.15297616140E+04  0.00000000000E+00 0.  1.
         22    1    1    2    0    0  0.14657516134E+04  0.24844399302E+03 -0.38193409363E+03  0.15349351328E+04  0.00000000000E+00 0.  1.
<mgrwt>
<rscale>  0 0.31540970E+04</rscale>
<asrwt>0</asrwt>
<pdfrwt beam="1">  1        1 0.26549107E+00 0.31540970E+04</pdfrwt>
<pdfrwt beam="2">  1       -1 0.22172439E+00 0.31540970E+04</pdfrwt>
<totfact> 0.41203762E-01</totfact>
</mgrwt>
</event>
<event>
 6    1  0.1780144E-005  0.1887331E+04  0.7818608E-02  0.8661188E-01
         -1   -1    0    0    0  501 -0.00000000000E+00  0.00000000000E+00  0.13980143378E+04  0.13980143378E+04  0.00000000000E+00 0.  1.
          1   -1    0    0  501    0  0.00000000000E+00 -0.00000000000E+00 -0.63697842576E+03  0.63697842576E+03  0.00000000000E+00 0. -1.
         23    2    1    2    0    0 -0.48547961692E+03  0.88027139621E+02  0.12459822648E+04  0.13431747233E+04  0.90594134914E+02 0.  0.
         11    1    3    3    0    0 -0.41292394875E+03  0.43819854467E+02  0.99373077452E+03  0.10769991733E+04  0.00000000000E+00 0. -1.
        -11    1    3    3    0    0 -0.72555668164E+02  0.44207285154E+02  0.25225149026E+03  0.26617554994E+03  0.00000000000E+00 0.  1.
         22    1    1    2    0    0  0.48547961692E+03 -0.88027139621E+02 -0.48494635278E+03  0.69181804026E+03  0.00000000000E+00 0. -1.
<mgrwt>
<rscale>  0 0.18873314E+04</rscale>
<asrwt>0</asrwt>
<pdfrwt beam="1">  1        1 0.97996681E-01 0.18873314E+04</pdfrwt>
<pdfrwt beam="2">  1       -1 0.21507913E+00 0.18873314E+04</pdfrwt>
<totfact> 0.34904006E+00</totfact>
</mgrwt>
</event>
<event>
 6    1  0.1780144E-005  0.3984969E+04  0.7818608E-02  0.8007586E-01
          2   -1    0    0  501    0  0.00000000000E+00  0.00000000000E+00  0.14228735649E+04  0.14228735649E+04  0.00000000000E+00 0. -1.
         -2   -1    0    0    0  501 -0.00000000000E+00 -0.00000000000E+00 -0.27901245437E+04  0.27901245437E+04  0.00000000000E+00 0.  1.
         23    2    1    2    0    0  0.19824467607E+04 -0.18357154452E+03 -0.63666100430E+03  0.20922540453E+04  0.91630150667E+02 0.  0.
         11    1    3    3    0    0  0.17482700229E+04 -0.13530587763E+03 -0.57441978420E+03  0.18451866686E+04  0.00000000000E+00 0.  1.
        -11    1    3    3    0    0  0.23417673780E+03 -0.48265666891E+02 -0.62241220092E+02  0.24706737665E+03  0.00000000000E+00 0. -1.
         22    1    1    2    0    0 -0.19824467607E+04  0.18357154452E+03 -0.73058997444E+03  0.21207440633E+04  0.00000000000E+00 0.  1.
<mgrwt>
<rscale>  0 0.39849690E+04</rscale>
<asrwt>0</asrwt>
<pdfrwt beam="1">  1        2 0.21890363E+00 0.39849690E+04</pdfrwt>
<pdfrwt beam="2">  1       -2 0.42924993E+00 0.39849690E+04</pdfrwt>
<totfact> 0.52800093E-02</totfact>
</mgrwt>
</event>
<event>
 6    1  0.1780144E-005  0.2169169E+04  0.7818608E-02  0.8531371E-01
          2   -1    0    0  501    0  0.00000000000E+00  0.00000000000E+00  0.24938196513E+04  0.24938196513E+04  0.00000000000E+00 0. -1.
         -2   -1    0    0    0  501 -0.00000000000E+00 -0.00000000000E+00 -0.47169572536E+03  0.47169572536E+03  0.00000000000E+00 0.  1.
         23    2    1    2    0    0 -0.72539446629E+02  0.58665533881E+03  0.22529281679E+04  0.23309312167E+04  0.90158468788E+02 0.  0.
         13    1    3    3    0    0 -0.66116577603E+02  0.25269756399E+03  0.87939152211E+03  0.91736410974E+03  0.00000000000E+00 0. -1.
        -13    1    3    3    0    0 -0.64228690254E+01  0.33395777482E+03  0.13735366458E+04  0.14135671070E+04  0.00000000000E+00 0.  1.
         22    1    1    2    0    0  0.72539446629E+02 -0.58665533881E+03 -0.23080424200E+03  0.63458415990E+03  0.00000000000E+00 0.  1.
<mgrwt>
<rscale>  0 0.21691695E+04</rscale>
<asrwt>0</asrwt>
<pdfrwt beam="1">  1        2 0.38366455E+00 0.21691695E+04</pdfrwt>
<pdfrwt beam="2">  1       -2 0.72568574E-01 0.21691695E+04</pdfrwt>
<totfact> 0.55250732E+00</totfact>
</mgrwt>
</event>
<event>
 6    1  0.1780144E-005  0.3016928E+04  0.7818608E-02  0.8238914E-01
          2   -1    0    0  501    0  0.00000000000E+00  0.00000000000E+00  0.26907652714E+04  0.26907652714E+04  0.00000000000E+00 0. -1.
         -2   -1    0    0    0  501 -0.00000000000E+00 -0.00000000000E+00 -0.84565650093E+03  0.84565650093E+03  0.00000000000E+00 0.  1.
         23    2    1    2    0    0  0.12851530916E+04  0.29066614871E+02  0.11721888079E+01  0.12886305333E+04  0.90021887594E+02 0.  0.
         11    1    3    3    0    0  0.50686131874E+03 -0.30370931485E+02 -0.13159408597E+02  0.50794090203E+03  0.00000000000E+00 0. -1.
        -11    1    3    3    0    0  0.77829177290E+03  0.59437546356E+02  0.14331597405E+02  0.78068963126E+03  0.00000000000E+00 0.  1.
         22    1    1    2    0    0 -0.12851530916E+04 -0.29066614871E+02  0.18439365816E+04  0.22477912390E+04  0.00000000000E+00 0. -1.
<mgrwt>
<rscale>  0 0.30169277E+04</rscale>
<asrwt>0</asrwt>
<pdfrwt beam="1">  1        2 0.41396388E+00 0.30169277E+04</pdfrwt>
<pdfrwt beam="2">  1       -2 0.13010100E+00 0.30169277E+04</pdfrwt>
<totfact> 0.99610845E-01</totfact>
</mgrwt>
</event>
<event>
 6    1  0.1780144E-005  0.1943477E+04  0.7818608E-02  0.8633513E-01
         -2   -1    0    0    0  501 -0.00000000000E+00  0.00000000000E+00  0.35565517956E+03  0.35565517956E+03  0.00000000000E+00 0.  1.
          2   -1    0    0  501    0  0.00000000000E+00 -0.00000000000E+00 -0.26550310116E+04  0.26550310116E+04  0.00000000000E+00 0. -1.
         23    2    1    2    0    0 -0.65745653080E+03 -0.69522002391E+03 -0.90893617943E+03  0.13228170022E+04  0.89999285866E+02 0.  0.
         11    1    3    3    0    0 -0.19708412332E+03 -0.24096044918E+03 -0.34552812823E+03  0.46507394802E+03  0.00000000000E+00 0.  1.
        -11    1    3    3    0    0 -0.46037240748E+03 -0.45425957473E+03 -0.56340805120E+03  0.85774305416E+03  0.00000000000E+00 0. -1.
         22    1    1    2    0    0  0.65745653080E+03  0.69522002391E+03 -0.13904396526E+04  0.16878691890E+04  0.00000000000E+00 0. -1.
<mgrwt>
<rscale>  0 0.19434768E+04</rscale>
<asrwt>0</asrwt>
<pdfrwt beam="1">  1        2 0.40846631E+00 0.19434768E+04</pdfrwt>
<pdfrwt beam="2">  1       -2 0.54716182E-01 0.19434768E+04</pdfrwt>
<totfact> 0.82929023E+00</totfact>
</mgrwt>
</event>
<event>
 6    1  0.1780144E-005  0.6469618E+03  0.7818608E-02  0.9812497E-01
          1   -1    0    0  501    0  0.00000000000E+00  0.00000000000E+00  0.81383429006E+03  0.81383429006E+03  0.00000000000E+00 0. -1.
         -1   -1    0    0    0  501 -0.00000000000E+00 -0.00000000000E+00 -0.12857640655E+03  0.12857640655E+03  0.00000000000E+00 0.  1.
         23    2    1    2    0    0 -0.17113454902E+03  0.86652734826E+02 -0.18112718762E+02  0.21335244485E+03  0.91626769126E+02 0.  0.
         13    1    3    3    0    0 -0.55778116531E+02 -0.14760104963E+02 -0.15461687920E+02  0.59733765791E+02  0.00000000000E+00 0.  1.
        -13    1    3    3    0    0 -0.11535643249E+03  0.10141283979E+03 -0.26510308416E+01  0.15361867906E+03  0.00000000000E+00 0. -1.
         22    1    1    2    0    0  0.17113454902E+03 -0.86652734826E+02  0.70337060227E+03  0.72905825176E+03  0.00000000000E+00 0. -1.
<mgrwt>
<rscale>  0 0.64696179E+03</rscale>
<asrwt>0</asrwt>
<pdfrwt beam="1">  1        1 0.12520527E+00 0.64696179E+03</pdfrwt>
<pdfrwt beam="2">  1       -1 0.19780986E-01 0.64696179E+03</pdfrwt>
<totfact> 0.45313957E+02</totfact>
</mgrwt>
</event>
<event>
 6    1  0.1780144E-005  0.7153951E+03  0.7818608E-02  0.9691261E-01
          1   -1    0    0  501    0  0.00000000000E+00  0.00000000000E+00  0.27931556984E+04  0.27931556984E+04  0.00000000000E+00 0. -1.
         -1   -1    0    0    0  501 -0.00000000000E+00 -0.00000000000E+00 -0.45807519403E+02  0.45807519403E+02  0.00000000000E+00 0.  1.
         23    2    1    2    0    0 -0.16369856639E+03 -0.35226777449E+01  0.26319450111E+04  0.26386446689E+04  0.92203671510E+02 0.  0.
         13    1    3    3    0    0 -0.67026319439E+02 -0.30430420536E+02  0.64879318898E+03  0.65295569533E+03  0.00000000000E+00 0.  1.
        -13    1    3    3    0    0 -0.96672246948E+02  0.26907742791E+02  0.19831518221E+04  0.19856889735E+04  0.00000000000E+00 0. -1.
         22    1    1    2    0    0  0.16369856639E+03  0.35226777449E+01  0.11540316788E+03  0.20031854895E+03  0.00000000000E+00 0.  1.
<mgrwt>
<rscale>  0 0.71539509E+03</rscale>
<asrwt>0</asrwt>
<pdfrwt beam="1">  1        1 0.42971613E+00 0.71539509E+03</pdfrwt>
<pdfrwt beam="2">  1       -1 0.70473128E-02 0.71539509E+03</pdfrwt>
<totfact> 0.97201108E+01</totfact>
</mgrwt>
</event>
<event>
 6    1  0.1780144E-005  0.2698286E+04  0.7818608E-02  0.8335561E-01
         -2   -1    0    0    0  501 -0.00000000000E+00  0.00000000000E+00  0.11825211592E+04  0.11825211592E+04  0.00000000000E+00 0.  1.
          2   -1    0    0  501    0  0.00000000000E+00 -0.00000000000E+00 -0.15392427630E+04  0.15392427630E+04  0.00000000000E+00 0. -1.
         23    2    1    2    0    0 -0.13135011859E+04 -0.30061780866E+03 -0.14938528608E+03  0.13584426904E+04  0.85989226818E+02 0.  0.
         13    1    3    3    0    0 -0.40047398839E+03 -0.66626407449E+02 -0.76235189422E+02  0.41307420357E+03  0.00000000000E+00 0. -1.
        -13    1    3    3    0    0 -0.91302719753E+03 -0.23399140121E+03 -0.73150096658E+02  0.94536848684E+03  0.00000000000E+00 0.  1.
         22    1    1    2    0    0  0.13135011859E+04  0.30061780866E+03 -0.20733631768E+03  0.13633212317E+04  0.00000000000E+00 0.  1.
<mgrwt>
<rscale>  0 0.26982862E+04</rscale>
<asrwt>0</asrwt>
<pdfrwt beam="1">  1        2 0.23680658E+00 0.26982862E+04</pdfrwt>
<pdfrwt beam="2">  1       -2 0.18192633E+00 0.26982862E+04</pdfrwt>
<totfact> 0.18617022E+00</totfact>
</mgrwt>
</event>
<event>
 6    1  0.1780144E-005  0.1131542E+04  0.7818608E-02  0.9174983E-01
          1   -1    0    0  501    0  0.00000000000E+00  0.00000000000E+00  0.22759353185E+04  0.22759353185E+04  0.00000000000E+00 0. -1.
         -1   -1    0    0    0  501 -0.00000000000E+00 -0.00000000000E+00 -0.14064398912E+03  0.14064398912E+03  0.00000000000E+00 0.  1.
         23    2    1    2    0    0  0.77699220364E+02  0.37882120428E+03  0.20498608254E+03  0.44791960629E+03  0.95236579147E+02 0.  0.
         11    1    3    3    0    0  0.10052063428E+02  0.26897518687E+03  0.14311201430E+03  0.30484380225E+03  0.00000000000E+00 0. -1.
        -11    1    3    3    0    0  0.67647156935E+02  0.10984601741E+03  0.61874068231E+02  0.14307580404E+03  0.00000000000E+00 0.  1.
         22    1    1    2    0    0 -0.77699220364E+02 -0.37882120428E+03  0.19303052468E+04  0.19686597013E+04  0.00000000000E+00 0. -1.
<mgrwt>
<rscale>  0 0.11315416E+04</rscale>
<asrwt>0</asrwt>
<pdfrwt beam="1">  1        1 0.35014387E+00 0.11315416E+04</pdfrwt>
<pdfrwt beam="2">  1       -1 0.21637538E-01 0.11315416E+04</pdfrwt>
<totfact> 0.34622715E+01</totfact>
</mgrwt>
</event>
<event>
 6    1  0.1780144E-005  0.2397138E+04  0.7818608E-02  0.8440576E-01
         -2   -1    0    0    0  501 -0.00000000000E+00  0.00000000000E+00  0.10781102045E+04  0.10781102045E+04  0.00000000000E+00 0.  1.
          2   -1    0    0  501    0  0.00000000000E+00 -0.00000000000E+00 -0.13324871689E+04  0.13324871689E+04  0.00000000000E+00 0. -1.
         23    2    1    2    0    0  0.23771609341E+03  0.63794887110E+03  0.86243405007E+03  0.11026392145E+04  0.92374474082E+02 0.  0.
         13    1    3    3    0    0  0.14196242879E+03  0.30056394213E+03  0.36097012949E+03  0.49070505284E+03  0.00000000000E+00 0. -1.
        -13    1    3    3    0    0  0.95753664627E+02  0.33738492896E+03  0.50146392058E+03  0.61193416167E+03  0.00000000000E+00 0.  1.
         22    1    1    2    0    0 -0.23771609341E+03 -0.63794887110E+03 -0.11168110145E+04  0.13079581589E+04  0.00000000000E+00 0. -1.
<mgrwt>
<rscale>  0 0.23971383E+04</rscale>
<asrwt>0</asrwt>
<pdfrwt beam="1">  1        2 0.20499803E+00 0.23971383E+04</pdfrwt>
<pdfrwt beam="2">  1       -2 0.16586311E+00 0.23971383E+04</pdfrwt>
<totfact> 0.32490651E+00</totfact>
</mgrwt>
</event>
<event>
 6    1  0.1780144E-005  0.1249047E+04  0.7818608E-02  0.9070977E-01
         -1   -1    0    0    0  501 -0.00000000000E+00  0.00000000000E+00  0.45824309357E+03  0.45824309357E+03  0.00000000000E+00 0. -1.
          1   -1    0    0  501    0  0.00000000000E+00 -0.00000000000E+00 -0.85114117537E+03  0.85114117537E+03  0.00000000000E+00 0.  1.
         23    2    1    2    0    0 -0.12577241679E+03  0.32217891236E+03 -0.73829841876E+03  0.82059050345E+03  0.93092786045E+02 0.  0.
         13    1    3    3    0    0 -0.44933508592E+02  0.47169446019E+02 -0.84350061438E+02  0.10657818584E+03  0.00000000000E+00 0.  1.
        -13    1    3    3    0    0 -0.80838908202E+02  0.27500946634E+03 -0.65394835733E+03  0.71401231761E+03  0.00000000000E+00 0. -1.
         22    1    1    2    0    0  0.12577241679E+03 -0.32217891236E+03  0.34540033697E+03  0.48879376548E+03  0.00000000000E+00 0. -1.
<mgrwt>
<rscale>  0 0.12490469E+04</rscale>
<asrwt>0</asrwt>
<pdfrwt beam="1">  1        1 0.13094480E+00 0.12490469E+04</pdfrwt>
<pdfrwt beam="2">  1       -1 0.70498938E-01 0.12490469E+04</pdfrwt>
<totfact> 0.40083291E+01</totfact>
</mgrwt>
</event>
<event>
 6    1  0.1780144E-005  0.1938725E+04  0.7818608E-02  0.8635817E-01
         -2   -1    0    0    0  501 -0.00000000000E+00  0.00000000000E+00  0.36539091679E+03  0.36539091679E+03  0.00000000000E+00 0.  1.
          2   -1    0    0  501    0  0.00000000000E+00 -0.00000000000E+00 -0.25716676467E+04  0.25716676467E+04  0.00000000000E+00 0. -1.
         23    2    1    2    0    0 -0.87962527661E+03 -0.23289495018E+03 -0.16025486474E+04  0.18450566026E+04  0.89950066024E+02 0.  0.
         11    1    3    3    0    0 -0.37122307971E+03 -0.56845965962E+02 -0.62108517432E+03  0.72579944373E+03  0.00000000000E+00 0.  1.
        -11    1    3    3    0    0 -0.50840219690E+03 -0.17604898422E+03 -0.98146347304E+03  0.11192571588E+04  0.00000000000E+00 0. -1.
         22    1    1    2    0    0  0.87962527661E+03  0.23289495018E+03 -0.60372808259E+03  0.10920019610E+04  0.00000000000E+00 0.  1.
<mgrwt>
<rscale>  0 0.19387254E+04</rscale>
<asrwt>0</asrwt>
<pdfrwt beam="1">  1        2 0.39564116E+00 0.19387254E+04</pdfrwt>
<pdfrwt beam="2">  1       -2 0.56213989E-01 0.19387254E+04</pdfrwt>
<totfact> 0.87778035E+00</totfact>
</mgrwt>
</event>
<event>
 6    1  0.1780144E-005  0.3825296E+04  0.7818608E-02  0.8040748E-01
         -2   -1    0    0    0  501 -0.00000000000E+00  0.00000000000E+00  0.16800265391E+04  0.16800265391E+04  0.00000000000E+00 0.  1.
          2   -1    0    0  501    0  0.00000000000E+00 -0.00000000000E+00 -0.21774789620E+04  0.21774789620E+04  0.00000000000E+00 0. -1.
         23    2    1    2    0    0  0.13087457795E+04  0.13930398516E+04 -0.27551958858E+03  0.19332836516E+04  0.91099342301E+02 0.  0.
         11    1    3    3    0    0  0.16330672578E+03  0.18838697625E+03 -0.65488606670E+02  0.25777412032E+03  0.00000000000E+00 0.  1.
        -11    1    3    3    0    0  0.11454390537E+04  0.12046528754E+04 -0.21003098191E+03  0.16755095312E+04  0.00000000000E+00 0. -1.
         22    1    1    2    0    0 -0.13087457795E+04 -0.13930398516E+04 -0.22193283434E+03  0.19242218496E+04  0.00000000000E+00 0.  1.
<mgrwt>
<rscale>  0 0.38252960E+04</rscale>
<asrwt>0</asrwt>
<pdfrwt beam="1">  1        2 0.33499676E+00 0.38252960E+04</pdfrwt>
<pdfrwt beam="2">  1       -2 0.25846562E+00 0.38252960E+04</pdfrwt>
<totfact> 0.24255954E-01</totfact>
</mgrwt>
</event>
<event>
 6    1  0.1780144E-005  0.2071403E+04  0.7818608E-02  0.8573946E-01
         -2   -1    0    0    0  501 -0.00000000000E+00  0.00000000000E+00  0.11105272217E+04  0.11105272217E+04  0.00000000000E+00 0. -1.
          2   -1    0    0  501    0  0.00000000000E+00 -0.00000000000E+00 -0.96591788118E+03  0.96591788118E+03  0.00000000000E+00 0.  1.
         23    2    1    2    0    0  0.67733200851E+03 -0.77027941485E+03 -0.56326675850E+02  0.10312253608E+04  0.90244243928E+02 0.  0.
         11    1    3    3    0    0  0.23554794095E+03 -0.22297396751E+03 -0.47527472000E+02  0.32780952284E+03  0.00000000000E+00 0. -1.
        -11    1    3    3    0    0  0.44178406756E+03 -0.54730544734E+03 -0.87992038505E+01  0.70341583791E+03  0.00000000000E+00 0.  1.
         22    1    1    2    0    0 -0.67733200851E+03  0.77027941485E+03  0.20093601639E+03  0.10452197421E+04  0.00000000000E+00 0.  1.
<mgrwt>
<rscale>  0 0.20714035E+04</rscale>
<asrwt>0</asrwt>
<pdfrwt beam="1">  1        2 0.14860275E+00 0.20714035E+04</pdfrwt>
<pdfrwt beam="2">  1       -2 0.17085034E+00 0.20714035E+04</pdfrwt>
<totfact> 0.51445490E+00</totfact>
</mgrwt>
</event>
<event>
 6    1  0.1780144E-005  0.1503938E+04  0.7818608E-02  0.8881839E-01
         -2   -1    0    0    0  501 -0.00000000000E+00  0.00000000000E+00  0.31571990905E+03  0.31571990905E+03  0.00000000000E+00 0. -1.
          2   -1    0    0  501    0  0.00000000000E+00 -0.00000000000E+00 -0.17910084550E+04  0.17910084550E+04  0.00000000000E+00 0.  1.
         23    2    1    2    0    0 -0.58044135610E+03 -0.85937738613E+02 -0.87407782071E+02  0.59990704833E+03  0.89167726670E+02 0.  0.
         11    1    3    3    0    0 -0.28662608506E+03 -0.69803943598E+02 -0.79563881327E+02  0.30554461931E+03  0.00000000000E+00 0. -1.
        -11    1    3    3    0    0 -0.29381527105E+03 -0.16133795015E+02 -0.78439007435E+01  0.29436242902E+03  0.00000000000E+00 0.  1.
         22    1    1    2    0    0  0.58044135610E+03  0.85937738613E+02 -0.13878807639E+04  0.15068213158E+04  0.00000000000E+00 0.  1.
<mgrwt>
<rscale>  0 0.15039375E+04</rscale>
<asrwt>0</asrwt>
<pdfrwt beam="1">  1        2 0.27553977E+00 0.15039375E+04</pdfrwt>
<pdfrwt beam="2">  1       -2 0.48572293E-01 0.15039375E+04</pdfrwt>
<totfact> 0.33843577E+01</totfact>
</mgrwt>
</event>
<event>
 6    1  0.1780144E-005  0.4753543E+04  0.7818608E-02  0.7867693E-01
         -1   -1    0    0    0  501 -0.00000000000E+00  0.00000000000E+00  0.16430709168E+04  0.16430709168E+04  0.00000000000E+00 0.  1.
          1   -1    0    0  501    0  0.00000000000E+00 -0.00000000000E+00 -0.34380997706E+04  0.34380997706E+04  0.00000000000E+00 0. -1.
         23    2    1    2    0    0  0.10883953616E+04 -0.45743228834E+03 -0.31017135823E+04  0.33201273203E+04  0.93645689589E+02 0.  0.
         11    1    3    3    0    0  0.50554235696E+03 -0.16197599884E+03 -0.13941113048E+04  0.14917625914E+04  0.00000000000E+00 0.  1.
        -11    1    3    3    0    0  0.58285300459E+03 -0.29545628950E+03 -0.17076022774E+04  0.18283647289E+04  0.00000000000E+00 0. -1.
         22    1    1    2    0    0 -0.10883953616E+04  0.45743228834E+03  0.13066847284E+04  0.17610433671E+04  0.00000000000E+00 0.  1.
<mgrwt>
<rscale>  0 0.47535426E+04</rscale>
<asrwt>0</asrwt>
<pdfrwt beam="1">  1        1 0.52893842E+00 0.47535426E+04</pdfrwt>
<pdfrwt beam="2">  1       -1 0.25278015E+00 0.47535426E+04</pdfrwt>
<totfact> 0.13741930E-02</totfact>
</mgrwt>
</event>
<event>
 6    1  0.1780144E-005  0.2828070E+04  0.7818608E-02  0.8294606E-01
          2   -1    0    0  501    0  0.00000000000E+00  0.00000000000E+00  0.37865594029E+04  0.37865594029E+04  0.00000000000E+00 0. -1.
         -2   -1    0    0    0  501 -0.00000000000E+00 -0.00000000000E+00 -0.52805073766E+03  0.52805073766E+03  0.00000000000E+00 0.  1.
         23    2    1    2    0    0 -0.80263290764E+03  0.17577388241E+03  0.33839457192E+04  0.34834359731E+04  0.90119398121E+02 0.  0.
         11    1    3    3    0    0 -0.11431405955E+03  0.58190239852E+02  0.51652247246E+03  0.53221168042E+03  0.00000000000E+00 0. -1.
        -11    1    3    3    0    0 -0.68831884808E+03  0.11758364256E+03  0.28674232467E+04  0.29512242926E+04  0.00000000000E+00 0.  1.
         22    1    1    2    0    0  0.80263290764E+03 -0.17577388241E+03 -0.12543705396E+03  0.83117416747E+03  0.00000000000E+00 0.  1.
<mgrwt>
<rscale>  0 0.28280704E+04</rscale>
<asrwt>0</asrwt>
<pdfrwt beam="1">  1        2 0.58254758E+00 0.28280704E+04</pdfrwt>
<pdfrwt beam="2">  1       -2 0.81238578E-01 0.28280704E+04</pdfrwt>
<totfact> 0.58291117E-01</totfact>
</mgrwt>
</event>
<event>
 6    1  0.1780144E-005  0.3292131E+04  0.7818608E-02  0.8164900E-01
         -2   -1    0    0    0  501 -0.00000000000E+00  0.00000000000E+00  0.14150375697E+04  0.14150375697E+04  0.00000000000E+00 0.  1.
          2   -1    0    0  501    0  0.00000000000E+00 -0.00000000000E+00 -0.19148128240E+04  0.19148128240E+04  0.00000000000E+00 0. -1.
         23    2    1    2    0    0 -0.42865756272E+03 -0.14503800490E+04 -0.90412575253E+03  0.17643316560E+04  0.89851117251E+02 0.  0.
         13    1    3    3    0    0 -0.21585656995E+03 -0.71448566445E+03 -0.49825516709E+03  0.89740851067E+03  0.00000000000E+00 0.  1.
        -13    1    3    3    0    0 -0.21280099277E+03 -0.73589438455E+03 -0.40587058545E+03  0.86692314531E+03  0.00000000000E+00 0. -1.
         22    1    1    2    0    0  0.42865756272E+03  0.14503800490E+04  0.40435049828E+03  0.15655187377E+04  0.00000000000E+00 0.  1.
<mgrwt>
<rscale>  0 0.32921313E+04</rscale>
<asrwt>0</asrwt>
<pdfrwt beam="1">  1        2 0.29458659E+00 0.32921313E+04</pdfrwt>
<pdfrwt beam="2">  1       -2 0.21769809E+00 0.32921313E+04</pdfrwt>
<totfact> 0.63658064E-01</totfact>
</mgrwt>
</event>
<event>
 6    1  0.1780144E-005  0.1980812E+04  0.7818608E-02  0.8615645E-01
          2   -1    0    0  501    0  0.00000000000E+00  0.00000000000E+00  0.13749816786E+04  0.13749816786E+04  0.00000000000E+00 0. -1.
         -2   -1    0    0    0  501 -0.00000000000E+00 -0.00000000000E+00 -0.71339432405E+03  0.71339432405E+03  0.00000000000E+00 0.  1.
         23    2    1    2    0    0 -0.37032176909E+03 -0.30074975238E+03  0.12438621391E+04  0.13356260103E+04  0.95473515177E+02 0.  0.
         13    1    3    3    0    0 -0.21200941421E+03 -0.11133149907E+03  0.63134480113E+03  0.67523251722E+03  0.00000000000E+00 0. -1.
        -13    1    3    3    0    0 -0.15831235488E+03 -0.18941825332E+03  0.61251733802E+03  0.66039349313E+03  0.00000000000E+00 0.  1.
         22    1    1    2    0    0  0.37032176909E+03  0.30074975238E+03 -0.58227478456E+03  0.75274999233E+03  0.00000000000E+00 0.  1.
<mgrwt>
<rscale>  0 0.19808121E+04</rscale>
<asrwt>0</asrwt>
<pdfrwt beam="1">  1        2 0.21153564E+00 0.19808121E+04</pdfrwt>
<pdfrwt beam="2">  1       -2 0.10975297E+00 0.19808121E+04</pdfrwt>
<totfact> 0.91957745E+00</totfact>
</mgrwt>
</event>
<event>
 6    1  0.1780144E-005  0.3549535E+04  0.7818608E-02  0.8102150E-01
          2   -1    0    0  501    0  0.00000000000E+00  0.00000000000E+00  0.55308229482E+04  0.55308229482E+04  0.00000000000E+00 0. -1.
         -2   -1    0    0    0  501 -0.00000000000E+00 -0.00000000000E+00 -0.56949917019E+03  0.56949917019E+03  0.00000000000E+00 0.  1.
         23    2    1    2    0    0 -0.12520591681E+04 -0.65822329730E+03  0.64388457717E+03  0.15570643310E+04  0.94614548442E+02 0.  0.
         11    1    3    3    0    0 -0.33872039177E+03 -0.20198240055E+03  0.13950207981E+03  0.41831713353E+03  0.00000000000E+00 0.  1.
        -11    1    3    3    0    0 -0.91333877630E+03 -0.45624089674E+03  0.50438249736E+03  0.11387471975E+04  0.00000000000E+00 0. -1.
         22    1    1    2    0    0  0.12520591681E+04  0.65822329730E+03  0.43174392008E+04  0.45432577874E+04  0.00000000000E+00 0. -1.
<mgrwt>
<rscale>  0 0.35495347E+04</rscale>
<asrwt>0</asrwt>
<pdfrwt beam="1">  1        2 0.85089580E+00 0.35495347E+04</pdfrwt>
<pdfrwt beam="2">  1       -2 0.87615261E-01 0.35495347E+04</pdfrwt>
<totfact> 0.47660075E-03</totfact>
</mgrwt>
</event>
<event>
 6    1  0.1780144E-005  0.2922643E+04  0.7818608E-02  0.8266172E-01
          2   -1    0    0  501    0  0.00000000000E+00  0.00000000000E+00  0.20225890471E+04  0.20225890471E+04  0.00000000000E+00 0. -1.
         -2   -1    0    0    0  501 -0.00000000000E+00 -0.00000000000E+00 -0.10558057317E+04  0.10558057317E+04  0.00000000000E+00 0.  1.
         23    2    1    2    0    0  0.35628060861E+02  0.14567880474E+04  0.57646125973E+03  0.15698020302E+04  0.92032907821E+02 0.  0.
         13    1    3    3    0    0  0.32264200558E+02  0.13029885618E+04  0.48420146173E+03  0.13904212406E+04  0.00000000000E+00 0. -1.
        -13    1    3    3    0    0  0.33638603037E+01  0.15379948565E+03  0.92259798001E+02  0.17938078957E+03  0.00000000000E+00 0.  1.
         22    1    1    2    0    0 -0.35628060861E+02 -0.14567880474E+04  0.39032205571E+03  0.15085927486E+04  0.00000000000E+00 0. -1.
<mgrwt>
<rscale>  0 0.29226434E+04</rscale>
<asrwt>0</asrwt>
<pdfrwt beam="1">  1        2 0.31116755E+00 0.29226434E+04</pdfrwt>
<pdfrwt beam="2">  1       -2 0.16243165E+00 0.29226434E+04</pdfrwt>
<totfact> 0.13516196E+00</totfact>
</mgrwt>
</event>
<event>
 6    1  0.1780144E-005  0.2217071E+04  0.7818608E-02  0.8511356E-01
         -1   -1    0    0    0  501 -0.00000000000E+00  0.00000000000E+00  0.61494193421E+03  0.61494193421E+03  0.00000000000E+00 0.  1.
          1   -1    0    0  501    0  0.00000000000E+00 -0.00000000000E+00 -0.19983197547E+04  0.19983197547E+04  0.00000000000E+00 0. -1.
         23    2    1    2    0    0 -0.74997833688E+03 -0.76321462309E+03 -0.10255988130E+04  0.14850020180E+04  0.91727867440E+02 0.  0.
         11    1    3    3    0    0 -0.32215356967E+03 -0.37128943297E+03 -0.42343297907E+03  0.64879446148E+03  0.00000000000E+00 0. -1.
        -11    1    3    3    0    0 -0.42782476720E+03 -0.39192519012E+03 -0.60216583394E+03  0.83620755656E+03  0.00000000000E+00 0.  1.
         22    1    1    2    0    0  0.74997833688E+03  0.76321462309E+03 -0.35777900746E+03  0.11282596708E+04  0.00000000000E+00 0. -1.
<mgrwt>
<rscale>  0 0.22170707E+04</rscale>
<asrwt>0</asrwt>
<pdfrwt beam="1">  1        1 0.30743381E+00 0.22170707E+04</pdfrwt>
<pdfrwt beam="2">  1       -1 0.94606451E-01 0.22170707E+04</pdfrwt>
<totfact> 0.29392721E+00</totfact>
</mgrwt>
</event>
<event>
 6    1  0.1780144E-005  0.3028301E+04  0.7818608E-02  0.8235695E-01
          2   -1    0    0  501    0  0.00000000000E+00  0.00000000000E+00  0.82045222313E+03  0.82045222313E+03  0.00000000000E+00 0. -1.
         -2   -1    0    0    0  501 -0.00000000000E+00 -0.00000000000E+00 -0.27943765669E+04  0.27943765669E+04  0.00000000000E+00 0.  1.
         23    2    1    2    0    0  0.94246904320E+03  0.10702336110E+04 -0.38524074554E+03  0.14799837243E+04  0.91068725183E+02 0.  0.
         13    1    3    3    0    0  0.41227110599E+03  0.42406394561E+03 -0.12438769844E+03  0.60437570626E+03  0.00000000000E+00 0.  1.
        -13    1    3    3    0    0  0.53019793722E+03  0.64616966535E+03 -0.26085304710E+03  0.87560801803E+03  0.00000000000E+00 0. -1.
         22    1    1    2    0    0 -0.94246904320E+03 -0.10702336110E+04 -0.15886835983E+04  0.21348450658E+04  0.00000000000E+00 0.  1.
<mgrwt>
<rscale>  0 0.30283015E+04</rscale>
<asrwt>0</asrwt>
<pdfrwt beam="1">  1        2 0.12622342E+00 0.30283015E+04</pdfrwt>
<pdfrwt beam="2">  1       -2 0.42990408E+00 0.30283015E+04</pdfrwt>
<totfact> 0.13395008E-01</totfact>
</mgrwt>
</event>
<event>
 6    1  0.1780144E-005  0.5395961E+04  0.7818608E-02  0.7770169E-01
         -2   -1    0    0    0  501 -0.00000000000E+00  0.00000000000E+00  0.20450847521E+04  0.20450847521E+04  0.00000000000E+00 0.  1.
          2   -1    0    0  501    0  0.00000000000E+00 -0.00000000000E+00 -0.35593136679E+04  0.35593136679E+04  0.00000000000E+00 0. -1.
         23    2    1    2    0    0  0.12832446083E+04 -0.11164761767E+04 -0.29314227176E+04  0.33904259608E+04  0.92267377818E+02 0.  0.
         11    1    3    3    0    0  0.11671289117E+04 -0.10352713494E+04 -0.26438492526E+04  0.30698396594E+04  0.00000000000E+00 0. -1.
        -11    1    3    3    0    0  0.11611569655E+03 -0.81204827280E+02 -0.28757346494E+03  0.32058630148E+03  0.00000000000E+00 0.  1.
         22    1    1    2    0    0 -0.12832446083E+04  0.11164761767E+04  0.14171938018E+04  0.22139724591E+04  0.00000000000E+00 0.  1.
<mgrwt>
<rscale>  0 0.53959608E+04</rscale>
<asrwt>0</asrwt>
<pdfrwt beam="1">  1        2 0.54758671E+00 0.53959608E+04</pdfrwt>
<pdfrwt beam="2">  1       -2 0.31462843E+00 0.53959608E+04</pdfrwt>
<totfact> 0.13430085E-02</totfact>
</mgrwt>
</event>
<event>
 6    1  0.1780144E-005  0.3216182E+04  0.7818608E-02  0.8184556E-01
          1   -1    0    0  501    0  0.00000000000E+00  0.00000000000E+00  0.93994917173E+03  0.93994917173E+03  0.00000000000E+00 0. -1.
         -1   -1    0    0    0  501 -0.00000000000E+00 -0.00000000000E+00 -0.27511671420E+04  0.27511671420E+04  0.00000000000E+00 0.  1.
         23    2    1    2    0    0 -0.12076835231E+04 -0.69576681911E+03  0.11227661637E+02  0.13967974519E+04  0.91247481228E+02 0.  0.
         13    1    3    3    0    0 -0.10416984605E+04 -0.58195461309E+03 -0.18375215727E+02  0.11933752565E+04  0.00000000000E+00 0.  1.
        -13    1    3    3    0    0 -0.16598506258E+03 -0.11381220602E+03  0.29602877365E+02  0.20342219541E+03  0.00000000000E+00 0. -1.
         22    1    1    2    0    0  0.12076835231E+04  0.69576681911E+03 -0.18224456319E+04  0.22943188618E+04  0.00000000000E+00 0.  1.
<mgrwt>
<rscale>  0 0.32161824E+04</rscale>
<asrwt>0</asrwt>
<pdfrwt beam="1">  1        1 0.14460757E+00 0.32161824E+04</pdfrwt>
<pdfrwt beam="2">  1       -1 0.42325648E+00 0.32161824E+04</pdfrwt>
<totfact> 0.69778507E-02</totfact>
</mgrwt>
</event>
<event>
 6    1  0.1780144E-005  0.3440030E+04  0.7818608E-02  0.8128151E-01
         -1   -1    0    0    0  501 -0.00000000000E+00  0.00000000000E+00  0.12426030062E+04  0.12426030062E+04  0.00000000000E+00 0. -1.
          1   -1    0    0  501    0  0.00000000000E+00 -0.00000000000E+00 -0.23808507318E+04  0.23808507318E+04  0.00000000000E+00 0.  1.
         23    2    1    2    0    0 -0.12042276954E+04 -0.64118391113E+03 -0.16706619989E+04  0.21589585661E+04  0.93324301339E+02 0.  0.
         13    1    3    3    0    0 -0.71503380341E+01  0.14572811473E+01 -0.29895232381E+01  0.78859527982E+01  0.00000000000E+00 0.  1.
        -13    1    3    3    0    0 -0.11970773574E+04 -0.64264119228E+03 -0.16676724757E+04  0.21510726133E+04  0.00000000000E+00 0. -1.
         22    1    1    2    0    0  0.12042276954E+04  0.64118391113E+03  0.53241427325E+03  0.14644951719E+04  0.00000000000E+00 0. -1.
<mgrwt>
<rscale>  0 0.34400304E+04</rscale>
<asrwt>0</asrwt>
<pdfrwt beam="1">  1        1 0.36628473E+00 0.34400304E+04</pdfrwt>
<pdfrwt beam="2">  1       -1 0.19116969E+00 0.34400304E+04</pdfrwt>
<totfact> 0.23281302E-01</totfact>
</mgrwt>
</event>
<event>
 6    1  0.1780144E-005  0.1826344E+04  0.7818608E-02  0.8692414E-01
          1   -1    0    0  501    0  0.00000000000E+00  0.00000000000E+00  0.14532909789E+04  0.14532909789E+04  0.00000000000E+00 0. -1.
         -1   -1    0    0    0  501 -0.00000000000E+00 -0.00000000000E+00 -0.57378926581E+03  0.57378926581E+03  0.00000000000E+00 0.  1.
         23    2    1    2    0    0 -0.72477636056E+03  0.44263233039E+03  0.80658807692E+03  0.11747067637E+04  0.90152660329E+02 0.  0.
         11    1    3    3    0    0 -0.53139336416E+03  0.34144165560E+03  0.54707932031E+03  0.83561779203E+03  0.00000000000E+00 0. -1.
        -11    1    3    3    0    0 -0.19338299640E+03  0.10119067479E+03  0.25950875661E+03  0.33908897168E+03  0.00000000000E+00 0.  1.
         22    1    1    2    0    0  0.72477636056E+03 -0.44263233039E+03  0.72913636158E+02  0.85237348097E+03  0.00000000000E+00 0.  1.
<mgrwt>
<rscale>  0 0.18263436E+04</rscale>
<asrwt>0</asrwt>
<pdfrwt beam="1">  1        1 0.22358323E+00 0.18263436E+04</pdfrwt>
<pdfrwt beam="2">  1       -1 0.88275272E-01 0.18263436E+04</pdfrwt>
<totfact> 0.83668510E+00</totfact>
</mgrwt>
</event>
<event>
 6    1  0.1780144E-005  0.3976812E+04  0.7818608E-02  0.8009241E-01
          2   -1    0    0  501    0  0.00000000000E+00  0.00000000000E+00  0.24863174860E+04  0.24863174860E+04  0.00000000000E+00 0. -1.
         -2   -1    0    0    0  501 -0.00000000000E+00 -0.00000000000E+00 -0.15902064232E+04  0.15902064232E+04  0.00000000000E+00 0.  1.
         23    2    1    2    0    0 -0.68281385377E+03  0.18051121420E+04 -0.37660694349E+02  0.19325569555E+04  0.93238696626E+02 0.  0.
         13    1    3    3    0    0 -0.55490809837E+03  0.14898496647E+04  0.36339334501E+01  0.15898390568E+04  0.00000000000E+00 0.  1.
        -13    1    3    3    0    0 -0.12790575540E+03  0.31526247724E+03 -0.41294627799E+02  0.34271789872E+03  0.00000000000E+00 0. -1.
         22    1    1    2    0    0  0.68281385377E+03 -0.18051121420E+04  0.93377175706E+03  0.21439669536E+04  0.00000000000E+00 0. -1.
<mgrwt>
<rscale>  0 0.39768118E+04</rscale>
<asrwt>0</asrwt>
<pdfrwt beam="1">  1        2 0.38251038E+00 0.39768118E+04</pdfrwt>
<pdfrwt beam="2">  1       -2 0.24464714E+00 0.39768118E+04</pdfrwt>
<totfact> 0.19427623E-01</totfact>
</mgrwt>
</event>
<event>
 6    1  0.1780144E-005  0.1107263E+04  0.7818608E-02  0.9198141E-01
         -1   -1    0    0    0  501 -0.00000000000E+00  0.00000000000E+00  0.41730087798E+03  0.41730087798E+03  0.00000000000E+00 0.  1.
          1   -1    0    0  501    0  0.00000000000E+00 -0.00000000000E+00 -0.73450128413E+03  0.73450128413E+03  0.00000000000E+00 0. -1.
         23    2    1    2    0    0 -0.94760065540E+02  0.53808788646E+03 -0.22830546010E+03  0.59824967589E+03  0.85212956839E+02 0.  0.
         11    1    3    3    0    0 -0.37314044371E+02  0.32241162016E+03 -0.94596236824E+02  0.33806809779E+03  0.00000000000E+00 0. -1.
        -11    1    3    3    0    0 -0.57446021169E+02  0.21567626630E+03 -0.13370922327E+03  0.26018157810E+03  0.00000000000E+00 0.  1.
         22    1    1    2    0    0  0.94760065540E+02 -0.53808788646E+03 -0.88894946054E+02  0.55355248623E+03  0.00000000000E+00 0. -1.
<mgrwt>
<rscale>  0 0.11072633E+04</rscale>
<asrwt>0</asrwt>
<pdfrwt beam="1">  1        1 0.11300020E+00 0.11072633E+04</pdfrwt>
<pdfrwt beam="2">  1       -1 0.64200136E-01 0.11072633E+04</pdfrwt>
<totfact> 0.62018384E+01</totfact>
</mgrwt>
</event>
<event>
 6    1  0.1780144E-005  0.1088858E+04  0.7818608E-02  0.9216120E-01
         -1   -1    0    0    0  501 -0.00000000000E+00  0.00000000000E+00  0.20342084620E+03  0.20342084620E+03  0.00000000000E+00 0.  1.
          1   -1    0    0  501    0  0.00000000000E+00 -0.00000000000E+00 -0.14570921437E+04  0.14570921437E+04  0.00000000000E+00 0. -1.
         23    2    1    2    0    0  0.29356730159E+03  0.39706451817E+03 -0.96491401649E+03  0.10884791102E+04  0.99426968378E+02 0.  0.
         13    1    3    3    0    0  0.15214094481E+03  0.28574744497E+03 -0.62302091332E+03  0.70210649322E+03  0.00000000000E+00 0. -1.
        -13    1    3    3    0    0  0.14142635678E+03  0.11131707320E+03 -0.34189310317E+03  0.38637261701E+03  0.00000000000E+00 0.  1.
         22    1    1    2    0    0 -0.29356730159E+03 -0.39706451817E+03 -0.28875728102E+03  0.57203387967E+03  0.00000000000E+00 0.  1.
<mgrwt>
<rscale>  0 0.10888580E+04</rscale>
<asrwt>0</asrwt>
<pdfrwt beam="1">  1        1 0.22416803E+00 0.10888580E+04</pdfrwt>
<pdfrwt beam="2">  1       -1 0.31295514E-01 0.10888580E+04</pdfrwt>
<totfact> 0.66153608E+01</totfact>
</mgrwt>
</event>
<event>
 6    1  0.1780144E-005  0.7180409E+03  0.7818608E-02  0.9686868E-01
          1   -1    0    0  501    0  0.00000000000E+00  0.00000000000E+00  0.29980184882E+03  0.29980184882E+03  0.00000000000E+00 0. -1.
         -1   -1    0    0    0  501 -0.00000000000E+00 -0.00000000000E+00 -0.42993627107E+03  0.42993627107E+03  0.00000000000E+00 0.  1.
         23    2    1    2    0    0 -0.14123721330E+03 -0.63499032277E+02  0.25624282625E+03  0.31348404402E+03  0.92907385764E+02 0.  0.
         13    1    3    3    0    0 -0.66335303280E+02 -0.60403133206E+02  0.73557658360E+02  0.11601568888E+03  0.00000000000E+00 0. -1.
        -13    1    3    3    0    0 -0.74901910024E+02 -0.30958990708E+01  0.18268516789E+03  0.19746835514E+03  0.00000000000E+00 0.  1.
         22    1    1    2    0    0  0.14123721330E+03  0.63499032277E+02 -0.38637724850E+03  0.41625407587E+03  0.00000000000E+00 0.  1.
<mgrwt>
<rscale>  0 0.71804092E+03</rscale>
<asrwt>0</asrwt>
<pdfrwt beam="1">  1        1 0.46123361E-01 0.71804092E+03</pdfrwt>
<pdfrwt beam="2">  1       -1 0.66144042E-01 0.71804092E+03</pdfrwt>
<totfact> 0.20616795E+02</totfact>
</mgrwt>
</event>
<event>
 6    1  0.1780144E-005  0.3093765E+04  0.7818608E-02  0.8217451E-01
         -1   -1    0    0    0  501 -0.00000000000E+00  0.00000000000E+00  0.28119853999E+04  0.28119853999E+04  0.00000000000E+00 0.  1.
          1   -1    0    0  501    0  0.00000000000E+00 -0.00000000000E+00 -0.85094528959E+03  0.85094528959E+03  0.00000000000E+00 0. -1.
         23    2    1    2    0    0 -0.81098455022E+03  0.41941107521E+03 -0.49509998587E+03  0.10425822847E+04  0.90841805172E+02 0.  0.
         11    1    3    3    0    0 -0.51448313256E+03  0.26215859965E+03 -0.36210079176E+03  0.68156951843E+03  0.00000000000E+00 0. -1.
        -11    1    3    3    0    0 -0.29650141767E+03  0.15725247556E+03 -0.13299919410E+03  0.36101276623E+03  0.00000000000E+00 0.  1.
         22    1    1    2    0    0  0.81098455022E+03 -0.41941107521E+03  0.24561400962E+04  0.26203484049E+04  0.00000000000E+00 0.  1.
<mgrwt>
<rscale>  0 0.30937652E+04</rscale>
<asrwt>0</asrwt>
<pdfrwt beam="1">  1        1 0.13091466E+00 0.30937652E+04</pdfrwt>
<pdfrwt beam="2">  1       -1 0.43261313E+00 0.30937652E+04</pdfrwt>
<totfact> 0.71938172E-02</totfact>
</mgrwt>
</event>
<event>
 6    1  0.1780144E-005  0.1912050E+04  0.7818608E-02  0.8648882E-01
          2   -1    0    0  501    0  0.00000000000E+00  0.00000000000E+00  0.22295438013E+04  0.22295438013E+04  0.00000000000E+00 0. -1.
         -2   -1    0    0    0  501 -0.00000000000E+00 -0.00000000000E+00 -0.40994199802E+03  0.40994199802E+03  0.00000000000E+00 0.  1.
         23    2    1    2    0    0  0.80446531594E+02  0.67901222940E+03  0.18300914470E+04  0.19556442352E+04  0.88206678364E+02 0.  0.
         13    1    3    3    0    0  0.56916684448E+02  0.64167791415E+03  0.17373949560E+04  0.18529790305E+04  0.00000000000E+00 0.  1.
        -13    1    3    3    0    0  0.23529847146E+02  0.37334315247E+02  0.92696491046E+02  0.10266520469E+03  0.00000000000E+00 0. -1.
         22    1    1    2    0    0 -0.80446531594E+02 -0.67901222940E+03 -0.10489643793E+02  0.68384156407E+03  0.00000000000E+00 0. -1.
<mgrwt>
<rscale>  0 0.19120498E+04</rscale>
<asrwt>0</asrwt>
<pdfrwt beam="1">  1        2 0.34300673E+00 0.19120498E+04</pdfrwt>
<pdfrwt beam="2">  1       -2 0.63068001E-01 0.19120498E+04</pdfrwt>
<totfact> 0.10832088E+01</totfact>
</mgrwt>
</event>
<event>
 6    1  0.1780144E-005  0.1947525E+04  0.7818608E-02  0.8631555E-01
         -1   -1    0    0    0  501 -0.00000000000E+00  0.00000000000E+00  0.13038216926E+04  0.13038216926E+04  0.00000000000E+00 0.  1.
          1   -1    0    0  501    0  0.00000000000E+00 -0.00000000000E+00 -0.72725692567E+03  0.72725692567E+03  0.00000000000E+00 0. -1.
         23    2    1    2    0    0  0.18234751729E+03  0.72103452886E+02  0.12813354462E+04  0.12995383014E+04  0.92356624132E+02 0.  0.
         11    1    3    3    0    0  0.10283421386E+02  0.36687710771E+02  0.15671899267E+03  0.16128415775E+03  0.00000000000E+00 0. -1.
        -11    1    3    3    0    0  0.17206409590E+03  0.35415742115E+02  0.11246164535E+04  0.11382541436E+04  0.00000000000E+00 0.  1.
         22    1    1    2    0    0 -0.18234751729E+03 -0.72103452886E+02 -0.70477067925E+03  0.73154031694E+03  0.00000000000E+00 0. -1.
<mgrwt>
<rscale>  0 0.19475249E+04</rscale>
<asrwt>0</asrwt>
<pdfrwt beam="1">  1        1 0.11188568E+00 0.19475249E+04</pdfrwt>
<pdfrwt beam="2">  1       -1 0.20058795E+00 0.19475249E+04</pdfrwt>
<totfact> 0.35693508E+00</totfact>
</mgrwt>
</event>
<event>
 6    1  0.1780144E-005  0.4122575E+04  0.7818608E-02  0.7980266E-01
          1   -1    0    0  501    0  0.00000000000E+00  0.00000000000E+00  0.15982568166E+04  0.15982568166E+04  0.00000000000E+00 0. -1.
         -1   -1    0    0    0  501 -0.00000000000E+00 -0.00000000000E+00 -0.26584628919E+04  0.26584628919E+04  0.00000000000E+00 0.  1.
         23    2    1    2    0    0  0.19773182320E+04 -0.27827715775E+03 -0.10542619770E+04  0.22599070234E+04  0.92118787046E+02 0.  0.
         11    1    3    3    0    0  0.12292691924E+04 -0.18629649098E+03 -0.70436485520E+03  0.14289643030E+04  0.00000000000E+00 0. -1.
        -11    1    3    3    0    0  0.74804903959E+03 -0.91980666769E+02 -0.34989712180E+03  0.83094272037E+03  0.00000000000E+00 0.  1.
         22    1    1    2    0    0 -0.19773182320E+04  0.27827715775E+03 -0.59440983521E+01  0.19968126851E+04  0.00000000000E+00 0. -1.
<mgrwt>
<rscale>  0 0.41225751E+04</rscale>
<asrwt>0</asrwt>
<pdfrwt beam="1">  1        1 0.24588567E+00 0.41225751E+04</pdfrwt>
<pdfrwt beam="2">  1       -1 0.40899429E+00 0.41225751E+04</pdfrwt>
<totfact> 0.26898395E-02</totfact>
</mgrwt>
</event>
<event>
 6    1  0.1780144E-005  0.2428441E+04  0.7818608E-02  0.8428932E-01
          1   -1    0    0  501    0  0.00000000000E+00  0.00000000000E+00  0.19520856423E+04  0.19520856423E+04  0.00000000000E+00 0. -1.
         -1   -1    0    0    0  501 -0.00000000000E+00 -0.00000000000E+00 -0.75525952691E+03  0.75525952691E+03  0.00000000000E+00 0.  1.
         23    2    1    2    0    0  0.85681023014E+03  0.31777243086E+03 -0.28911628198E+03  0.96288883655E+03  0.91997819349E+02 0.  0.
         11    1    3    3    0    0  0.43288770897E+03  0.13652922664E+03 -0.10139206553E+03  0.46509391445E+03  0.00000000000E+00 0. -1.
        -11    1    3    3    0    0  0.42392252116E+03  0.18124320421E+03 -0.18772421645E+03  0.49779492210E+03  0.00000000000E+00 0.  1.
         22    1    1    2    0    0 -0.85681023014E+03 -0.31777243086E+03  0.14859423973E+04  0.17444563326E+04  0.00000000000E+00 0. -1.
<mgrwt>
<rscale>  0 0.24284409E+04</rscale>
<asrwt>0</asrwt>
<pdfrwt beam="1">  1        1 0.30032087E+00 0.24284409E+04</pdfrwt>
<pdfrwt beam="2">  1       -1 0.11619377E+00 0.24284409E+04</pdfrwt>
<totfact> 0.19219883E+00</totfact>
</mgrwt>
</event>
<event>
 6    1  0.1780144E-005  0.3874142E+04  0.7818608E-02  0.8030429E-01
         -1   -1    0    0    0  501 -0.00000000000E+00  0.00000000000E+00  0.12305635749E+04  0.12305635749E+04  0.00000000000E+00 0.  1.
          1   -1    0    0  501    0  0.00000000000E+00 -0.00000000000E+00 -0.30492081516E+04  0.30492081516E+04  0.00000000000E+00 0. -1.
         23    2    1    2    0    0 -0.33419805262E+03  0.95451969617E+03  0.91436257118E+03  0.13656467705E+04  0.78332632474E+02 0.  0.
         11    1    3    3    0    0 -0.27556576308E+03  0.70379780974E+03  0.65444686301E+03  0.99978424836E+03  0.00000000000E+00 0. -1.
        -11    1    3    3    0    0 -0.58632289543E+02  0.25072188644E+03  0.25991570817E+03  0.36586252209E+03  0.00000000000E+00 0.  1.
         22    1    1    2    0    0  0.33419805262E+03 -0.95451969617E+03 -0.27330071479E+04  0.29141249560E+04  0.00000000000E+00 0. -1.
<mgrwt>
<rscale>  0 0.38741422E+04</rscale>
<asrwt>0</asrwt>
<pdfrwt beam="1">  1        1 0.46910895E+00 0.38741422E+04</pdfrwt>
<pdfrwt beam="2">  1       -1 0.18931747E+00 0.38741422E+04</pdfrwt>
<totfact> 0.77670634E-02</totfact>
</mgrwt>
</event>
<event>
 6    1  0.1780144E-005  0.9009445E+03  0.7818608E-02  0.9424402E-01
         -2   -1    0    0    0  501 -0.00000000000E+00  0.00000000000E+00  0.81232506994E+02  0.81232506994E+02  0.00000000000E+00 0.  1.
          2   -1    0    0  501    0  0.00000000000E+00 -0.00000000000E+00 -0.24980791333E+04  0.24980791333E+04  0.00000000000E+00 0. -1.
         23    2    1    2    0    0  0.35719636426E+03 -0.40085052210E+02 -0.46587160619E+03  0.59550227869E+03  0.91599980465E+02 0.  0.
         13    1    3    3    0    0  0.16314986375E+03 -0.61472990106E+02 -0.24529196835E+03  0.30094012077E+03  0.00000000000E+00 0.  1.
        -13    1    3    3    0    0  0.19404650051E+03  0.21387937896E+02 -0.22057963784E+03  0.29456215792E+03  0.00000000000E+00 0. -1.
         22    1    1    2    0    0 -0.35719636426E+03  0.40085052210E+02 -0.19509750201E+04  0.19838093616E+04  0.00000000000E+00 0. -1.
<mgrwt>
<rscale>  0 0.90094446E+03</rscale>
<asrwt>0</asrwt>
<pdfrwt beam="1">  1        2 0.38431987E+00 0.90094446E+03</pdfrwt>
<pdfrwt beam="2">  1       -2 0.12497309E-01 0.90094446E+03</pdfrwt>
<totfact> 0.16986234E+02</totfact>
</mgrwt>
</event>
<event>
 6    1  0.1780144E-005  0.4571117E+03  0.7818608E-02  0.1025622E+00
         -1   -1    0    0    0  501 -0.00000000000E+00  0.00000000000E+00  0.45832856913E+03  0.45832856913E+03  0.00000000000E+00 0.  1.
          1   -1    0    0  501    0  0.00000000000E+00 -0.00000000000E+00 -0.11397452513E+03  0.11397452513E+03  0.00000000000E+00 0. -1.
         23    2    1    2    0    0 -0.13148772662E+03 -0.17219830602E+03  0.22622785226E+03  0.32553381737E+03  0.88611208466E+02 0.  0.
         11    1    3    3    0    0 -0.60754121496E+01 -0.44926536980E+02  0.90253978767E+02  0.10100042099E+03  0.00000000000E+00 0.  1.
        -11    1    3    3    0    0 -0.12541231447E+03 -0.12727176904E+03  0.13597387349E+03  0.22453339637E+03  0.00000000000E+00 0. -1.
         22    1    1    2    0    0  0.13148772662E+03  0.17219830602E+03  0.11812619174E+03  0.24676927690E+03  0.00000000000E+00 0.  1.
<mgrwt>
<rscale>  0 0.45711172E+03</rscale>
<asrwt>0</asrwt>
<pdfrwt beam="1">  1        1 0.17534543E-01 0.45711172E+03</pdfrwt>
<pdfrwt beam="2">  1       -1 0.70512087E-01 0.45711172E+03</pdfrwt>
<totfact> 0.64167417E+02</totfact>
</mgrwt>
</event>
<event>
 6    1  0.1780144E-005  0.3096745E+04  0.7818608E-02  0.8216632E-01
         -2   -1    0    0    0  501 -0.00000000000E+00  0.00000000000E+00  0.14230539827E+04  0.14230539827E+04  0.00000000000E+00 0. -1.
          2   -1    0    0  501    0  0.00000000000E+00 -0.00000000000E+00 -0.16847269696E+04  0.16847269696E+04  0.00000000000E+00 0.  1.
         23    2    1    2    0    0 -0.33518595189E+03 -0.16992642210E+03 -0.16370247272E+04  0.16820120296E+04  0.89943866000E+02 0.  0.
         11    1    3    3    0    0 -0.16092290575E+03 -0.58841348305E+02 -0.57154725033E+03  0.59667809179E+03  0.00000000000E+00 0.  1.
        -11    1    3    3    0    0 -0.17426304614E+03 -0.11108507380E+03 -0.10654774769E+04  0.10853339378E+04  0.00000000000E+00 0. -1.
         22    1    1    2    0    0  0.33518595189E+03  0.16992642210E+03  0.13753517403E+04  0.14257689226E+04  0.00000000000E+00 0. -1.
<mgrwt>
<rscale>  0 0.30967450E+04</rscale>
<asrwt>0</asrwt>
<pdfrwt beam="1">  1        2 0.25918876E+00 0.30967450E+04</pdfrwt>
<pdfrwt beam="2">  1       -2 0.21893138E+00 0.30967450E+04</pdfrwt>
<totfact> 0.85270769E-01</totfact>
</mgrwt>
</event>
<event>
 6    1  0.1780144E-005  0.2259765E+04  0.7818608E-02  0.8493956E-01
         -2   -1    0    0    0  501 -0.00000000000E+00  0.00000000000E+00  0.14396149167E+04  0.14396149167E+04  0.00000000000E+00 0.  1.
          2   -1    0    0  501    0  0.00000000000E+00 -0.00000000000E+00 -0.88678852722E+03  0.88678852722E+03  0.00000000000E+00 0. -1.
         23    2    1    2    0    0 -0.21207144976E+03  0.30200315884E+03 -0.82079288606E+03  0.90407784059E+03  0.86461391837E+02 0.  0.
         13    1    3    3    0    0 -0.36632748915E+02  0.49917229366E+02 -0.73309761697E+02  0.95958372437E+02  0.00000000000E+00 0. -1.
        -13    1    3    3    0    0 -0.17543870084E+03  0.25208592947E+03 -0.74748312437E+03  0.80811946815E+03  0.00000000000E+00 0.  1.
         22    1    1    2    0    0  0.21207144976E+03 -0.30200315884E+03  0.13736192756E+04  0.14223256034E+04  0.00000000000E+00 0.  1.
<mgrwt>
<rscale>  0 0.22597646E+04</rscale>
<asrwt>0</asrwt>
<pdfrwt beam="1">  1        2 0.13642900E+00 0.22597646E+04</pdfrwt>
<pdfrwt beam="2">  1       -2 0.22147922E+00 0.22597646E+04</pdfrwt>
<totfact> 0.26328890E+00</totfact>
</mgrwt>
</event>
<event>
 6    1  0.1780144E-005  0.2366519E+04  0.7818608E-02  0.8452146E-01
         -1   -1    0    0    0  501 -0.00000000000E+00  0.00000000000E+00  0.87653745903E+03  0.87653745903E+03  0.00000000000E+00 0. -1.
          1   -1    0    0  501    0  0.00000000000E+00 -0.00000000000E+00 -0.15973106402E+04  0.15973106402E+04  0.00000000000E+00 0.  1.
         23    2    1    2    0    0  0.82039165157E+03  0.48663885018E+03  0.36777710558E+03  0.10265051685E+04  0.92698592559E+02 0.  0.
         11    1    3    3    0    0  0.22691150214E+03  0.13109255833E+03  0.14606377938E+03  0.30001452681E+03  0.00000000000E+00 0.  1.
        -11    1    3    3    0    0  0.59348014943E+03  0.35554629185E+03  0.22171332620E+03  0.72649064167E+03  0.00000000000E+00 0. -1.
         22    1    1    2    0    0 -0.82039165157E+03 -0.48663885018E+03 -0.10885502868E+04  0.14473429308E+04  0.00000000000E+00 0.  1.
<mgrwt>
<rscale>  0 0.23665186E+04</rscale>
<asrwt>0</asrwt>
<pdfrwt beam="1">  1        1 0.24574010E+00 0.23665186E+04</pdfrwt>
<pdfrwt beam="2">  1       -1 0.13485192E+00 0.23665186E+04</pdfrwt>
<totfact> 0.23264732E+00</totfact>
</mgrwt>
</event>
<event>
 6    1  0.1780144E-005  0.2467282E+04  0.7818608E-02  0.8414735E-01
          2   -1    0    0  501    0  0.00000000000E+00  0.00000000000E+00  0.17601503967E+04  0.17601503967E+04  0.00000000000E+00 0. -1.
         -2   -1    0    0    0  501 -0.00000000000E+00 -0.00000000000E+00 -0.86462495864E+03  0.86462495864E+03  0.00000000000E+00 0.  1.
         23    2    1    2    0    0 -0.98775325182E+03  0.46774900127E+03 -0.15625772798E+03  0.11079716624E+04  0.93483219775E+02 0.  0.
         11    1    3    3    0    0 -0.73327325887E+03  0.39049779081E+03 -0.12698247911E+03  0.84041819757E+03  0.00000000000E+00 0. -1.
        -11    1    3    3    0    0 -0.25447999294E+03  0.77251210462E+02 -0.29275248879E+02  0.26755346479E+03  0.00000000000E+00 0.  1.
         22    1    1    2    0    0  0.98775325182E+03 -0.46774900127E+03  0.10517831660E+04  0.15168036930E+04  0.00000000000E+00 0. -1.
<mgrwt>
<rscale>  0 0.24672819E+04</rscale>
<asrwt>0</asrwt>
<pdfrwt beam="1">  1        2 0.27079237E+00 0.24672819E+04</pdfrwt>
<pdfrwt beam="2">  1       -2 0.13301922E+00 0.24672819E+04</pdfrwt>
<totfact> 0.33270667E+00</totfact>
</mgrwt>
</event>
<event>
 6    1  0.2381889E-005  0.3388183E+04  0.7818608E-02  0.8140813E-01
         -2   -1    0    0    0  501 -0.00000000000E+00  0.00000000000E+00  0.15028845806E+04  0.15028845806E+04  0.00000000000E+00 0.  1.
          2   -1    0    0  501    0  0.00000000000E+00 -0.00000000000E+00 -0.19096255923E+04  0.19096255923E+04  0.00000000000E+00 0. -1.
         23    2    1    2    0    0  0.50822463954E+03  0.15921479396E+04  0.69581505446E+02  0.16746636647E+04  0.80183900850E+02 0.  0.
         13    1    3    3    0    0  0.37765850898E+03  0.10774789832E+04  0.28471761456E+02  0.11421022502E+04  0.00000000000E+00 0. -1.
        -13    1    3    3    0    0  0.13056613056E+03  0.51466895639E+03  0.41109743991E+02  0.53256141446E+03  0.00000000000E+00 0.  1.
         22    1    1    2    0    0 -0.50822463954E+03 -0.15921479396E+04 -0.47632251722E+03  0.17378465083E+04  0.00000000000E+00 0.  1.
<mgrwt>
<rscale>  0 0.33881835E+04</rscale>
<asrwt>0</asrwt>
<pdfrwt beam="1">  1        2 0.29378855E+00 0.33881835E+04</pdfrwt>
<pdfrwt beam="2">  1       -2 0.23121301E+00 0.33881835E+04</pdfrwt>
<totfact> 0.52260091E-01</totfact>
</mgrwt>
</event>
<event>
 6    1  0.1780144E-005  0.2173924E+04  0.7818608E-02  0.8529360E-01
          2   -1    0    0  501    0  0.00000000000E+00  0.00000000000E+00  0.19732827989E+04  0.19732827989E+04  0.00000000000E+00 0. -1.
         -2   -1    0    0    0  501 -0.00000000000E+00 -0.00000000000E+00 -0.59874162317E+03  0.59874162317E+03  0.00000000000E+00 0.  1.
         23    2    1    2    0    0 -0.34980845639E+02  0.19896647064E+03  0.19497834641E+04  0.19623400724E+04  0.91168453118E+02 0.  0.
         13    1    3    3    0    0 -0.64471836590E+02  0.10667441404E+03  0.10670853131E+04  0.10743403156E+04  0.00000000000E+00 0.  1.
        -13    1    3    3    0    0  0.29490990950E+02  0.92292056598E+02  0.88269815098E+03  0.88799975676E+03  0.00000000000E+00 0. -1.
         22    1    1    2    0    0  0.34980845639E+02 -0.19896647064E+03 -0.57524228833E+03  0.60968434971E+03  0.00000000000E+00 0.  1.
<mgrwt>
<rscale>  0 0.21739241E+04</rscale>
<asrwt>0</asrwt>
<pdfrwt beam="1">  1        2 0.30358197E+00 0.21739241E+04</pdfrwt>
<pdfrwt beam="2">  1       -2 0.92114097E-01 0.21739241E+04</pdfrwt>
<totfact> 0.63419783E+00</totfact>
</mgrwt>
</event>
<event>
 6    1  0.1780144E-005  0.3084806E+04  0.7818608E-02  0.8219920E-01
          2   -1    0    0  501    0  0.00000000000E+00  0.00000000000E+00  0.16767567586E+04  0.16767567586E+04  0.00000000000E+00 0. -1.
         -2   -1    0    0    0  501 -0.00000000000E+00 -0.00000000000E+00 -0.14188143729E+04  0.14188143729E+04  0.00000000000E+00 0.  1.
         23    2    1    2    0    0  0.13212572280E+04  0.26823781637E+03 -0.61998899257E+03  0.14867095173E+04  0.90811063942E+02 0.  0.
         13    1    3    3    0    0  0.10280605465E+03  0.26953112788E+02 -0.76223277957E+02  0.13078816179E+03  0.00000000000E+00 0.  1.
        -13    1    3    3    0    0  0.12184511734E+04  0.24128470358E+03 -0.54376571461E+03  0.13559213555E+04  0.00000000000E+00 0. -1.
         22    1    1    2    0    0 -0.13212572280E+04 -0.26823781637E+03  0.87793137824E+03  0.16088616142E+04  0.00000000000E+00 0. -1.
<mgrwt>
<rscale>  0 0.30848057E+04</rscale>
<asrwt>0</asrwt>
<pdfrwt beam="1">  1        2 0.25796258E+00 0.30848057E+04</pdfrwt>
<pdfrwt beam="2">  1       -2 0.21827913E+00 0.30848057E+04</pdfrwt>
<totfact> 0.87058660E-01</totfact>
</mgrwt>
</event>
<event>
 6    1  0.1780144E-005  0.1840762E+04  0.7818608E-02  0.8684918E-01
         -2   -1    0    0    0  501 -0.00000000000E+00  0.00000000000E+00  0.68615112681E+03  0.68615112681E+03  0.00000000000E+00 0.  1.
          2   -1    0    0  501    0  0.00000000000E+00 -0.00000000000E+00 -0.12345695992E+04  0.12345695992E+04  0.00000000000E+00 0. -1.
         23    2    1    2    0    0 -0.27090573442E+03 -0.79440217538E+03 -0.66230781747E+03  0.10737050732E+04  0.98621528515E+02 0.  0.
         11    1    3    3    0    0 -0.17921737973E+03 -0.37608908449E+03 -0.33957298448E+03  0.53746784133E+03  0.00000000000E+00 0. -1.
        -11    1    3    3    0    0 -0.91688354691E+02 -0.41831309089E+03 -0.32273483299E+03  0.53623723185E+03  0.00000000000E+00 0.  1.
         22    1    1    2    0    0  0.27090573442E+03  0.79440217538E+03  0.11388934510E+03  0.84701565282E+03  0.00000000000E+00 0.  1.
<mgrwt>
<rscale>  0 0.18407621E+04</rscale>
<asrwt>0</asrwt>
<pdfrwt beam="1">  1        2 0.18993378E+00 0.18407621E+04</pdfrwt>
<pdfrwt beam="2">  1       -2 0.10556171E+00 0.18407621E+04</pdfrwt>
<totfact> 0.12337755E+01</totfact>
</mgrwt>
</event>
<event>
 6    1  0.1780144E-005  0.2353685E+04  0.7818608E-02  0.8457050E-01
          2   -1    0    0  501    0  0.00000000000E+00  0.00000000000E+00  0.13277335968E+04  0.13277335968E+04  0.00000000000E+00 0. -1.
         -2   -1    0    0    0  501 -0.00000000000E+00 -0.00000000000E+00 -0.10430993957E+04  0.10430993957E+04  0.00000000000E+00 0.  1.
         23    2    1    2    0    0 -0.10960641869E+04 -0.35450516435E+03  0.37596169471E+03  0.12152503151E+04  0.91953897181E+02 0.  0.
         11    1    3    3    0    0 -0.95154148636E+03 -0.27583434349E+03  0.31157623512E+03  0.10385545415E+04  0.00000000000E+00 0.  1.
        -11    1    3    3    0    0 -0.14452270050E+03 -0.78670820862E+02  0.64385459595E+02  0.17669577364E+03  0.00000000000E+00 0. -1.
         22    1    1    2    0    0  0.10960641869E+04  0.35450516435E+03 -0.91327493612E+02  0.11555826774E+04  0.00000000000E+00 0. -1.
<mgrwt>
<rscale>  0 0.23536849E+04</rscale>
<asrwt>0</asrwt>
<pdfrwt beam="1">  1        2 0.20426671E+00 0.23536849E+04</pdfrwt>
<pdfrwt beam="2">  1       -2 0.16047683E+00 0.23536849E+04</pdfrwt>
<totfact> 0.35927069E+00</totfact>
</mgrwt>
</event>
<event>
 6    1  0.1780144E-005  0.1103220E+04  0.7818608E-02  0.9202059E-01
         -2   -1    0    0    0  501 -0.00000000000E+00  0.00000000000E+00  0.26139265418E+03  0.26139265418E+03  0.00000000000E+00 0.  1.
          2   -1    0    0  501    0  0.00000000000E+00 -0.00000000000E+00 -0.11640478684E+04  0.11640478684E+04  0.00000000000E+00 0. -1.
         23    2    1    2    0    0 -0.13672588998E+03 -0.45750364421E+03 -0.80117155999E+03  0.93727816689E+03  0.92795151502E+02 0.  0.
         11    1    3    3    0    0 -0.27566482495E+02 -0.19960589776E+03 -0.27119129246E+03  0.33785668927E+03  0.00000000000E+00 0.  1.
        -11    1    3    3    0    0 -0.10915940748E+03 -0.25789774645E+03 -0.52998026753E+03  0.59942147762E+03  0.00000000000E+00 0. -1.
         22    1    1    2    0    0  0.13672588998E+03  0.45750364421E+03 -0.10148365426E+03  0.48816235571E+03  0.00000000000E+00 0.  1.
<mgrwt>
<rscale>  0 0.11032199E+04</rscale>
<asrwt>0</asrwt>
<pdfrwt beam="1">  1        2 0.17908429E+00 0.11032199E+04</pdfrwt>
<pdfrwt beam="2">  1       -2 0.40214254E-01 0.11032199E+04</pdfrwt>
<totfact> 0.11557175E+02</totfact>
</mgrwt>
</event>
<event>
 6    1  0.1780144E-005  0.1122327E+04  0.7818608E-02  0.9183700E-01
          2   -1    0    0  501    0  0.00000000000E+00  0.00000000000E+00  0.30759412773E+03  0.30759412773E+03  0.00000000000E+00 0. -1.
         -2   -1    0    0    0  501 -0.00000000000E+00 -0.00000000000E+00 -0.10237662541E+04  0.10237662541E+04  0.00000000000E+00 0.  1.
         23    2    1    2    0    0 -0.25693039252E+03 -0.27671358593E+03  0.12592761731E+03  0.40847598304E+03  0.91712750922E+02 0.  0.
         11    1    3    3    0    0 -0.12646187959E+03 -0.90316152629E+02  0.85569513319E+02  0.17740280726E+03  0.00000000000E+00 0. -1.
        -11    1    3    3    0    0 -0.13046851293E+03 -0.18639743330E+03  0.40358103995E+02  0.23107317578E+03  0.00000000000E+00 0.  1.
         22    1    1    2    0    0  0.25693039252E+03  0.27671358593E+03 -0.84209974368E+03  0.92288439880E+03  0.00000000000E+00 0.  1.
<mgrwt>
<rscale>  0 0.11223270E+04</rscale>
<asrwt>0</asrwt>
<pdfrwt beam="1">  1        2 0.47322174E-01 0.11223270E+04</pdfrwt>
<pdfrwt beam="2">  1       -2 0.15750250E+00 0.11223270E+04</pdfrwt>
<totfact> 0.27800191E+01</totfact>
</mgrwt>
</event>
<event>
 6    1  0.1780144E-005  0.1967659E+04  0.7818608E-02  0.8621892E-01
          1   -1    0    0  501    0  0.00000000000E+00  0.00000000000E+00  0.25942920226E+04  0.25942920226E+04  0.00000000000E+00 0. -1.
         -1   -1    0    0    0  501 -0.00000000000E+00 -0.00000000000E+00 -0.37309624522E+03  0.37309624522E+03  0.00000000000E+00 0.  1.
         23    2    1    2    0    0  0.11096452982E+03  0.97478884013E+03  0.10565334635E+04  0.14445735335E+04  0.89461301184E+02 0.  0.
         11    1    3    3    0    0  0.42403655562E+02  0.70618960896E+03  0.73854762753E+03  0.10227191364E+04  0.00000000000E+00 0. -1.
        -11    1    3    3    0    0  0.68560874259E+02  0.26859923116E+03  0.31798583599E+03  0.42185439710E+03  0.00000000000E+00 0.  1.
         22    1    1    2    0    0 -0.11096452982E+03 -0.97478884013E+03  0.11646623138E+04  0.15228147343E+04  0.00000000000E+00 0. -1.
<mgrwt>
<rscale>  0 0.19676591E+04</rscale>
<asrwt>0</asrwt>
<pdfrwt beam="1">  1        1 0.39912184E+00 0.19676591E+04</pdfrwt>
<pdfrwt beam="2">  1       -1 0.57399424E-01 0.19676591E+04</pdfrwt>
<totfact> 0.33323220E+00</totfact>
</mgrwt>
</event>
<event>
 6    1  0.1780144E-005  0.1464732E+04  0.7818608E-02  0.8908251E-01
          2   -1    0    0  501    0  0.00000000000E+00  0.00000000000E+00  0.66547011697E+03  0.66547011697E+03  0.00000000000E+00 0. -1.
         -2   -1    0    0    0  501 -0.00000000000E+00 -0.00000000000E+00 -0.80598602699E+03  0.80598602699E+03  0.00000000000E+00 0.  1.
         23    2    1    2    0    0 -0.98233760503E+02 -0.33173297164E+03 -0.71583257903E+03  0.80012470137E+03  0.89925637993E+02 0.  0.
         13    1    3    3    0    0 -0.13042100424E+02 -0.71899154331E+02 -0.82059987986E+02  0.10987914454E+03  0.00000000000E+00 0.  1.
        -13    1    3    3    0    0 -0.85191660079E+02 -0.25983381731E+03 -0.63377259104E+03  0.69024555683E+03  0.00000000000E+00 0. -1.
         22    1    1    2    0    0  0.98233760503E+02  0.33173297164E+03  0.57531666901E+03  0.67133144259E+03  0.00000000000E+00 0. -1.
<mgrwt>
<rscale>  0 0.14647315E+04</rscale>
<asrwt>0</asrwt>
<pdfrwt beam="1">  1        2 0.10238002E+00 0.14647315E+04</pdfrwt>
<pdfrwt beam="2">  1       -2 0.12399785E+00 0.14647315E+04</pdfrwt>
<totfact> 0.20691451E+01</totfact>
</mgrwt>
</event>
<event>
 6    1  0.1780144E-005  0.1539236E+04  0.7818608E-02  0.8858773E-01
         -2   -1    0    0    0  501 -0.00000000000E+00  0.00000000000E+00  0.17915844083E+04  0.17915844083E+04  0.00000000000E+00 0.  1.
          2   -1    0    0  501    0  0.00000000000E+00 -0.00000000000E+00 -0.33060784373E+03  0.33060784373E+03  0.00000000000E+00 0. -1.
         23    2    1    2    0    0 -0.27281357210E+03  0.23565940404E+03  0.16662126627E+04  0.17073616169E+04  0.94108732796E+02 0.  0.
         11    1    3    3    0    0 -0.14440673216E+03  0.10837230292E+03  0.62453050736E+03  0.65010477229E+03  0.00000000000E+00 0. -1.
        -11    1    3    3    0    0 -0.12840683994E+03  0.12728710112E+03  0.10416821554E+04  0.10572568446E+04  0.00000000000E+00 0.  1.
         22    1    1    2    0    0  0.27281357210E+03 -0.23565940404E+03 -0.20523609817E+03  0.41483063511E+03  0.00000000000E+00 0. -1.
<mgrwt>
<rscale>  0 0.15392360E+04</rscale>
<asrwt>0</asrwt>
<pdfrwt beam="1">  1        2 0.50862746E-01 0.15392360E+04</pdfrwt>
<pdfrwt beam="2">  1       -2 0.27562837E+00 0.15392360E+04</pdfrwt>
<totfact> 0.42569553E+00</totfact>
</mgrwt>
</event>
<event>
 6    1  0.1780144E-005  0.2584755E+04  0.7818608E-02  0.8373398E-01
          2   -1    0    0  501    0  0.00000000000E+00  0.00000000000E+00  0.25456657787E+04  0.25456657787E+04  0.00000000000E+00 0. -1.
         -2   -1    0    0    0  501 -0.00000000000E+00 -0.00000000000E+00 -0.65611088920E+03  0.65611088920E+03  0.00000000000E+00 0.  1.
         23    2    1    2    0    0 -0.94437498276E+03 -0.87034250760E+03  0.11038455520E+04  0.16962271497E+04  0.96805745243E+02 0.  0.
         11    1    3    3    0    0 -0.54338174732E+03 -0.46045140901E+03  0.56140071698E+03  0.90689028466E+03  0.00000000000E+00 0. -1.
        -11    1    3    3    0    0 -0.40099323544E+03 -0.40989109859E+03  0.54244483499E+03  0.78933686508E+03  0.00000000000E+00 0.  1.
         22    1    1    2    0    0  0.94437498276E+03  0.87034250760E+03  0.78570933756E+03  0.15055495182E+04  0.00000000000E+00 0.  1.
<mgrwt>
<rscale>  0 0.25847546E+04</rscale>
<asrwt>0</asrwt>
<pdfrwt beam="1">  1        2 0.39164088E+00 0.25847546E+04</pdfrwt>
<pdfrwt beam="2">  1       -2 0.10094014E+00 0.25847546E+04</pdfrwt>
<totfact> 0.23423315E+00</totfact>
</mgrwt>
</event>
<event>
 6    1  0.1780144E-005  0.3436185E+04  0.7818608E-02  0.8129082E-01
         -3   -1    0    0    0  501 -0.00000000000E+00  0.00000000000E+00  0.18567960731E+04  0.18567960731E+04  0.00000000000E+00 0. -1.
          3   -1    0    0  501    0  0.00000000000E+00 -0.00000000000E+00 -0.15897503202E+04  0.15897503202E+04  0.00000000000E+00 0.  1.
         23    2    1    2    0    0 -0.66868167898E+03  0.69128811508E+03 -0.12928049083E+04  0.16140212145E+04  0.93303290861E+02 0.  0.
         13    1    3    3    0    0 -0.11530866249E+03  0.15991457651E+03 -0.30723086409E+03  0.36504734388E+03  0.00000000000E+00 0.  1.
        -13    1    3    3    0    0 -0.55337301649E+03  0.53137353857E+03 -0.98557404416E+03  0.12489738706E+04  0.00000000000E+00 0. -1.
         22    1    1    2    0    0  0.66868167898E+03 -0.69128811508E+03  0.15598506612E+04  0.18325251789E+04  0.00000000000E+00 0. -1.
<mgrwt>
<rscale>  0 0.34361852E+04</rscale>
<asrwt>0</asrwt>
<pdfrwt beam="1">  1        3 0.24457697E+00 0.34361852E+04</pdfrwt>
<pdfrwt beam="2">  1       -3 0.28566093E+00 0.34361852E+04</pdfrwt>
<totfact> 0.77528986E-03</totfact>
</mgrwt>
</event>
<event>
 6    1  0.1780144E-005  0.3626416E+04  0.7818608E-02  0.8084468E-01
          1   -1    0    0  501    0  0.00000000000E+00  0.00000000000E+00  0.22793871517E+04  0.22793871517E+04  0.00000000000E+00 0. -1.
         -1   -1    0    0    0  501 -0.00000000000E+00 -0.00000000000E+00 -0.14423711994E+04  0.14423711994E+04  0.00000000000E+00 0.  1.
         23    2    1    2    0    0  0.12706874815E+04 -0.88553761789E+03 -0.54639940077E+03  0.16450634800E+04  0.94116946894E+02 0.  0.
         13    1    3    3    0    0  0.64822469113E+03 -0.50496180306E+03 -0.30779015282E+03  0.87744883094E+03  0.00000000000E+00 0.  1.
        -13    1    3    3    0    0  0.62246279041E+03 -0.38057581483E+03 -0.23860924795E+03  0.76761464908E+03  0.00000000000E+00 0. -1.
         22    1    1    2    0    0 -0.12706874815E+04  0.88553761789E+03  0.13834153530E+04  0.20766948711E+04  0.00000000000E+00 0. -1.
<mgrwt>
<rscale>  0 0.36264155E+04</rscale>
<asrwt>0</asrwt>
<pdfrwt beam="1">  1        1 0.35067495E+00 0.36264155E+04</pdfrwt>
<pdfrwt beam="2">  1       -1 0.22190326E+00 0.36264155E+04</pdfrwt>
<totfact> 0.16587701E-01</totfact>
</mgrwt>
</event>
<event>
 6    1  0.1780144E-005  0.2541647E+04  0.7818608E-02  0.8388297E-01
         -1   -1    0    0    0  501 -0.00000000000E+00  0.00000000000E+00  0.24186226391E+04  0.24186226391E+04  0.00000000000E+00 0.  1.
          1   -1    0    0  501    0  0.00000000000E+00 -0.00000000000E+00 -0.66773237830E+03  0.66773237830E+03  0.00000000000E+00 0. -1.
         23    2    1    2    0    0 -0.45271391411E+03 -0.46764589144E+03 -0.44661048781E+03  0.79448850559E+03  0.90047153596E+02 0.  0.
         13    1    3    3    0    0 -0.79463472320E+01  0.17425482343E+01 -0.14915481086E+02  0.16989775887E+02  0.00000000000E+00 0.  1.
        -13    1    3    3    0    0 -0.44476756688E+03 -0.46938843968E+03 -0.43169500672E+03  0.77749872970E+03  0.00000000000E+00 0. -1.
         22    1    1    2    0    0  0.45271391411E+03  0.46764589144E+03  0.21975007486E+04  0.22918665118E+04  0.00000000000E+00 0.  1.
<mgrwt>
<rscale>  0 0.25416472E+04</rscale>
<asrwt>0</asrwt>
<pdfrwt beam="1">  1        1 0.10272806E+00 0.25416472E+04</pdfrwt>
<pdfrwt beam="2">  1       -1 0.37209579E+00 0.25416472E+04</pdfrwt>
<totfact> 0.28653241E-01</totfact>
</mgrwt>
</event>
<event>
 6    1  0.1780144E-005  0.4239990E+04  0.7818608E-02  0.7957809E-01
          2   -1    0    0  501    0  0.00000000000E+00  0.00000000000E+00  0.29620550980E+04  0.29620550980E+04  0.00000000000E+00 0. -1.
         -2   -1    0    0    0  501 -0.00000000000E+00 -0.00000000000E+00 -0.15173175043E+04  0.15173175043E+04  0.00000000000E+00 0.  1.
         23    2    1    2    0    0 -0.53092522137E+03  0.19822868489E+04  0.16478164801E+03  0.20607717744E+04  0.91019628503E+02 0.  0.
         11    1    3    3    0    0 -0.73440687816E+02  0.25086141495E+03  0.50972120986E+02  0.26631398998E+03  0.00000000000E+00 0. -1.
        -11    1    3    3    0    0 -0.45748453355E+03  0.17314254339E+04  0.11380952702E+03  0.17944577844E+04  0.00000000000E+00 0.  1.
         22    1    1    2    0    0  0.53092522137E+03 -0.19822868489E+04  0.12799559456E+04  0.24186008279E+04  0.00000000000E+00 0. -1.
<mgrwt>
<rscale>  0 0.42399896E+04</rscale>
<asrwt>0</asrwt>
<pdfrwt beam="1">  1        2 0.45570078E+00 0.42399896E+04</pdfrwt>
<pdfrwt beam="2">  1       -2 0.23343346E+00 0.42399896E+04</pdfrwt>
<totfact> 0.11573086E-01</totfact>
</mgrwt>
</event>
<event>
 6    1  0.1780144E-005  0.2170271E+04  0.7818608E-02  0.8530905E-01
         -1   -1    0    0    0  501 -0.00000000000E+00  0.00000000000E+00  0.15228720235E+04  0.15228720235E+04  0.00000000000E+00 0.  1.
          1   -1    0    0  501    0  0.00000000000E+00 -0.00000000000E+00 -0.77322259481E+03  0.77322259481E+03  0.00000000000E+00 0. -1.
         23    2    1    2    0    0 -0.48174813793E+03 -0.35349533357E+03 -0.58047289063E+03  0.83792261076E+03  0.90140477115E+02 0.  0.
         11    1    3    3    0    0 -0.32427373397E+03 -0.23811502931E+03 -0.44729793430E+03  0.60160424181E+03  0.00000000000E+00 0. -1.
        -11    1    3    3    0    0 -0.15747440396E+03 -0.11538030426E+03 -0.13317495632E+03  0.23631836895E+03  0.00000000000E+00 0.  1.
         22    1    1    2    0    0  0.48174813793E+03  0.35349533357E+03  0.13301223193E+04  0.14581720076E+04  0.00000000000E+00 0.  1.
<mgrwt>
<rscale>  0 0.21702710E+04</rscale>
<asrwt>0</asrwt>
<pdfrwt beam="1">  1        1 0.11895732E+00 0.21702710E+04</pdfrwt>
<pdfrwt beam="2">  1       -1 0.23428800E+00 0.21702710E+04</pdfrwt>
<totfact> 0.18865775E+00</totfact>
</mgrwt>
</event>
<event>
 6    1  0.1780144E-005  0.1576943E+04  0.7818608E-02  0.8834840E-01
         -2   -1    0    0    0  501 -0.00000000000E+00  0.00000000000E+00  0.39813518612E+03  0.39813518612E+03  0.00000000000E+00 0.  1.
          2   -1    0    0  501    0  0.00000000000E+00 -0.00000000000E+00 -0.15614970510E+04  0.15614970510E+04  0.00000000000E+00 0. -1.
         23    2    1    2    0    0 -0.49137954985E+03 -0.48354627423E+03 -0.10523805900E+04  0.12613574311E+04  0.90811901660E+02 0.  0.
         13    1    3    3    0    0 -0.45048536237E+03 -0.40523880117E+03 -0.89381111065E+03  0.10798397331E+04  0.00000000000E+00 0. -1.
        -13    1    3    3    0    0 -0.40894187473E+02 -0.78307473062E+02 -0.15856947932E+03  0.18151769798E+03  0.00000000000E+00 0.  1.
         22    1    1    2    0    0  0.49137954985E+03  0.48354627423E+03 -0.11098127488E+03  0.69827480601E+03  0.00000000000E+00 0.  1.
<mgrwt>
<rscale>  0 0.15769425E+04</rscale>
<asrwt>0</asrwt>
<pdfrwt beam="1">  1        2 0.24023031E+00 0.15769425E+04</pdfrwt>
<pdfrwt beam="2">  1       -2 0.61251569E-01 0.15769425E+04</pdfrwt>
<totfact> 0.27906490E+01</totfact>
</mgrwt>
</event>
<event>
 6    1  0.1780144E-005  0.3371596E+04  0.7818608E-02  0.8144913E-01
         -2   -1    0    0    0  501 -0.00000000000E+00  0.00000000000E+00  0.15173955649E+04  0.15173955649E+04  0.00000000000E+00 0. -1.
          2   -1    0    0  501    0  0.00000000000E+00 -0.00000000000E+00 -0.18728901722E+04  0.18728901722E+04  0.00000000000E+00 0.  1.
         23    2    1    2    0    0  0.29332580197E+03 -0.79867483319E+03 -0.16398392851E+04  0.18496810614E+04  0.91244904749E+02 0.  0.
         13    1    3    3    0    0  0.22118073326E+03 -0.55135816046E+03 -0.10584263010E+04  0.12137474912E+04  0.00000000000E+00 0. -1.
        -13    1    3    3    0    0  0.72145068709E+02 -0.24731667273E+03 -0.58141298414E+03  0.63593357018E+03  0.00000000000E+00 0.  1.
         22    1    1    2    0    0 -0.29332580197E+03  0.79867483319E+03  0.12843446778E+04  0.15406046757E+04  0.00000000000E+00 0. -1.
<mgrwt>
<rscale>  0 0.33715962E+04</rscale>
<asrwt>0</asrwt>
<pdfrwt beam="1">  1        2 0.28813695E+00 0.33715962E+04</pdfrwt>
<pdfrwt beam="2">  1       -2 0.23344547E+00 0.33715962E+04</pdfrwt>
<totfact> 0.53113617E-01</totfact>
</mgrwt>
</event>
<event>
 6    1  0.1780144E-005  0.2247992E+04  0.7818608E-02  0.8498714E-01
         -2   -1    0    0    0  501 -0.00000000000E+00  0.00000000000E+00  0.13853475734E+04  0.13853475734E+04  0.00000000000E+00 0.  1.
          2   -1    0    0  501    0  0.00000000000E+00 -0.00000000000E+00 -0.91194910475E+03  0.91194910475E+03  0.00000000000E+00 0. -1.
         23    2    1    2    0    0 -0.29042860268E+03  0.10835864803E+04  0.25789264999E+03  0.11549520754E+04  0.94325203329E+02 0.  0.
         11    1    3    3    0    0 -0.40132964704E+02  0.94847536638E+02  0.48116948371E+02  0.11367475878E+03  0.00000000000E+00 0. -1.
        -11    1    3    3    0    0 -0.25029563798E+03  0.98873894365E+03  0.20977570162E+03  0.10412773166E+04  0.00000000000E+00 0.  1.
         22    1    1    2    0    0  0.29042860268E+03 -0.10835864803E+04  0.21550581861E+03  0.11423446027E+04  0.00000000000E+00 0.  1.
<mgrwt>
<rscale>  0 0.22479915E+04</rscale>
<asrwt>0</asrwt>
<pdfrwt beam="1">  1        2 0.14029986E+00 0.22479915E+04</pdfrwt>
<pdfrwt beam="2">  1       -2 0.21313040E+00 0.22479915E+04</pdfrwt>
<totfact> 0.28638836E+00</totfact>
</mgrwt>
</event>
<event>
 6    1  0.1780144E-005  0.3110290E+04  0.7818608E-02  0.8212920E-01
          2   -1    0    0  501    0  0.00000000000E+00  0.00000000000E+00  0.13439236483E+04  0.13439236483E+04  0.00000000000E+00 0. -1.
         -2   -1    0    0    0  501 -0.00000000000E+00 -0.00000000000E+00 -0.17995637202E+04  0.17995637202E+04  0.00000000000E+00 0.  1.
         23    2    1    2    0    0  0.10303910684E+04 -0.88781064524E+03 -0.98733974203E+03  0.16831387681E+04  0.90569591527E+02 0.  0.
         11    1    3    3    0    0  0.35497648661E+03 -0.28473456299E+03 -0.28192340013E+03  0.53531568345E+03  0.00000000000E+00 0.  1.
        -11    1    3    3    0    0  0.67541458179E+03 -0.60307608224E+03 -0.70541634190E+03  0.11478230847E+04  0.00000000000E+00 0. -1.
         22    1    1    2    0    0 -0.10303910684E+04  0.88781064524E+03  0.53169967013E+03  0.14603486005E+04  0.00000000000E+00 0. -1.
<mgrwt>
<rscale>  0 0.31102902E+04</rscale>
<asrwt>0</asrwt>
<pdfrwt beam="1">  1        2 0.20675748E+00 0.31102902E+04</pdfrwt>
<pdfrwt beam="2">  1       -2 0.27685596E+00 0.31102902E+04</pdfrwt>
<totfact> 0.58197405E-01</totfact>
</mgrwt>
</event>
<event>
 6    1  0.1780144E-005  0.1923871E+04  0.7818608E-02  0.8643065E-01
          2   -1    0    0  501    0  0.00000000000E+00  0.00000000000E+00  0.14940451860E+04  0.14940451860E+04  0.00000000000E+00 0. -1.
         -2   -1    0    0    0  501 -0.00000000000E+00 -0.00000000000E+00 -0.61933883098E+03  0.61933883098E+03  0.00000000000E+00 0.  1.
         23    2    1    2    0    0  0.62865430734E+03  0.71763667138E+03  0.55223002567E+03  0.11063092366E+04  0.93560117115E+02 0.  0.
         11    1    3    3    0    0  0.25126480293E+03  0.21926161380E+03  0.19066574908E+03  0.38413940745E+03  0.00000000000E+00 0. -1.
        -11    1    3    3    0    0  0.37738950441E+03  0.49837505758E+03  0.36156427659E+03  0.72216982917E+03  0.00000000000E+00 0.  1.
         22    1    1    2    0    0 -0.62865430734E+03 -0.71763667138E+03  0.32247632933E+03  0.10070747804E+04  0.00000000000E+00 0.  1.
<mgrwt>
<rscale>  0 0.19238713E+04</rscale>
<asrwt>0</asrwt>
<pdfrwt beam="1">  1        2 0.22985310E+00 0.19238713E+04</pdfrwt>
<pdfrwt beam="2">  1       -2 0.95282898E-01 0.19238713E+04</pdfrwt>
<totfact> 0.11068812E+01</totfact>
</mgrwt>
</event>
<event>
 6    1  0.1780144E-005  0.3830130E+04  0.7818608E-02  0.8039720E-01
         -2   -1    0    0    0  501 -0.00000000000E+00  0.00000000000E+00  0.13594349868E+04  0.13594349868E+04  0.00000000000E+00 0.  1.
          2   -1    0    0  501    0  0.00000000000E+00 -0.00000000000E+00 -0.26977921842E+04  0.26977921842E+04  0.00000000000E+00 0. -1.
         23    2    1    2    0    0  0.11742909303E+04 -0.14790258078E+04 -0.33974139402E+03  0.19209430017E+04  0.90118100211E+02 0.  0.
         13    1    3    3    0    0  0.92619080009E+02 -0.15832823834E+03 -0.26772099256E+02  0.18537224802E+03  0.00000000000E+00 0.  1.
        -13    1    3    3    0    0  0.10816718503E+04 -0.13206975695E+04 -0.31296929476E+03  0.17355707537E+04  0.00000000000E+00 0. -1.
         22    1    1    2    0    0 -0.11742909303E+04  0.14790258078E+04 -0.99861580336E+03  0.21362841693E+04  0.00000000000E+00 0. -1.
<mgrwt>
<rscale>  0 0.38301295E+04</rscale>
<asrwt>0</asrwt>
<pdfrwt beam="1">  1        2 0.41504495E+00 0.38301295E+04</pdfrwt>
<pdfrwt beam="2">  1       -2 0.20914385E+00 0.38301295E+04</pdfrwt>
<totfact> 0.24702155E-01</totfact>
</mgrwt>
</event>
<event>
 6    1  0.1780144E-005  0.6088486E+04  0.7818608E-02  0.7679526E-01
          2   -1    0    0  501    0  0.00000000000E+00  0.00000000000E+00  0.34249920666E+04  0.34249920666E+04  0.00000000000E+00 0. -1.
         -2   -1    0    0    0  501 -0.00000000000E+00 -0.00000000000E+00 -0.27058212989E+04  0.27058212989E+04  0.00000000000E+00 0.  1.
         23    2    1    2    0    0  0.14350633442E+04  0.26838474534E+04  0.40310094050E+03  0.30710185863E+04  0.78872264132E+02 0.  0.
         13    1    3    3    0    0  0.40218671537E+03  0.80147467838E+03  0.14645291852E+03  0.90860567434E+03  0.00000000000E+00 0. -1.
        -13    1    3    3    0    0  0.10328766289E+04  0.18823727750E+04  0.25664802198E+03  0.21624129120E+04  0.00000000000E+00 0.  1.
         22    1    1    2    0    0 -0.14350633442E+04 -0.26838474534E+04  0.31606982721E+03  0.30597947792E+04  0.00000000000E+00 0. -1.
<mgrwt>
<rscale>  0 0.60884863E+04</rscale>
<asrwt>0</asrwt>
<pdfrwt beam="1">  1        2 0.52692186E+00 0.60884863E+04</pdfrwt>
<pdfrwt beam="2">  1       -2 0.41628020E+00 0.60884863E+04</pdfrwt>
<totfact> 0.35563366E-03</totfact>
</mgrwt>
</event>
<event>
 6    1  0.1780144E-005  0.2395256E+04  0.7818608E-02  0.8441282E-01
          2   -1    0    0  501    0  0.00000000000E+00  0.00000000000E+00  0.31627574633E+04  0.31627574633E+04  0.00000000000E+00 0.  1.
         -2   -1    0    0    0  501 -0.00000000000E+00 -0.00000000000E+00 -0.45350075246E+03  0.45350075246E+03  0.00000000000E+00 0. -1.
         23    2    1    2    0    0 -0.28999136916E+03  0.18520647970E+03  0.30857575839E+04  0.31062098437E+04  0.90792576688E+02 0.  0.
         11    1    3    3    0    0 -0.69078191258E+02  0.92938102490E+02  0.10965114961E+04  0.11026090643E+04  0.00000000000E+00 0.  1.
        -11    1    3    3    0    0 -0.22091317790E+03  0.92268377214E+02  0.19892460878E+04  0.20036007795E+04  0.00000000000E+00 0. -1.
         22    1    1    2    0    0  0.28999136916E+03 -0.18520647970E+03 -0.37650087314E+03  0.51004837201E+03  0.00000000000E+00 0. -1.
<mgrwt>
<rscale>  0 0.23952561E+04</rscale>
<asrwt>0</asrwt>
<pdfrwt beam="1">  1        2 0.48657806E+00 0.23952561E+04</pdfrwt>
<pdfrwt beam="2">  1       -2 0.69769348E-01 0.23952561E+04</pdfrwt>
<totfact> 0.23115138E+00</totfact>
</mgrwt>
</event>
<event>
 6    1  0.1780144E-005  0.2953470E+04  0.7818608E-02  0.8257144E-01
          2   -1    0    0  501    0  0.00000000000E+00  0.00000000000E+00  0.15848259074E+04  0.15848259074E+04  0.00000000000E+00 0. -1.
         -2   -1    0    0    0  501 -0.00000000000E+00 -0.00000000000E+00 -0.13760164155E+04  0.13760164155E+04  0.00000000000E+00 0.  1.
         23    2    1    2    0    0  0.35222047485E+03 -0.11970733834E+04 -0.68383494081E+03  0.14266135161E+04  0.10272268535E+03 0.  0.
         11    1    3    3    0    0  0.24072153211E+03 -0.63718770475E+03 -0.36863906601E+03  0.77449970181E+03  0.00000000000E+00 0.  1.
        -11    1    3    3    0    0  0.11149894273E+03 -0.55988567862E+03 -0.31519587480E+03  0.65211381434E+03  0.00000000000E+00 0. -1.
         22    1    1    2    0    0 -0.35222047485E+03  0.11970733834E+04  0.89264443277E+03  0.15342288067E+04  0.00000000000E+00 0. -1.
<mgrwt>
<rscale>  0 0.29534701E+04</rscale>
<asrwt>0</asrwt>
<pdfrwt beam="1">  1        2 0.24381937E+00 0.29534701E+04</pdfrwt>
<pdfrwt beam="2">  1       -2 0.21169483E+00 0.29534701E+04</pdfrwt>
<totfact> 0.10913455E+00</totfact>
</mgrwt>
</event>
<event>
 6    1  0.1780144E-005  0.1278583E+04  0.7818608E-02  0.9046723E-01
          2   -1    0    0  501    0  0.00000000000E+00  0.00000000000E+00  0.54407855100E+03  0.54407855100E+03  0.00000000000E+00 0. -1.
         -2   -1    0    0    0  501 -0.00000000000E+00 -0.00000000000E+00 -0.75116699830E+03  0.75116699830E+03  0.00000000000E+00 0.  1.
         23    2    1    2    0    0  0.54299728493E+03  0.10946432805E+03  0.21240610984E+03  0.60040443507E+03  0.92415580892E+02 0.  0.
         11    1    3    3    0    0  0.44564693254E+03  0.74616754256E+02  0.20659908410E+03  0.49684205744E+03  0.00000000000E+00 0. -1.
        -11    1    3    3    0    0  0.97350352398E+02  0.34847573793E+02  0.58070257400E+01  0.10356237762E+03  0.00000000000E+00 0.  1.
         22    1    1    2    0    0 -0.54299728493E+03 -0.10946432805E+03 -0.41949455713E+03  0.69484111423E+03  0.00000000000E+00 0.  1.
<mgrwt>
<rscale>  0 0.12785834E+04</rscale>
<asrwt>0</asrwt>
<pdfrwt beam="1">  1        2 0.83704393E-01 0.12785834E+04</pdfrwt>
<pdfrwt beam="2">  1       -2 0.11556415E+00 0.12785834E+04</pdfrwt>
<totfact> 0.31887306E+01</totfact>
</mgrwt>
</event>
<event>
 6    1  0.1780144E-005  0.2636824E+04  0.7818608E-02  0.8355800E-01
          1   -1    0    0  501    0  0.00000000000E+00  0.00000000000E+00  0.90284042421E+03  0.90284042421E+03  0.00000000000E+00 0. -1.
         -1   -1    0    0    0  501 -0.00000000000E+00 -0.00000000000E+00 -0.19252679812E+04  0.19252679812E+04  0.00000000000E+00 0.  1.
         23    2    1    2    0    0 -0.17725773625E+03 -0.47549209768E+03  0.79161939534E+03  0.94442069635E+03  0.88068976379E+02 0.  0.
         11    1    3    3    0    0 -0.12806605278E+03 -0.31909041345E+03  0.45808039818E+03  0.57276282791E+03  0.00000000000E+00 0. -1.
        -11    1    3    3    0    0 -0.49191683467E+02 -0.15640168423E+03  0.33353899716E+03  0.37165786844E+03  0.00000000000E+00 0.  1.
         22    1    1    2    0    0  0.17725773625E+03  0.47549209768E+03 -0.18140469523E+04  0.18836877090E+04  0.00000000000E+00 0.  1.
<mgrwt>
<rscale>  0 0.26368237E+04</rscale>
<asrwt>0</asrwt>
<pdfrwt beam="1">  1        1 0.13889853E+00 0.26368237E+04</pdfrwt>
<pdfrwt beam="2">  1       -1 0.29619507E+00 0.26368237E+04</pdfrwt>
<totfact> 0.55542971E-01</totfact>
</mgrwt>
</event>
<event>
 6    1  0.1780144E-005  0.3212611E+04  0.7818608E-02  0.8185495E-01
         -2   -1    0    0    0  501 -0.00000000000E+00  0.00000000000E+00  0.12425406066E+04  0.12425406066E+04  0.00000000000E+00 0.  1.
          2   -1    0    0  501    0  0.00000000000E+00 -0.00000000000E+00 -0.20765652649E+04  0.20765652649E+04  0.00000000000E+00 0. -1.
         23    2    1    2    0    0  0.10264981052E+04 -0.10966246689E+04  0.16698867329E+03  0.15140264509E+04  0.90038061845E+02 0.  0.
         11    1    3    3    0    0  0.26840807759E+03 -0.32030845267E+03  0.13124397185E+02  0.41810602815E+03  0.00000000000E+00 0.  1.
        -11    1    3    3    0    0  0.75809002763E+03 -0.77631621625E+03  0.15386427611E+03  0.10959204228E+04  0.00000000000E+00 0. -1.
         22    1    1    2    0    0 -0.10264981052E+04  0.10966246689E+04 -0.10010133316E+04  0.18050794206E+04  0.00000000000E+00 0. -1.
<mgrwt>
<rscale>  0 0.32126106E+04</rscale>
<asrwt>0</asrwt>
<pdfrwt beam="1">  1        2 0.31947158E+00 0.32126106E+04</pdfrwt>
<pdfrwt beam="2">  1       -2 0.19116009E+00 0.32126106E+04</pdfrwt>
<totfact> 0.77560409E-01</totfact>
</mgrwt>
</event>
<event>
 6    1  0.1780144E-005  0.1422004E+04  0.7818608E-02  0.8938043E-01
          2   -1    0    0  501    0  0.00000000000E+00  0.00000000000E+00  0.41058452950E+03  0.41058452950E+03  0.00000000000E+00 0. -1.
         -2   -1    0    0    0  501 -0.00000000000E+00 -0.00000000000E+00 -0.12312299943E+04  0.12312299943E+04  0.00000000000E+00 0.  1.
         23    2    1    2    0    0 -0.66756500956E+03 -0.23587246737E+03 -0.43061949366E+03  0.83348345240E+03  0.89345700801E+02 0.  0.
         11    1    3    3    0    0 -0.36780778783E+03 -0.17485925813E+03 -0.23098084358E+03  0.46819918736E+03  0.00000000000E+00 0. -1.
        -11    1    3    3    0    0 -0.29975722173E+03 -0.61013209239E+02 -0.19963865007E+03  0.36528426504E+03  0.00000000000E+00 0.  1.
         22    1    1    2    0    0  0.66756500956E+03  0.23587246737E+03 -0.39002597115E+03  0.80833107142E+03  0.00000000000E+00 0. -1.
<mgrwt>
<rscale>  0 0.14220042E+04</rscale>
<asrwt>0</asrwt>
<pdfrwt beam="1">  1        2 0.63166851E-01 0.14220042E+04</pdfrwt>
<pdfrwt beam="2">  1       -2 0.18942000E+00 0.14220042E+04</pdfrwt>
<totfact> 0.11720330E+01</totfact>
</mgrwt>
</event>
<event>
 6    1  0.1780144E-005  0.3438345E+04  0.7818608E-02  0.8128559E-01
         -2   -1    0    0    0  501 -0.00000000000E+00  0.00000000000E+00  0.23911451489E+04  0.23911451489E+04  0.00000000000E+00 0.  1.
          2   -1    0    0  501    0  0.00000000000E+00 -0.00000000000E+00 -0.12360410813E+04  0.12360410813E+04  0.00000000000E+00 0. -1.
         23    2    1    2    0    0 -0.60194799212E+03  0.13848007049E+04  0.14423728065E+04  0.20901313497E+04  0.90528274699E+02 0.  0.
         11    1    3    3    0    0 -0.15214910849E+03  0.41673663523E+03  0.38055500431E+03  0.58450054376E+03  0.00000000000E+00 0.  1.
        -11    1    3    3    0    0 -0.44979888362E+03  0.96806406965E+03  0.10618178022E+04  0.15056308059E+04  0.00000000000E+00 0. -1.
         22    1    1    2    0    0  0.60194799212E+03 -0.13848007049E+04 -0.28726873887E+03  0.15370548805E+04  0.00000000000E+00 0. -1.
<mgrwt>
<rscale>  0 0.34383447E+04</rscale>
<asrwt>0</asrwt>
<pdfrwt beam="1">  1        2 0.19016017E+00 0.34383447E+04</pdfrwt>
<pdfrwt beam="2">  1       -2 0.36786848E+00 0.34383447E+04</pdfrwt>
<totfact> 0.17825792E-01</totfact>
</mgrwt>
</event>
<event>
 6    1  0.1780144E-005  0.4412605E+04  0.7818608E-02  0.7926118E-01
          1   -1    0    0  501    0  0.00000000000E+00  0.00000000000E+00  0.22419036285E+04  0.22419036285E+04  0.00000000000E+00 0. -1.
         -1   -1    0    0    0  501 -0.00000000000E+00 -0.00000000000E+00 -0.21712662565E+04  0.21712662565E+04  0.00000000000E+00 0.  1.
         23    2    1    2    0    0 -0.93207522559E+03 -0.56020309940E+03  0.19541860512E+04  0.22382337098E+04  0.90858562570E+02 0.  0.
         13    1    3    3    0    0 -0.19155068767E+03 -0.74757801542E+02  0.35255610582E+03  0.40813748001E+03  0.00000000000E+00 0. -1.
        -13    1    3    3    0    0 -0.74052453793E+03 -0.48544529785E+03  0.16016299454E+04  0.18300962298E+04  0.00000000000E+00 0.  1.
         22    1    1    2    0    0  0.93207522559E+03  0.56020309940E+03 -0.18835486793E+04  0.21749361751E+04  0.00000000000E+00 0.  1.
<mgrwt>
<rscale>  0 0.44126045E+04</rscale>
<asrwt>0</asrwt>
<pdfrwt beam="1">  1        1 0.34490825E+00 0.44126045E+04</pdfrwt>
<pdfrwt beam="2">  1       -1 0.33404096E+00 0.44126045E+04</pdfrwt>
<totfact> 0.30567241E-02</totfact>
</mgrwt>
</event>
<event>
 6    1  0.1780144E-005  0.2984909E+04  0.7818608E-02  0.8248053E-01
         -1   -1    0    0    0  501 -0.00000000000E+00  0.00000000000E+00  0.71097177541E+03  0.71097177541E+03  0.00000000000E+00 0.  1.
          1   -1    0    0  501    0  0.00000000000E+00 -0.00000000000E+00 -0.31329242516E+04  0.31329242516E+04  0.00000000000E+00 0. -1.
         23    2    1    2    0    0  0.12299092971E+04 -0.35068881337E+03 -0.22600195338E+03  0.13026643922E+04  0.10098570592E+03 0.  0.
         13    1    3    3    0    0  0.39071046224E+03 -0.86584606209E+02 -0.11176115404E+03  0.41550224414E+03  0.00000000000E+00 0. -1.
        -13    1    3    3    0    0  0.83919883490E+03 -0.26410420716E+03 -0.11424079934E+03  0.88716214807E+03  0.00000000000E+00 0.  1.
         22    1    1    2    0    0 -0.12299092971E+04  0.35068881337E+03 -0.21959505228E+04  0.25412316347E+04  0.00000000000E+00 0.  1.
<mgrwt>
<rscale>  0 0.29849092E+04</rscale>
<asrwt>0</asrwt>
<pdfrwt beam="1">  1        1 0.48198835E+00 0.29849092E+04</pdfrwt>
<pdfrwt beam="2">  1       -1 0.10938027E+00 0.29849092E+04</pdfrwt>
<totfact> 0.31417966E-01</totfact>
</mgrwt>
</event>
<event>
 6    1  0.1864345E-005  0.5044068E+04  0.7818608E-02  0.7821745E-01
          2   -1    0    0  501    0  0.00000000000E+00  0.00000000000E+00  0.34299454543E+04  0.34299454543E+04  0.00000000000E+00 0. -1.
         -2   -1    0    0    0  501 -0.00000000000E+00 -0.00000000000E+00 -0.18544481282E+04  0.18544481282E+04  0.00000000000E+00 0.  1.
         23    2    1    2    0    0  0.20959117853E+02 -0.31067364277E+03  0.34092556818E+04  0.34243862965E+04  0.80248406081E+02 0.  0.
         11    1    3    3    0    0  0.26768043139E+02 -0.90681371241E+02  0.72793840084E+03  0.73405310070E+03  0.00000000000E+00 0. -1.
        -11    1    3    3    0    0 -0.58089252854E+01 -0.21999227152E+03  0.26813172810E+04  0.26903331958E+04  0.00000000000E+00 0.  1.
         22    1    1    2    0    0 -0.20959117853E+02  0.31067364277E+03 -0.18337583557E+04  0.18600072860E+04  0.00000000000E+00 0.  1.
<mgrwt>
<rscale>  0 0.50440682E+04</rscale>
<asrwt>0</asrwt>
<pdfrwt beam="1">  1        2 0.52768391E+00 0.50440682E+04</pdfrwt>
<pdfrwt beam="2">  1       -2 0.28529971E+00 0.50440682E+04</pdfrwt>
<totfact> 0.25744793E-02</totfact>
</mgrwt>
</event>
<event>
 6    1  0.1780144E-005  0.3844526E+04  0.7818608E-02  0.8036667E-01
          1   -1    0    0  501    0  0.00000000000E+00  0.00000000000E+00  0.23814349392E+04  0.23814349392E+04  0.00000000000E+00 0. -1.
         -1   -1    0    0    0  501 -0.00000000000E+00 -0.00000000000E+00 -0.15516257458E+04  0.15516257458E+04  0.00000000000E+00 0.  1.
         23    2    1    2    0    0  0.17233298484E+04 -0.61729683465E+03  0.10118528257E+04  0.20934789302E+04  0.88807331192E+02 0.  0.
         13    1    3    3    0    0  0.41254059264E+02 -0.27689937759E+01  0.30702961882E+02  0.51499869909E+02  0.00000000000E+00 0.  1.
        -13    1    3    3    0    0  0.16820757891E+04 -0.61452784088E+03  0.98114986381E+03  0.20419790603E+04  0.00000000000E+00 0. -1.
         22    1    1    2    0    0 -0.17233298484E+04  0.61729683465E+03 -0.18204363221E+03  0.18395817548E+04  0.00000000000E+00 0. -1.
<mgrwt>
<rscale>  0 0.38445264E+04</rscale>
<asrwt>0</asrwt>
<pdfrwt beam="1">  1        1 0.36637461E+00 0.38445264E+04</pdfrwt>
<pdfrwt beam="2">  1       -1 0.23871165E+00 0.38445264E+04</pdfrwt>
<totfact> 0.10723348E-01</totfact>
</mgrwt>
</event>
<event>
 6    1  0.1780144E-005  0.4058375E+04  0.7818608E-02  0.7992873E-01
          2   -1    0    0  501    0  0.00000000000E+00  0.00000000000E+00  0.17751122280E+04  0.17751122280E+04  0.00000000000E+00 0. -1.
         -2   -1    0    0    0  501 -0.00000000000E+00 -0.00000000000E+00 -0.23196288346E+04  0.23196288346E+04  0.00000000000E+00 0.  1.
         23    2    1    2    0    0  0.19431318438E+04 -0.56792750827E+03 -0.39741706285E+03  0.20649772112E+04  0.88811844695E+02 0.  0.
         13    1    3    3    0    0  0.13310367000E+04 -0.39339890989E+03 -0.31413508130E+03  0.14230608730E+04  0.00000000000E+00 0. -1.
        -13    1    3    3    0    0  0.61209514378E+03 -0.17452859838E+03 -0.83281981552E+02  0.64191633812E+03  0.00000000000E+00 0.  1.
         22    1    1    2    0    0 -0.19431318438E+04  0.56792750827E+03 -0.14709954372E+03  0.20297638515E+04  0.00000000000E+00 0. -1.
<mgrwt>
<rscale>  0 0.40583748E+04</rscale>
<asrwt>0</asrwt>
<pdfrwt beam="1">  1        2 0.27309419E+00 0.40583748E+04</pdfrwt>
<pdfrwt beam="2">  1       -2 0.35686598E+00 0.40583748E+04</pdfrwt>
<totfact> 0.98439225E-02</totfact>
</mgrwt>
</event>
<event>
 6    1  0.1839815E-005  0.2379614E+04  0.7818608E-02  0.8447175E-01
          4   -1    0    0  501    0  0.00000000000E+00  0.00000000000E+00  0.13858288590E+04  0.13858288590E+04  0.00000000000E+00 0. -1.
         -4   -1    0    0    0  501 -0.00000000000E+00 -0.00000000000E+00 -0.10215123287E+04  0.10215123287E+04  0.00000000000E+00 0.  1.
         23    2    1    2    0    0  0.14261714678E+02 -0.49166096387E+03 -0.91201418655E+03  0.10395129826E+04  0.82966647332E+02 0.  0.
         11    1    3    3    0    0 -0.31059433419E+02 -0.20130905977E+03 -0.33750578463E+03  0.39420829596E+03  0.00000000000E+00 0.  1.
        -11    1    3    3    0    0  0.45321148097E+02 -0.29035190410E+03 -0.57450840192E+03  0.64530468661E+03  0.00000000000E+00 0. -1.
         22    1    1    2    0    0 -0.14261714678E+02  0.49166096387E+03  0.12763307169E+04  0.13678282051E+04  0.00000000000E+00 0. -1.
<mgrwt>
<rscale>  0 0.23796145E+04</rscale>
<asrwt>0</asrwt>
<pdfrwt beam="1">  1        4 0.21320444E+00 0.23796145E+04</pdfrwt>
<pdfrwt beam="2">  1       -4 0.15715574E+00 0.23796145E+04</pdfrwt>
<totfact> 0.50970609E-02</totfact>
</mgrwt>
</event>
<event>
 6    1  0.1780144E-005  0.1384085E+04  0.7818608E-02  0.8965420E-01
         -1   -1    0    0    0  501 -0.00000000000E+00  0.00000000000E+00  0.34703947744E+03  0.34703947744E+03  0.00000000000E+00 0.  1.
          1   -1    0    0  501    0  0.00000000000E+00 -0.00000000000E+00 -0.13800238167E+04  0.13800238167E+04  0.00000000000E+00 0. -1.
         23    2    1    2    0    0  0.13511252122E+03  0.65529163150E+03 -0.72388279062E+03  0.99003800077E+03  0.92230324187E+02 0.  0.
         11    1    3    3    0    0  0.12163312084E+03  0.51619868262E+03 -0.51900420786E+03  0.74203845170E+03  0.00000000000E+00 0. -1.
        -11    1    3    3    0    0  0.13479400376E+02  0.13909294888E+03 -0.20487858277E+03  0.24799954907E+03  0.00000000000E+00 0.  1.
         22    1    1    2    0    0 -0.13511252122E+03 -0.65529163150E+03 -0.30910154865E+03  0.73702529338E+03  0.00000000000E+00 0.  1.
<mgrwt>
<rscale>  0 0.13840849E+04</rscale>
<asrwt>0</asrwt>
<pdfrwt beam="1">  1        1 0.21231136E+00 0.13840849E+04</pdfrwt>
<pdfrwt beam="2">  1       -1 0.53390688E-01 0.13840849E+04</pdfrwt>
<totfact> 0.27414946E+01</totfact>
</mgrwt>
</event>
<event>
 6    1  0.1780144E-005  0.9759108E+03  0.7818608E-02  0.9335367E-01
          1   -1    0    0  501    0  0.00000000000E+00  0.00000000000E+00  0.74000267086E+03  0.74000267086E+03  0.00000000000E+00 0. -1.
         -1   -1    0    0    0  501 -0.00000000000E+00 -0.00000000000E+00 -0.32175625878E+03  0.32175625878E+03  0.00000000000E+00 0.  1.
         23    2    1    2    0    0 -0.18958231620E+03  0.30936534940E+03  0.55916557924E+03  0.67252046070E+03  0.89270661653E+02 0.  0.
         11    1    3    3    0    0 -0.88276837864E+02  0.92651808631E+02  0.25720601390E+03  0.28728399073E+03  0.00000000000E+00 0. -1.
        -11    1    3    3    0    0 -0.10130547834E+03  0.21671354077E+03  0.30195956534E+03  0.38523646997E+03  0.00000000000E+00 0.  1.
         22    1    1    2    0    0  0.18958231620E+03 -0.30936534940E+03 -0.14091916716E+03  0.38923846894E+03  0.00000000000E+00 0.  1.
<mgrwt>
<rscale>  0 0.97591084E+03</rscale>
<asrwt>0</asrwt>
<pdfrwt beam="1">  1        1 0.11384656E+00 0.97591084E+03</pdfrwt>
<pdfrwt beam="2">  1       -1 0.49500963E-01 0.97591084E+03</pdfrwt>
<totfact> 0.10269463E+02</totfact>
</mgrwt>
</event>
<event>
 6    1  0.1780144E-005  0.3940843E+04  0.7818608E-02  0.8016588E-01
         -1   -1    0    0    0  501 -0.00000000000E+00  0.00000000000E+00  0.10629535156E+04  0.10629535156E+04  0.00000000000E+00 0.  1.
          1   -1    0    0  501    0  0.00000000000E+00 -0.00000000000E+00 -0.36526153273E+04  0.36526153273E+04  0.00000000000E+00 0. -1.
         23    2    1    2    0    0 -0.18159691554E+04 -0.20807030687E+03 -0.41822952992E+03  0.18772321151E+04  0.89706457312E+02 0.  0.
         11    1    3    3    0    0 -0.64154883906E+03 -0.11625828440E+03 -0.15560054274E+03  0.67030771328E+03  0.00000000000E+00 0. -1.
        -11    1    3    3    0    0 -0.11744203163E+04 -0.91812022464E+02 -0.26262898718E+03  0.12069244018E+04  0.00000000000E+00 0.  1.
         22    1    1    2    0    0  0.18159691554E+04  0.20807030687E+03 -0.21714322818E+04  0.28383367278E+04  0.00000000000E+00 0. -1.
<mgrwt>
<rscale>  0 0.39408427E+04</rscale>
<asrwt>0</asrwt>
<pdfrwt beam="1">  1        1 0.56194083E+00 0.39408427E+04</pdfrwt>
<pdfrwt beam="2">  1       -1 0.16353131E+00 0.39408427E+04</pdfrwt>
<totfact> 0.40686784E-02</totfact>
</mgrwt>
</event>
<event>
 6    1  0.1780144E-005  0.1786501E+04  0.7818608E-02  0.8713511E-01
         -2   -1    0    0    0  501 -0.00000000000E+00  0.00000000000E+00  0.76397009009E+03  0.76397009009E+03  0.00000000000E+00 0.  1.
          2   -1    0    0  501    0  0.00000000000E+00 -0.00000000000E+00 -0.10444076624E+04  0.10444076624E+04  0.00000000000E+00 0. -1.
         23    2    1    2    0    0  0.51597915085E+03 -0.70442944552E+03 -0.31927953013E+03  0.93432739605E+03  0.92590155163E+02 0.  0.
         11    1    3    3    0    0  0.30388665509E+03 -0.33963736640E+03 -0.17938073276E+03  0.48977350590E+03  0.00000000000E+00 0. -1.
        -11    1    3    3    0    0  0.21209249576E+03 -0.36479207911E+03 -0.13989879737E+03  0.44455389015E+03  0.00000000000E+00 0.  1.
         22    1    1    2    0    0 -0.51597915085E+03  0.70442944552E+03  0.38841957861E+02  0.87405035639E+03  0.00000000000E+00 0.  1.
<mgrwt>
<rscale>  0 0.17865007E+04</rscale>
<asrwt>0</asrwt>
<pdfrwt beam="1">  1        2 0.16067810E+00 0.17865007E+04</pdfrwt>
<pdfrwt beam="2">  1       -2 0.11753386E+00 0.17865007E+04</pdfrwt>
<totfact> 0.12468797E+01</totfact>
</mgrwt>
</event>
<event>
 6    1  0.1780144E-005  0.2231680E+04  0.7818608E-02  0.8505357E-01
          2   -1    0    0  501    0  0.00000000000E+00  0.00000000000E+00  0.19926575232E+04  0.19926575232E+04  0.00000000000E+00 0. -1.
         -2   -1    0    0    0  501 -0.00000000000E+00 -0.00000000000E+00 -0.62484332648E+03  0.62484332648E+03  0.00000000000E+00 0.  1.
         23    2    1    2    0    0  0.35102668826E+02  0.74967227028E+03 -0.28080449472E+03  0.80609689143E+03  0.87751489602E+02 0.  0.
         11    1    3    3    0    0  0.27038696306E+02  0.67550659850E+03 -0.22352816145E+03  0.71204290227E+03  0.00000000000E+00 0. -1.
        -11    1    3    3    0    0  0.80639725203E+01  0.74165671788E+02 -0.57276333267E+02  0.94053989161E+02  0.00000000000E+00 0.  1.
         22    1    1    2    0    0 -0.35102668826E+02 -0.74967227028E+03  0.16486186915E+04  0.18114039583E+04  0.00000000000E+00 0. -1.
<mgrwt>
<rscale>  0 0.22316799E+04</rscale>
<asrwt>0</asrwt>
<pdfrwt beam="1">  1        2 0.30656269E+00 0.22316799E+04</pdfrwt>
<pdfrwt beam="2">  1       -2 0.96129744E-01 0.22316799E+04</pdfrwt>
<totfact> 0.55736554E+00</totfact>
</mgrwt>
</event>
<event>
 6    1  0.1780144E-005  0.2147392E+04  0.7818608E-02  0.8540650E-01
          2   -1    0    0  501    0  0.00000000000E+00  0.00000000000E+00  0.24018925681E+04  0.24018925681E+04  0.00000000000E+00 0. -1.
         -2   -1    0    0    0  501 -0.00000000000E+00 -0.00000000000E+00 -0.47996437974E+03  0.47996437974E+03  0.00000000000E+00 0.  1.
         23    2    1    2    0    0  0.10702161592E+04 -0.39701338836E+02  0.90815665890E+03  0.14071801909E+04  0.92025805467E+02 0.  0.
         11    1    3    3    0    0  0.31404955675E+03 -0.17902361168E+02  0.21376707845E+03  0.38032089406E+03  0.00000000000E+00 0. -1.
        -11    1    3    3    0    0  0.75616660241E+03 -0.21798977668E+02  0.69438958046E+03  0.10268592968E+04  0.00000000000E+00 0.  1.
         22    1    1    2    0    0 -0.10702161592E+04  0.39701338836E+02  0.10137715295E+04  0.14746767570E+04  0.00000000000E+00 0. -1.
<mgrwt>
<rscale>  0 0.21473918E+04</rscale>
<asrwt>0</asrwt>
<pdfrwt beam="1">  1        2 0.36952193E+00 0.21473918E+04</pdfrwt>
<pdfrwt beam="2">  1       -2 0.73840675E-01 0.21473918E+04</pdfrwt>
<totfact> 0.60175104E+00</totfact>
</mgrwt>
</event>
<event>
 6    1  0.1780144E-005  0.1961154E+04  0.7818608E-02  0.8625001E-01
         -1   -1    0    0    0  501 -0.00000000000E+00  0.00000000000E+00  0.49168097178E+03  0.49168097178E+03  0.00000000000E+00 0.  1.
          1   -1    0    0  501    0  0.00000000000E+00 -0.00000000000E+00 -0.19556006222E+04  0.19556006222E+04  0.00000000000E+00 0. -1.
         23    2    1    2    0    0  0.96005993924E+03 -0.40636636227E+02 -0.50336155932E+03  0.10885916847E+04  0.91063568552E+02 0.  0.
         13    1    3    3    0    0  0.78687929131E+03 -0.62486956445E+02 -0.43366427143E+03  0.90063774024E+03  0.00000000000E+00 0. -1.
        -13    1    3    3    0    0  0.17318064793E+03  0.21850320218E+02 -0.69697287884E+02  0.18795394449E+03  0.00000000000E+00 0.  1.
         22    1    1    2    0    0 -0.96005993924E+03  0.40636636227E+02 -0.96055809112E+03  0.13586899093E+04  0.00000000000E+00 0.  1.
<mgrwt>
<rscale>  0 0.19611544E+04</rscale>
<asrwt>0</asrwt>
<pdfrwt beam="1">  1        1 0.30086164E+00 0.19611544E+04</pdfrwt>
<pdfrwt beam="2">  1       -1 0.75643226E-01 0.19611544E+04</pdfrwt>
<totfact> 0.52206058E+00</totfact>
</mgrwt>
</event>
<event>
 6    1  0.1780144E-005  0.5085934E+04  0.7818608E-02  0.7815386E-01
          2   -1    0    0  501    0  0.00000000000E+00  0.00000000000E+00  0.30330333691E+04  0.30330333691E+04  0.00000000000E+00 0. -1.
         -2   -1    0    0    0  501 -0.00000000000E+00 -0.00000000000E+00 -0.21320833348E+04  0.21320833348E+04  0.00000000000E+00 0.  1.
         23    2    1    2    0    0 -0.20315186908E+03  0.12087101083E+04 -0.18113088041E+04  0.21887768687E+04  0.87485936564E+02 0.  0.
         13    1    3    3    0    0 -0.65342052661E+02  0.65156155575E+03 -0.96026903175E+03  0.11622902641E+04  0.00000000000E+00 0. -1.
        -13    1    3    3    0    0 -0.13780981642E+03  0.55714855257E+03 -0.85103977236E+03  0.10264866045E+04  0.00000000000E+00 0.  1.
         22    1    1    2    0    0  0.20315186908E+03 -0.12087101083E+04  0.27122588384E+04  0.29763398352E+04  0.00000000000E+00 0. -1.
<mgrwt>
<rscale>  0 0.50859335E+04</rscale>
<asrwt>0</asrwt>
<pdfrwt beam="1">  1        2 0.46662052E+00 0.50859335E+04</pdfrwt>
<pdfrwt beam="2">  1       -2 0.32801282E+00 0.50859335E+04</pdfrwt>
<totfact> 0.25618552E-02</totfact>
</mgrwt>
</event>
<event>
 6    1  0.1780144E-005  0.3447893E+04  0.7818608E-02  0.8126251E-01
          2   -1    0    0  501    0  0.00000000000E+00  0.00000000000E+00  0.12166741590E+04  0.12166741590E+04  0.00000000000E+00 0.  1.
         -2   -1    0    0    0  501 -0.00000000000E+00 -0.00000000000E+00 -0.24427177959E+04  0.24427177959E+04  0.00000000000E+00 0. -1.
         23    2    1    2    0    0 -0.50520551953E+03  0.15499966606E+04 -0.22372800679E+02  0.16329305695E+04  0.90771349155E+02 0.  0.
         13    1    3    3    0    0 -0.31625888032E+03  0.83140521611E+03 -0.25996875176E+02  0.88990457369E+03  0.00000000000E+00 0.  1.
        -13    1    3    3    0    0 -0.18894663921E+03  0.71859144447E+03  0.36240744979E+01  0.74302599581E+03  0.00000000000E+00 0. -1.
         22    1    1    2    0    0  0.50520551953E+03 -0.15499966606E+04 -0.12036708362E+04  0.20264613855E+04  0.00000000000E+00 0. -1.
<mgrwt>
<rscale>  0 0.34478930E+04</rscale>
<asrwt>0</asrwt>
<pdfrwt beam="1">  1        2 0.18718064E+00 0.34478930E+04</pdfrwt>
<pdfrwt beam="2">  1       -2 0.37580273E+00 0.34478930E+04</pdfrwt>
<totfact> 0.16266816E-01</totfact>
</mgrwt>
</event>
<event>
 6    1  0.1780144E-005  0.2882596E+04  0.7818608E-02  0.8278075E-01
          2   -1    0    0  501    0  0.00000000000E+00  0.00000000000E+00  0.14750293279E+04  0.14750293279E+04  0.00000000000E+00 0. -1.
         -2   -1    0    0    0  501 -0.00000000000E+00 -0.00000000000E+00 -0.14083379219E+04  0.14083379219E+04  0.00000000000E+00 0.  1.
         23    2    1    2    0    0 -0.85453715054E+03  0.53788892516E+03  0.10603213683E+04  0.14667308323E+04  0.86369514545E+02 0.  0.
         11    1    3    3    0    0 -0.21790728679E+03  0.13751568310E+03  0.32702363560E+03  0.41633953328E+03  0.00000000000E+00 0. -1.
        -11    1    3    3    0    0 -0.63662986375E+03  0.40037324206E+03  0.73329773266E+03  0.10503912990E+04  0.00000000000E+00 0.  1.
         22    1    1    2    0    0  0.85453715054E+03 -0.53788892516E+03 -0.99362996227E+03  0.14166364175E+04  0.00000000000E+00 0.  1.
<mgrwt>
<rscale>  0 0.28825959E+04</rscale>
<asrwt>0</asrwt>
<pdfrwt beam="1">  1        2 0.22692759E+00 0.28825959E+04</pdfrwt>
<pdfrwt beam="2">  1       -2 0.21666737E+00 0.28825959E+04</pdfrwt>
<totfact> 0.11763019E+00</totfact>
</mgrwt>
</event>
<event>
 6    1  0.1780144E-005  0.2226876E+04  0.7818608E-02  0.8507324E-01
         -2   -1    0    0    0  501 -0.00000000000E+00  0.00000000000E+00  0.42273325458E+03  0.42273325458E+03  0.00000000000E+00 0.  1.
          2   -1    0    0  501    0  0.00000000000E+00 -0.00000000000E+00 -0.29326857796E+04  0.29326857796E+04  0.00000000000E+00 0. -1.
         23    2    1    2    0    0 -0.26503549051E+03 -0.40267610442E+03  0.25212101974E+03  0.55159269808E+03  0.91091380925E+02 0.  0.
         11    1    3    3    0    0 -0.90138890004E+02 -0.16166658809E+03  0.50127143517E+02  0.19176505342E+03  0.00000000000E+00 0. -1.
        -11    1    3    3    0    0 -0.17489660051E+03 -0.24100951634E+03  0.20199387622E+03  0.35982764466E+03  0.00000000000E+00 0.  1.
         22    1    1    2    0    0  0.26503549051E+03  0.40267610442E+03 -0.27620735448E+04  0.28038263361E+04  0.00000000000E+00 0. -1.
<mgrwt>
<rscale>  0 0.22268757E+04</rscale>
<asrwt>0</asrwt>
<pdfrwt beam="1">  1        2 0.45118243E+00 0.22268757E+04</pdfrwt>
<pdfrwt beam="2">  1       -2 0.65035884E-01 0.22268757E+04</pdfrwt>
<totfact> 0.38173925E+00</totfact>
</mgrwt>
</event>
<event>
 6    1  0.1780144E-005  0.2946726E+04  0.7818608E-02  0.8259109E-01
         -1   -1    0    0    0  501 -0.00000000000E+00  0.00000000000E+00  0.10577332196E+04  0.10577332196E+04  0.00000000000E+00 0.  1.
          1   -1    0    0  501    0  0.00000000000E+00 -0.00000000000E+00 -0.20523124756E+04  0.20523124756E+04  0.00000000000E+00 0. -1.
         23    2    1    2    0    0 -0.56777689201E+03 -0.71075987282E+03 -0.17192816925E+04  0.19469705397E+04  0.84938497625E+02 0.  0.
         13    1    3    3    0    0 -0.40992055962E+03 -0.52443091695E+03 -0.11756113134E+04  0.13509717288E+04  0.00000000000E+00 0.  1.
        -13    1    3    3    0    0 -0.15785633239E+03 -0.18632895587E+03 -0.54367037905E+03  0.59599881084E+03  0.00000000000E+00 0. -1.
         22    1    1    2    0    0  0.56777689201E+03  0.71075987282E+03  0.72470243645E+03  0.11630751555E+04  0.00000000000E+00 0.  1.
<mgrwt>
<rscale>  0 0.29467264E+04</rscale>
<asrwt>0</asrwt>
<pdfrwt beam="1">  1        1 0.31574038E+00 0.29467264E+04</pdfrwt>
<pdfrwt beam="2">  1       -1 0.16272819E+00 0.29467264E+04</pdfrwt>
<totfact> 0.65423206E-01</totfact>
</mgrwt>
</event>
<event>
 6    1  0.1780144E-005  0.1421273E+04  0.7818608E-02  0.8938563E-01
          1   -1    0    0  501    0  0.00000000000E+00  0.00000000000E+00  0.56916313220E+03  0.56916313220E+03  0.00000000000E+00 0. -1.
         -1   -1    0    0    0  501 -0.00000000000E+00 -0.00000000000E+00 -0.88727451350E+03  0.88727451350E+03  0.00000000000E+00 0.  1.
         23    2    1    2    0    0 -0.42545649087E+03 -0.56375890518E+03 -0.11346587259E+03  0.72110295115E+03  0.90981498819E+02 0.  0.
         13    1    3    3    0    0 -0.16698064711E+03 -0.15911793971E+03 -0.16368519812E+02  0.23123361280E+03  0.00000000000E+00 0.  1.
        -13    1    3    3    0    0 -0.25847584375E+03 -0.40464096547E+03 -0.97097352783E+02  0.48986933835E+03  0.00000000000E+00 0. -1.
         22    1    1    2    0    0  0.42545649087E+03  0.56375890518E+03 -0.20464550871E+03  0.73533469456E+03  0.00000000000E+00 0.  1.
<mgrwt>
<rscale>  0 0.14212726E+04</rscale>
<asrwt>0</asrwt>
<pdfrwt beam="1">  1        1 0.87563559E-01 0.14212726E+04</pdfrwt>
<pdfrwt beam="2">  1       -1 0.13650377E+00 0.14212726E+04</pdfrwt>
<totfact> 0.16105224E+01</totfact>
</mgrwt>
</event>
<event>
 6    1  0.1780144E-005  0.1403688E+04  0.7818608E-02  0.8951153E-01
          1   -1    0    0  501    0  0.00000000000E+00  0.00000000000E+00  0.68435073324E+03  0.68435073324E+03  0.00000000000E+00 0. -1.
         -1   -1    0    0    0  501 -0.00000000000E+00 -0.00000000000E+00 -0.71978464556E+03  0.71978464556E+03  0.00000000000E+00 0.  1.
         23    2    1    2    0    0 -0.62224577758E+03 -0.25735041857E+03 -0.20444699837E+03  0.70988436591E+03  0.93371259891E+02 0.  0.
         13    1    3    3    0    0 -0.41542561372E+03 -0.14862519964E+03 -0.92544142098E+02  0.45081294207E+03  0.00000000000E+00 0.  1.
        -13    1    3    3    0    0 -0.20682016386E+03 -0.10872521893E+03 -0.11190285627E+03  0.25907142384E+03  0.00000000000E+00 0. -1.
         22    1    1    2    0    0  0.62224577758E+03  0.25735041857E+03  0.16901308605E+03  0.69425101289E+03  0.00000000000E+00 0. -1.
<mgrwt>
<rscale>  0 0.14036882E+04</rscale>
<asrwt>0</asrwt>
<pdfrwt beam="1">  1        1 0.10528473E+00 0.14036882E+04</pdfrwt>
<pdfrwt beam="2">  1       -1 0.11073610E+00 0.14036882E+04</pdfrwt>
<totfact> 0.20654782E+01</totfact>
</mgrwt>
</event>
<event>
 6    1  0.2211124E-005  0.2673307E+04  0.7818608E-02  0.8343718E-01
          1   -1    0    0  501    0  0.00000000000E+00  0.00000000000E+00  0.12165977729E+04  0.12165977729E+04  0.00000000000E+00 0. -1.
         -1   -1    0    0    0  501 -0.00000000000E+00 -0.00000000000E+00 -0.14685564294E+04  0.14685564294E+04  0.00000000000E+00 0.  1.
         23    2    1    2    0    0  0.78913908346E+03  0.29464924147E+03  0.91435521474E+03  0.12464580165E+04  0.89741069894E+02 0.  0.
         13    1    3    3    0    0  0.27421118205E+03  0.13088877199E+03  0.37972721474E+03  0.48632951855E+03  0.00000000000E+00 0. -1.
        -13    1    3    3    0    0  0.51492790141E+03  0.16376046948E+03  0.53462800000E+03  0.76012849795E+03  0.00000000000E+00 0.  1.
         22    1    1    2    0    0 -0.78913908346E+03 -0.29464924147E+03 -0.11663138713E+04  0.14386961857E+04  0.00000000000E+00 0.  1.
<mgrwt>
<rscale>  0 0.26733069E+04</rscale>
<asrwt>0</asrwt>
<pdfrwt beam="1">  1        1 0.18716889E+00 0.26733069E+04</pdfrwt>
<pdfrwt beam="2">  1       -1 0.22593176E+00 0.26733069E+04</pdfrwt>
<totfact> 0.91353818E-01</totfact>
</mgrwt>
</event>
<event>
 6    1  0.1780144E-005  0.1877645E+04  0.7818608E-02  0.8666065E-01
         -1   -1    0    0    0  501 -0.00000000000E+00  0.00000000000E+00  0.88961193646E+03  0.88961193646E+03  0.00000000000E+00 0.  1.
          1   -1    0    0  501    0  0.00000000000E+00 -0.00000000000E+00 -0.99075491564E+03  0.99075491564E+03  0.00000000000E+00 0. -1.
         23    2    1    2    0    0  0.34515085777E+03 -0.12122353890E+03 -0.91422005792E+03  0.98878477682E+03  0.89848536735E+02 0.  0.
         13    1    3    3    0    0  0.19029759793E+03 -0.20318885512E+02 -0.49013153840E+03  0.52617008450E+03  0.00000000000E+00 0. -1.
        -13    1    3    3    0    0  0.15485325984E+03 -0.10090465338E+03 -0.42408851952E+03  0.46261469231E+03  0.00000000000E+00 0.  1.
         22    1    1    2    0    0 -0.34515085777E+03  0.12122353890E+03  0.81307707874E+03  0.89158207529E+03  0.00000000000E+00 0.  1.
<mgrwt>
<rscale>  0 0.18776447E+04</rscale>
<asrwt>0</asrwt>
<pdfrwt beam="1">  1        1 0.15242383E+00 0.18776447E+04</pdfrwt>
<pdfrwt beam="2">  1       -1 0.13686337E+00 0.18776447E+04</pdfrwt>
<totfact> 0.64139622E+00</totfact>
</mgrwt>
</event>
<event>
 6    1  0.1780144E-005  0.3524688E+04  0.7818608E-02  0.8107964E-01
          1   -1    0    0  501    0  0.00000000000E+00  0.00000000000E+00  0.13172131311E+04  0.13172131311E+04  0.00000000000E+00 0. -1.
         -1   -1    0    0    0  501 -0.00000000000E+00 -0.00000000000E+00 -0.23579000213E+04  0.23579000213E+04  0.00000000000E+00 0.  1.
         23    2    1    2    0    0 -0.13584260486E+04 -0.11048839566E+04 -0.32403802451E+03  0.17831101176E+04  0.91603293475E+02 0.  0.
         13    1    3    3    0    0 -0.46636006772E+03 -0.42805641895E+03 -0.94182226778E+02  0.63999554874E+03  0.00000000000E+00 0.  1.
        -13    1    3    3    0    0 -0.89206598086E+03 -0.67682753761E+03 -0.22985579773E+03  0.11431145689E+04  0.00000000000E+00 0. -1.
         22    1    1    2    0    0  0.13584260486E+04  0.11048839566E+04 -0.71664886561E+03  0.18920030348E+04  0.00000000000E+00 0.  1.
<mgrwt>
<rscale>  0 0.35246883E+04</rscale>
<asrwt>0</asrwt>
<pdfrwt beam="1">  1        1 0.20264818E+00 0.35246883E+04</pdfrwt>
<pdfrwt beam="2">  1       -1 0.36275385E+00 0.35246883E+04</pdfrwt>
<totfact> 0.91424702E-02</totfact>
</mgrwt>
</event>
<event>
 6    1  0.1780144E-005  0.2867875E+04  0.7818608E-02  0.8282500E-01
          2   -1    0    0  501    0  0.00000000000E+00  0.00000000000E+00  0.25313391511E+04  0.25313391511E+04  0.00000000000E+00 0. -1.
         -2   -1    0    0    0  501 -0.00000000000E+00 -0.00000000000E+00 -0.81228787966E+03  0.81228787966E+03  0.00000000000E+00 0.  1.
         23    2    1    2    0    0 -0.20171903998E+03  0.36033669690E+03 -0.73880657866E+03  0.85131920116E+03  0.91521119850E+02 0.  0.
         11    1    3    3    0    0 -0.10507124277E+03  0.23001834988E+03 -0.36735531571E+03  0.44598019610E+03  0.00000000000E+00 0. -1.
        -11    1    3    3    0    0 -0.96647797214E+02  0.13031834702E+03 -0.37145126295E+03  0.40533900506E+03  0.00000000000E+00 0.  1.
         22    1    1    2    0    0  0.20171903998E+03 -0.36033669690E+03  0.24578578501E+04  0.24923078296E+04  0.00000000000E+00 0. -1.
<mgrwt>
<rscale>  0 0.28678746E+04</rscale>
<asrwt>0</asrwt>
<pdfrwt beam="1">  1        2 0.38943679E+00 0.28678746E+04</pdfrwt>
<pdfrwt beam="2">  1       -2 0.12496737E+00 0.28678746E+04</pdfrwt>
<totfact> 0.13855992E+00</totfact>
</mgrwt>
</event>
<event>
 6    1  0.1780144E-005  0.3057477E+04  0.7818608E-02  0.8227506E-01
          1   -1    0    0  501    0  0.00000000000E+00  0.00000000000E+00  0.28010160803E+04  0.28010160803E+04  0.00000000000E+00 0. -1.
         -1   -1    0    0    0  501 -0.00000000000E+00 -0.00000000000E+00 -0.83435472400E+03  0.83435472400E+03  0.00000000000E+00 0.  1.
         23    2    1    2    0    0 -0.26913493552E+03 -0.85364699999E+03  0.24555596948E+04  0.26154843403E+04  0.99187225355E+02 0.  0.
         13    1    3    3    0    0 -0.18829118685E+02 -0.33945987246E+02  0.17348348465E+03  0.17777340973E+03  0.00000000000E+00 0.  1.
        -13    1    3    3    0    0 -0.25030581683E+03 -0.81970101275E+03  0.22820762102E+04  0.24377109306E+04  0.00000000000E+00 0. -1.
         22    1    1    2    0    0  0.26913493552E+03  0.85364699999E+03 -0.48889833847E+03  0.10198864640E+04  0.00000000000E+00 0.  1.
<mgrwt>
<rscale>  0 0.30574767E+04</rscale>
<asrwt>0</asrwt>
<pdfrwt beam="1">  1        1 0.43092555E+00 0.30574767E+04</pdfrwt>
<pdfrwt beam="2">  1       -1 0.12836227E+00 0.30574767E+04</pdfrwt>
<totfact> 0.36872387E-01</totfact>
</mgrwt>
</event>
<event>
 6    1  0.1780144E-005  0.3609167E+04  0.7818608E-02  0.8088395E-01
         -1   -1    0    0    0  501 -0.00000000000E+00  0.00000000000E+00  0.16727023909E+04  0.16727023909E+04  0.00000000000E+00 0.  1.
          1   -1    0    0  501    0  0.00000000000E+00 -0.00000000000E+00 -0.19468629415E+04  0.19468629415E+04  0.00000000000E+00 0. -1.
         23    2    1    2    0    0  0.74167574609E+03  0.73945178277E+03  0.13350550670E+04  0.16995531566E+04  0.96109565651E+02 0.  0.
         13    1    3    3    0    0  0.40473446597E+03  0.46228008994E+03  0.74394398670E+03  0.96486554755E+03  0.00000000000E+00 0. -1.
        -13    1    3    3    0    0  0.33694128012E+03  0.27717169284E+03  0.59111108032E+03  0.73468760902E+03  0.00000000000E+00 0.  1.
         22    1    1    2    0    0 -0.74167574609E+03 -0.73945178277E+03 -0.16092156176E+04  0.19200121758E+04  0.00000000000E+00 0. -1.
<mgrwt>
<rscale>  0 0.36091674E+04</rscale>
<asrwt>0</asrwt>
<pdfrwt beam="1">  1        1 0.29951738E+00 0.36091674E+04</pdfrwt>
<pdfrwt beam="2">  1       -1 0.25733883E+00 0.36091674E+04</pdfrwt>
<totfact> 0.16346693E-01</totfact>
</mgrwt>
</event>
<event>
 6    1  0.1780144E-005  0.1165090E+04  0.7818608E-02  0.9143974E-01
          1   -1    0    0  501    0  0.00000000000E+00  0.00000000000E+00  0.19981621135E+04  0.19981621135E+04  0.00000000000E+00 0. -1.
         -1   -1    0    0    0  501 -0.00000000000E+00 -0.00000000000E+00 -0.16983530469E+03  0.16983530469E+03  0.00000000000E+00 0.  1.
         23    2    1    2    0    0 -0.88852465438E+02  0.36451810070E+03  0.98622567467E+02  0.39806946235E+03  0.89245054137E+02 0.  0.
         11    1    3    3    0    0 -0.41433347264E+02  0.16067779432E+03  0.89628637241E+02  0.18859312943E+03  0.00000000000E+00 0.  1.
        -11    1    3    3    0    0 -0.47419118174E+02  0.20384030638E+03  0.89939302262E+01  0.20947633292E+03  0.00000000000E+00 0. -1.
         22    1    1    2    0    0  0.88852465438E+02 -0.36451810070E+03  0.17297042413E+04  0.17699279558E+04  0.00000000000E+00 0. -1.
<mgrwt>
<rscale>  0 0.11650896E+04</rscale>
<asrwt>0</asrwt>
<pdfrwt beam="1">  1        1 0.30740954E+00 0.11650896E+04</pdfrwt>
<pdfrwt beam="2">  1       -1 0.26128510E-01 0.11650896E+04</pdfrwt>
<totfact> 0.38575351E+01</totfact>
</mgrwt>
</event>
<event>
 6    1  0.1780144E-005  0.2599754E+04  0.7818608E-02  0.8368285E-01
         -1   -1    0    0    0  501 -0.00000000000E+00  0.00000000000E+00  0.12436056310E+04  0.12436056310E+04  0.00000000000E+00 0.  1.
          1   -1    0    0  501    0  0.00000000000E+00 -0.00000000000E+00 -0.13586947521E+04  0.13586947521E+04  0.00000000000E+00 0. -1.
         23    2    1    2    0    0 -0.32948496298E+03  0.21107261054E+03  0.11813455487E+04  0.12481014166E+04  0.95225274186E+02 0.  0.
         13    1    3    3    0    0 -0.81971253687E+02  0.86706339381E+02  0.26115251775E+03  0.28712003282E+03  0.00000000000E+00 0.  1.
        -13    1    3    3    0    0 -0.24751370929E+03  0.12436627115E+03  0.92019303097E+03  0.96098138376E+03  0.00000000000E+00 0. -1.
         22    1    1    2    0    0  0.32948496298E+03 -0.21107261054E+03 -0.12964346698E+04  0.13541989665E+04  0.00000000000E+00 0. -1.
<mgrwt>
<rscale>  0 0.25997542E+04</rscale>
<asrwt>0</asrwt>
<pdfrwt beam="1">  1        1 0.20902996E+00 0.25997542E+04</pdfrwt>
<pdfrwt beam="2">  1       -1 0.19132394E+00 0.25997542E+04</pdfrwt>
<totfact> 0.12516693E+00</totfact>
</mgrwt>
</event>
<event>
 6    1  0.1780144E-005  0.1894455E+04  0.7818608E-02  0.8657621E-01
          1   -1    0    0  501    0  0.00000000000E+00  0.00000000000E+00  0.78964460111E+03  0.78964460111E+03  0.00000000000E+00 0. -1.
         -1   -1    0    0    0  501 -0.00000000000E+00 -0.00000000000E+00 -0.11362581688E+04  0.11362581688E+04  0.00000000000E+00 0.  1.
         23    2    1    2    0    0  0.54588981739E+03 -0.67394870441E+03 -0.55545661283E+03  0.10338164701E+04  0.89676620330E+02 0.  0.
         11    1    3    3    0    0  0.42441420910E+03 -0.45993513651E+03 -0.39809144716E+03  0.74171729856E+03  0.00000000000E+00 0. -1.
        -11    1    3    3    0    0  0.12147560829E+03 -0.21401356790E+03 -0.15736516567E+03  0.29209917155E+03  0.00000000000E+00 0.  1.
         22    1    1    2    0    0 -0.54588981739E+03  0.67394870441E+03  0.20884304510E+03  0.89208629985E+03  0.00000000000E+00 0. -1.
<mgrwt>
<rscale>  0 0.18944552E+04</rscale>
<asrwt>0</asrwt>
<pdfrwt beam="1">  1        1 0.12148378E+00 0.18944552E+04</pdfrwt>
<pdfrwt beam="2">  1       -1 0.17480895E+00 0.18944552E+04</pdfrwt>
<totfact> 0.47951312E+00</totfact>
</mgrwt>
</event>
<event>
 6    1  0.1780144E-005  0.1400314E+04  0.7818608E-02  0.8953592E-01
         -1   -1    0    0    0  501 -0.00000000000E+00  0.00000000000E+00  0.55852998722E+03  0.55852998722E+03  0.00000000000E+00 0.  1.
          1   -1    0    0  501    0  0.00000000000E+00 -0.00000000000E+00 -0.87769608338E+03  0.87769608338E+03  0.00000000000E+00 0. -1.
         23    2    1    2    0    0  0.28827170338E+03  0.13195775787E+03  0.47645467314E+03  0.57976484359E+03  0.92762026025E+02 0.  0.
         13    1    3    3    0    0  0.19634650003E+03  0.12363871514E+03  0.28733816670E+03  0.36932601045E+03  0.00000000000E+00 0. -1.
        -13    1    3    3    0    0  0.91925203347E+02  0.83190427317E+01  0.18911650644E+03  0.21043883314E+03  0.00000000000E+00 0.  1.
         22    1    1    2    0    0 -0.28827170338E+03 -0.13195775787E+03 -0.79562076930E+03  0.85646122701E+03  0.00000000000E+00 0. -1.
<mgrwt>
<rscale>  0 0.14003137E+04</rscale>
<asrwt>0</asrwt>
<pdfrwt beam="1">  1        1 0.13503017E+00 0.14003137E+04</pdfrwt>
<pdfrwt beam="2">  1       -1 0.85927691E-01 0.14003137E+04</pdfrwt>
<totfact> 0.24761167E+01</totfact>
</mgrwt>
</event>
<event>
 6    1  0.1780144E-005  0.2000170E+04  0.7818608E-02  0.8606541E-01
         -1   -1    0    0    0  501 -0.00000000000E+00  0.00000000000E+00  0.47095019268E+03  0.47095019268E+03  0.00000000000E+00 0.  1.
          1   -1    0    0  501    0  0.00000000000E+00 -0.00000000000E+00 -0.21237284440E+04  0.21237284440E+04  0.00000000000E+00 0. -1.
         23    2    1    2    0    0  0.15779906095E+03  0.97996580256E+03 -0.69369555195E+03  0.12144347662E+04  0.91677503520E+02 0.  0.
         13    1    3    3    0    0  0.11225114011E+03  0.41185995363E+03 -0.29839854862E+03  0.52083647499E+03  0.00000000000E+00 0. -1.
        -13    1    3    3    0    0  0.45547920839E+02  0.56810584893E+03 -0.39529700334E+03  0.69359829118E+03  0.00000000000E+00 0.  1.
         22    1    1    2    0    0 -0.15779906095E+03 -0.97996580256E+03 -0.95908269935E+03  0.13802438705E+04  0.00000000000E+00 0.  1.
<mgrwt>
<rscale>  0 0.20001703E+04</rscale>
<asrwt>0</asrwt>
<pdfrwt beam="1">  1        1 0.32672746E+00 0.20001703E+04</pdfrwt>
<pdfrwt beam="2">  1       -1 0.72453875E-01 0.20001703E+04</pdfrwt>
<totfact> 0.43766004E+00</totfact>
</mgrwt>
</event>
<event>
 6    1  0.1780144E-005  0.1920548E+04  0.7818608E-02  0.8644695E-01
         -2   -1    0    0    0  501 -0.00000000000E+00  0.00000000000E+00  0.42650007881E+03  0.42650007881E+03  0.00000000000E+00 0.  1.
          2   -1    0    0  501    0  0.00000000000E+00 -0.00000000000E+00 -0.21620771209E+04  0.21620771209E+04  0.00000000000E+00 0. -1.
         23    2    1    2    0    0  0.54661455060E+02  0.59884409903E+03  0.13577953689E+03  0.62297867119E+03  0.89800960493E+02 0.  0.
         13    1    3    3    0    0 -0.16410940410E+02  0.89864078720E+02  0.42130629830E+02  0.10059752273E+03  0.00000000000E+00 0.  1.
        -13    1    3    3    0    0  0.71072395470E+02  0.50898002031E+03  0.93648907065E+02  0.52238114846E+03  0.00000000000E+00 0. -1.
         22    1    1    2    0    0 -0.54661455060E+02 -0.59884409903E+03 -0.18713565790E+04  0.19655985285E+04  0.00000000000E+00 0. -1.
<mgrwt>
<rscale>  0 0.19205479E+04</rscale>
<asrwt>0</asrwt>
<pdfrwt beam="1">  1        2 0.33262725E+00 0.19205479E+04</pdfrwt>
<pdfrwt beam="2">  1       -2 0.65615397E-01 0.19205479E+04</pdfrwt>
<totfact> 0.10849423E+01</totfact>
</mgrwt>
</event>
<event>
 6    1  0.1780144E-005  0.5005270E+04  0.7818608E-02  0.7827695E-01
         -1   -1    0    0    0  501 -0.00000000000E+00  0.00000000000E+00  0.20791918869E+04  0.20791918869E+04  0.00000000000E+00 0.  1.
          1   -1    0    0  501    0  0.00000000000E+00 -0.00000000000E+00 -0.30123156015E+04  0.30123156015E+04  0.00000000000E+00 0. -1.
         23    2    1    2    0    0  0.65853246361E+03 -0.54962190818E+03 -0.28573791353E+04  0.29847307628E+04  0.90845782344E+02 0.  0.
         11    1    3    3    0    0  0.22363542484E+03 -0.20906854717E+03 -0.88441183013E+03  0.93589889728E+03  0.00000000000E+00 0.  1.
        -11    1    3    3    0    0  0.43489703877E+03 -0.34055336101E+03 -0.19729673052E+04  0.20488318656E+04  0.00000000000E+00 0. -1.
         22    1    1    2    0    0 -0.65853246361E+03  0.54962190818E+03  0.19242554206E+04  0.21067767256E+04  0.00000000000E+00 0.  1.
<mgrwt>
<rscale>  0 0.50052701E+04</rscale>
<asrwt>0</asrwt>
<pdfrwt beam="1">  1        1 0.46343317E+00 0.50052701E+04</pdfrwt>
<pdfrwt beam="2">  1       -1 0.31987568E+00 0.50052701E+04</pdfrwt>
<totfact> 0.10359519E-02</totfact>
</mgrwt>
</event>
<event>
 6    1  0.1780144E-005  0.6142333E+03  0.7818608E-02  0.9876309E-01
         -2   -1    0    0    0  501 -0.00000000000E+00  0.00000000000E+00  0.20553098951E+03  0.20553098951E+03  0.00000000000E+00 0.  1.
          2   -1    0    0  501    0  0.00000000000E+00 -0.00000000000E+00 -0.45891197116E+03  0.45891197116E+03  0.00000000000E+00 0. -1.
         23    2    1    2    0    0  0.24884159270E+02 -0.27215812023E+03  0.46665766359E+01  0.28857356030E+03  0.92540039868E+02 0.  0.
         11    1    3    3    0    0  0.38258927660E+02 -0.54365579664E+02 -0.18871205908E+02  0.69104878339E+02  0.00000000000E+00 0. -1.
        -11    1    3    3    0    0 -0.13374768390E+02 -0.21779254057E+03  0.23537782544E+02  0.21946868197E+03  0.00000000000E+00 0.  1.
         22    1    1    2    0    0 -0.24884159270E+02  0.27215812023E+03 -0.25804755829E+03  0.37586940037E+03  0.00000000000E+00 0. -1.
<mgrwt>
<rscale>  0 0.61423328E+03</rscale>
<asrwt>0</asrwt>
<pdfrwt beam="1">  1        2 0.70601841E-01 0.61423328E+03</pdfrwt>
<pdfrwt beam="2">  1       -2 0.31620153E-01 0.61423328E+03</pdfrwt>
<totfact> 0.63558555E+02</totfact>
</mgrwt>
</event>
<event>
 6    1  0.1780144E-005  0.3154231E+04  0.7818608E-02  0.8201010E-01
          1   -1    0    0  501    0  0.00000000000E+00  0.00000000000E+00  0.14121631907E+04  0.14121631907E+04  0.00000000000E+00 0. -1.
         -1   -1    0    0    0  501 -0.00000000000E+00 -0.00000000000E+00 -0.17613358266E+04  0.17613358266E+04  0.00000000000E+00 0.  1.
         23    2    1    2    0    0  0.58433863780E+03 -0.49461735275E+03  0.12110473061E+04  0.14355737495E+04  0.90213322639E+02 0.  0.
         13    1    3    3    0    0  0.28340450917E+03 -0.20610851852E+03  0.62209601251E+03  0.71400440195E+03  0.00000000000E+00 0. -1.
        -13    1    3    3    0    0  0.30093412863E+03 -0.28850883423E+03  0.58895129355E+03  0.72156934759E+03  0.00000000000E+00 0.  1.
         22    1    1    2    0    0 -0.58433863780E+03  0.49461735275E+03 -0.15602199419E+04  0.17379252678E+04  0.00000000000E+00 0.  1.
<mgrwt>
<rscale>  0 0.31542312E+04</rscale>
<asrwt>0</asrwt>
<pdfrwt beam="1">  1        1 0.21725588E+00 0.31542312E+04</pdfrwt>
<pdfrwt beam="2">  1       -1 0.27097474E+00 0.31542312E+04</pdfrwt>
<totfact> 0.32218156E-01</totfact>
</mgrwt>
</event>
<event>
 6    1  0.1780144E-005  0.1426305E+04  0.7818608E-02  0.8934994E-01
          2   -1    0    0  501    0  0.00000000000E+00  0.00000000000E+00  0.81314581591E+03  0.81314581591E+03  0.00000000000E+00 0.  1.
         -2   -1    0    0    0  501 -0.00000000000E+00 -0.00000000000E+00 -0.62545582572E+03  0.62545582572E+03  0.00000000000E+00 0. -1.
         23    2    1    2    0    0 -0.48640634797E+03 -0.24909449705E+03 -0.36323976897E+03  0.66261014468E+03  0.92031898082E+02 0.  0.
         11    1    3    3    0    0 -0.43761437475E+03 -0.21733238461E+03 -0.28693554746E+03  0.56663190414E+03  0.00000000000E+00 0. -1.
        -11    1    3    3    0    0 -0.48791973215E+02 -0.31762112444E+02 -0.76304221512E+02  0.95978240543E+02  0.00000000000E+00 0.  1.
         22    1    1    2    0    0  0.48640634797E+03  0.24909449705E+03  0.55092975916E+03  0.77599149695E+03  0.00000000000E+00 0.  1.
<mgrwt>
<rscale>  0 0.14263054E+04</rscale>
<asrwt>0</asrwt>
<pdfrwt beam="1">  1        2 0.12509936E+00 0.14263054E+04</pdfrwt>
<pdfrwt beam="2">  1       -2 0.96223973E-01 0.14263054E+04</pdfrwt>
<totfact> 0.29621382E+01</totfact>
</mgrwt>
</event>
<event>
 6    1  0.1780144E-005  0.2345969E+04  0.7818608E-02  0.8460013E-01
         -2   -1    0    0    0  501 -0.00000000000E+00  0.00000000000E+00  0.12428867259E+04  0.12428867259E+04  0.00000000000E+00 0.  1.
          2   -1    0    0  501    0  0.00000000000E+00 -0.00000000000E+00 -0.11070141575E+04  0.11070141575E+04  0.00000000000E+00 0. -1.
         23    2    1    2    0    0 -0.25393566771E+03 -0.15702228355E+03  0.12024784337E+04  0.12422965348E+04  0.90592361788E+02 0.  0.
         11    1    3    3    0    0 -0.70423743150E+02 -0.89493784864E+01  0.38495261290E+03  0.39144362194E+03  0.00000000000E+00 0.  1.
        -11    1    3    3    0    0 -0.18351192456E+03 -0.14807290507E+03  0.81752582082E+03  0.85085291289E+03  0.00000000000E+00 0. -1.
         22    1    1    2    0    0  0.25393566771E+03  0.15702228355E+03 -0.10666058654E+04  0.11076043485E+04  0.00000000000E+00 0. -1.
<mgrwt>
<rscale>  0 0.23459695E+04</rscale>
<asrwt>0</asrwt>
<pdfrwt beam="1">  1        2 0.17030987E+00 0.23459695E+04</pdfrwt>
<pdfrwt beam="2">  1       -2 0.19121334E+00 0.23459695E+04</pdfrwt>
<totfact> 0.29634378E+00</totfact>
</mgrwt>
</event>
<event>
 6    1  0.1780144E-005  0.2647261E+04  0.7818608E-02  0.8352323E-01
          1   -1    0    0  501    0  0.00000000000E+00  0.00000000000E+00  0.18699942972E+04  0.18699942972E+04  0.00000000000E+00 0. -1.
         -1   -1    0    0    0  501 -0.00000000000E+00 -0.00000000000E+00 -0.93689998425E+03  0.93689998425E+03  0.00000000000E+00 0.  1.
         23    2    1    2    0    0 -0.95723964283E+03  0.57446150860E+03 -0.28371702133E+03  0.11555482905E+04  0.92101817398E+02 0.  0.
         11    1    3    3    0    0 -0.48036347475E+03  0.29655956953E+03 -0.19038132936E+03  0.59576983536E+03  0.00000000000E+00 0. -1.
        -11    1    3    3    0    0 -0.47687616808E+03  0.27790193908E+03 -0.93335691965E+02  0.55977845512E+03  0.00000000000E+00 0.  1.
         22    1    1    2    0    0  0.95723964283E+03 -0.57446150860E+03  0.12168113343E+04  0.16513459910E+04  0.00000000000E+00 0.  1.
<mgrwt>
<rscale>  0 0.26472609E+04</rscale>
<asrwt>0</asrwt>
<pdfrwt beam="1">  1        1 0.28769143E+00 0.26472609E+04</pdfrwt>
<pdfrwt beam="2">  1       -1 0.14413846E+00 0.26472609E+04</pdfrwt>
<totfact> 0.12431667E+00</totfact>
</mgrwt>
</event>
<event>
 6    1  0.1780144E-005  0.5432973E+04  0.7818608E-02  0.7764980E-01
         -1   -1    0    0    0  501 -0.00000000000E+00  0.00000000000E+00  0.23497934202E+04  0.23497934202E+04  0.00000000000E+00 0.  1.
          1   -1    0    0  501    0  0.00000000000E+00 -0.00000000000E+00 -0.31404030623E+04  0.31404030623E+04  0.00000000000E+00 0. -1.
         23    2    1    2    0    0  0.14977256591E+04  0.13503963380E+04 -0.22334843107E+04  0.30105514012E+04  0.90637485517E+02 0.  0.
         13    1    3    3    0    0  0.76412812288E+03  0.67383274926E+03 -0.10627901087E+04  0.14722313599E+04  0.00000000000E+00 0. -1.
        -13    1    3    3    0    0  0.73359753617E+03  0.67656358874E+03 -0.11706942021E+04  0.15383200413E+04  0.00000000000E+00 0.  1.
         22    1    1    2    0    0 -0.14977256591E+04 -0.13503963380E+04  0.14428746686E+04  0.24796450812E+04  0.00000000000E+00 0.  1.
<mgrwt>
<rscale>  0 0.54329728E+04</rscale>
<asrwt>0</asrwt>
<pdfrwt beam="1">  1        1 0.48313893E+00 0.54329728E+04</pdfrwt>
<pdfrwt beam="2">  1       -1 0.36150668E+00 0.54329728E+04</pdfrwt>
<totfact> 0.42805281E-03</totfact>
</mgrwt>
</event>
<event>
 6    1  0.1780144E-005  0.1576417E+04  0.7818608E-02  0.8835169E-01
         -2   -1    0    0    0  501 -0.00000000000E+00  0.00000000000E+00  0.60395398602E+03  0.60395398602E+03  0.00000000000E+00 0. -1.
          2   -1    0    0  501    0  0.00000000000E+00 -0.00000000000E+00 -0.10286749707E+04  0.10286749707E+04  0.00000000000E+00 0.  1.
         23    2    1    2    0    0  0.13938531514E+03 -0.49169183696E+03  0.40486179720E+03  0.65825904719E+03  0.90569143586E+02 0.  0.
         13    1    3    3    0    0  0.80060646173E+02 -0.37677131882E+03  0.33904630688E+03  0.51314591683E+03  0.00000000000E+00 0.  1.
        -13    1    3    3    0    0  0.59324668967E+02 -0.11492051813E+03  0.65815490320E+02  0.14511313036E+03  0.00000000000E+00 0. -1.
         22    1    1    2    0    0 -0.13938531514E+03  0.49169183696E+03 -0.82958278191E+03  0.97436990955E+03  0.00000000000E+00 0.  1.
<mgrwt>
<rscale>  0 0.15764166E+04</rscale>
<asrwt>0</asrwt>
<pdfrwt beam="1">  1        2 0.15825769E+00 0.15764166E+04</pdfrwt>
<pdfrwt beam="2">  1       -2 0.92915999E-01 0.15764166E+04</pdfrwt>
<totfact> 0.22772879E+01</totfact>
</mgrwt>
</event>
<event>
 6    1  0.1780144E-005  0.2572709E+04  0.7818608E-02  0.8377531E-01
         -1   -1    0    0    0  501 -0.00000000000E+00  0.00000000000E+00  0.13704482127E+04  0.13704482127E+04  0.00000000000E+00 0.  1.
          1   -1    0    0  501    0  0.00000000000E+00 -0.00000000000E+00 -0.12074208227E+04  0.12074208227E+04  0.00000000000E+00 0. -1.
         23    2    1    2    0    0 -0.49446794773E+02 -0.50894650396E+03  0.12631631334E+04  0.13647036784E+04  0.73235911198E+02 0.  0.
         11    1    3    3    0    0 -0.20777538271E+02 -0.59568298974E+02  0.11102871296E+03  0.12770067909E+03  0.00000000000E+00 0. -1.
        -11    1    3    3    0    0 -0.28669256502E+02 -0.44937820498E+03  0.11521344205E+04  0.12370029993E+04  0.00000000000E+00 0.  1.
         22    1    1    2    0    0  0.49446794773E+02  0.50894650396E+03 -0.11001357434E+04  0.12131653570E+04  0.00000000000E+00 0. -1.
<mgrwt>
<rscale>  0 0.25727089E+04</rscale>
<asrwt>0</asrwt>
<pdfrwt beam="1">  1        1 0.18575705E+00 0.25727089E+04</pdfrwt>
<pdfrwt beam="2">  1       -1 0.21083819E+00 0.25727089E+04</pdfrwt>
<totfact> 0.11821296E+00</totfact>
</mgrwt>
</event>
<event>
 6    1  0.1780144E-005  0.1535297E+04  0.7818608E-02  0.8861314E-01
          2   -1    0    0  501    0  0.00000000000E+00  0.00000000000E+00  0.23294732307E+04  0.23294732307E+04  0.00000000000E+00 0. -1.
         -2   -1    0    0    0  501 -0.00000000000E+00 -0.00000000000E+00 -0.25296886827E+03  0.25296886827E+03  0.00000000000E+00 0.  1.
         23    2    1    2    0    0  0.32921775840E+03  0.31640029557E+03  0.81396300362E+01  0.46427634867E+03  0.83622932736E+02 0.  0.
         11    1    3    3    0    0  0.17836120082E+03  0.14507315381E+03  0.41337544305E+02  0.23359736832E+03  0.00000000000E+00 0. -1.
        -11    1    3    3    0    0  0.15085655758E+03  0.17132714175E+03 -0.33197914269E+02  0.23067898036E+03  0.00000000000E+00 0.  1.
         22    1    1    2    0    0 -0.32921775840E+03 -0.31640029557E+03  0.20683647324E+04  0.21181657503E+04  0.00000000000E+00 0.  1.
<mgrwt>
<rscale>  0 0.15352970E+04</rscale>
<asrwt>0</asrwt>
<pdfrwt beam="1">  1        2 0.35838048E+00 0.15352970E+04</pdfrwt>
<pdfrwt beam="2">  1       -2 0.38918289E-01 0.15352970E+04</pdfrwt>
<totfact> 0.26269883E+01</totfact>
</mgrwt>
</event>
<event>
 6    1  0.1780144E-005  0.1319476E+04  0.7818608E-02  0.9014262E-01
          1   -1    0    0  501    0  0.00000000000E+00  0.00000000000E+00  0.12789852963E+04  0.12789852963E+04  0.00000000000E+00 0. -1.
         -1   -1    0    0    0  501 -0.00000000000E+00 -0.00000000000E+00 -0.34031197486E+03  0.34031197486E+03  0.00000000000E+00 0.  1.
         23    2    1    2    0    0  0.31213346370E+03  0.12469095375E+03  0.11637783608E+04  0.12147636979E+04  0.91080379398E+02 0.  0.
         13    1    3    3    0    0  0.13017008556E+03  0.99642435505E+02  0.58542882211E+03  0.60794717853E+03  0.00000000000E+00 0. -1.
        -13    1    3    3    0    0  0.18196337814E+03  0.25048518247E+02  0.57834953873E+03  0.60681651939E+03  0.00000000000E+00 0.  1.
         22    1    1    2    0    0 -0.31213346370E+03 -0.12469095375E+03 -0.22510503941E+03  0.40453357324E+03  0.00000000000E+00 0.  1.
<mgrwt>
<rscale>  0 0.13194757E+04</rscale>
<asrwt>0</asrwt>
<pdfrwt beam="1">  1        1 0.19676697E+00 0.13194757E+04</pdfrwt>
<pdfrwt beam="2">  1       -1 0.52355689E-01 0.13194757E+04</pdfrwt>
<totfact> 0.33761172E+01</totfact>
</mgrwt>
</event>
<event>
 6    1  0.1780144E-005  0.3925986E+04  0.7818608E-02  0.8019646E-01
          2   -1    0    0  501    0  0.00000000000E+00  0.00000000000E+00  0.20974045590E+04  0.20974045590E+04  0.00000000000E+00 0. -1.
         -2   -1    0    0    0  501 -0.00000000000E+00 -0.00000000000E+00 -0.18371946991E+04  0.18371946991E+04  0.00000000000E+00 0.  1.
         23    2    1    2    0    0  0.11774976650E+04 -0.10838815281E+04 -0.10071321027E+04  0.18931645743E+04  0.91962573725E+02 0.  0.
         11    1    3    3    0    0  0.37358269734E+03 -0.38904678795E+03 -0.37239754906E+03  0.65543982906E+03  0.00000000000E+00 0. -1.
        -11    1    3    3    0    0  0.80391496767E+03 -0.69483474016E+03 -0.63473455367E+03  0.12377247452E+04  0.00000000000E+00 0.  1.
         22    1    1    2    0    0 -0.11774976650E+04  0.10838815281E+04  0.12673419627E+04  0.20414346838E+04  0.00000000000E+00 0. -1.
<mgrwt>
<rscale>  0 0.39259855E+04</rscale>
<asrwt>0</asrwt>
<pdfrwt beam="1">  1        2 0.32267763E+00 0.39259855E+04</pdfrwt>
<pdfrwt beam="2">  1       -2 0.28264534E+00 0.39259855E+04</pdfrwt>
<totfact> 0.18985776E-01</totfact>
</mgrwt>
</event>
<event>
 6    1  0.1780144E-005  0.2152256E+04  0.7818608E-02  0.8538567E-01
         -1   -1    0    0    0  501 -0.00000000000E+00  0.00000000000E+00  0.60685058724E+03  0.60685058724E+03  0.00000000000E+00 0.  1.
          1   -1    0    0  501    0  0.00000000000E+00 -0.00000000000E+00 -0.19082969596E+04  0.19082969596E+04  0.00000000000E+00 0. -1.
         23    2    1    2    0    0 -0.77183772798E+03 -0.67586386985E+03 -0.27862101636E+03  0.10664594652E+04  0.84738841966E+02 0.  0.
         11    1    3    3    0    0 -0.28071891050E+03 -0.25280287519E+03 -0.14483452911E+03  0.40458551783E+03  0.00000000000E+00 0.  1.
        -11    1    3    3    0    0 -0.49111881748E+03 -0.42306099466E+03 -0.13378648725E+03  0.66187394741E+03  0.00000000000E+00 0. -1.
         22    1    1    2    0    0  0.77183772798E+03  0.67586386985E+03 -0.10228253560E+04  0.14486880816E+04  0.00000000000E+00 0. -1.
<mgrwt>
<rscale>  0 0.21522557E+04</rscale>
<asrwt>0</asrwt>
<pdfrwt beam="1">  1        1 0.29358415E+00 0.21522557E+04</pdfrwt>
<pdfrwt beam="2">  1       -1 0.93361629E-01 0.21522557E+04</pdfrwt>
<totfact> 0.35050835E+00</totfact>
</mgrwt>
</event>
<event>
 6    1  0.1780144E-005  0.1510299E+04  0.7818608E-02  0.8877633E-01
          2   -1    0    0  501    0  0.00000000000E+00  0.00000000000E+00  0.41677792126E+04  0.41677792126E+04  0.00000000000E+00 0. -1.
         -2   -1    0    0    0  501 -0.00000000000E+00 -0.00000000000E+00 -0.13682366113E+03  0.13682366113E+03  0.00000000000E+00 0.  1.
         23    2    1    2    0    0  0.35382508540E+03 -0.43811253309E+03  0.34450249822E+04  0.34919224847E+04  0.90502643421E+02 0.  0.
         13    1    3    3    0    0  0.11028020846E+03 -0.12633382963E+03  0.12935583669E+04  0.13043830762E+04  0.00000000000E+00 0.  1.
        -13    1    3    3    0    0  0.24354487694E+03 -0.31177870346E+03  0.21514666153E+04  0.21875394085E+04  0.00000000000E+00 0. -1.
         22    1    1    2    0    0 -0.35382508540E+03  0.43811253309E+03  0.58593056927E+03  0.81268038903E+03  0.00000000000E+00 0.  1.
<mgrwt>
<rscale>  0 0.15102991E+04</rscale>
<asrwt>0</asrwt>
<pdfrwt beam="1">  1        2 0.64119670E+00 0.15102991E+04</pdfrwt>
<pdfrwt beam="2">  1       -2 0.21049797E-01 0.15102991E+04</pdfrwt>
<totfact> 0.48022563E+00</totfact>
</mgrwt>
</event>
<event>
 6    1  0.1780144E-005  0.1617807E+04  0.7818608E-02  0.8809683E-01
          2   -1    0    0  501    0  0.00000000000E+00  0.00000000000E+00  0.19205626226E+04  0.19205626226E+04  0.00000000000E+00 0. -1.
         -2   -1    0    0    0  501 -0.00000000000E+00 -0.00000000000E+00 -0.34069436704E+03  0.34069436704E+03  0.00000000000E+00 0.  1.
         23    2    1    2    0    0  0.57271091319E+03  0.23074842940E+03  0.15173515572E+04  0.16406516679E+04  0.90219285158E+02 0.  0.
         13    1    3    3    0    0  0.34572590705E+03  0.10713925851E+03  0.97052755377E+03  0.10358228401E+04  0.00000000000E+00 0. -1.
        -13    1    3    3    0    0  0.22698500614E+03  0.12360917090E+03  0.54682400346E+03  0.60482882777E+03  0.00000000000E+00 0.  1.
         22    1    1    2    0    0 -0.57271091319E+03 -0.23074842940E+03  0.62516698288E+02  0.62060532170E+03  0.00000000000E+00 0.  1.
<mgrwt>
<rscale>  0 0.16178070E+04</rscale>
<asrwt>0</asrwt>
<pdfrwt beam="1">  1        2 0.29547117E+00 0.16178070E+04</pdfrwt>
<pdfrwt beam="2">  1       -2 0.52414519E-01 0.16178070E+04</pdfrwt>
<totfact> 0.24332494E+01</totfact>
</mgrwt>
</event>
<event>
 6    1  0.1780144E-005  0.5623447E+03  0.7818608E-02  0.9986763E-01
          2   -1    0    0  501    0  0.00000000000E+00  0.00000000000E+00  0.19587127207E+03  0.19587127207E+03  0.00000000000E+00 0.  1.
         -2   -1    0    0    0  501 -0.00000000000E+00 -0.00000000000E+00 -0.40362164574E+03  0.40362164574E+03  0.00000000000E+00 0. -1.
         23    2    1    2    0    0 -0.24535244538E+03  0.40397670838E+02 -0.22858689636E+03  0.34996545451E+03  0.91619080428E+02 0.  0.
         13    1    3    3    0    0 -0.84366663090E+02 -0.29130105602E+02 -0.86132865054E+02  0.12403695956E+03  0.00000000000E+00 0.  1.
        -13    1    3    3    0    0 -0.16098578229E+03  0.69527776440E+02 -0.14245403130E+03  0.22592849495E+03  0.00000000000E+00 0. -1.
         22    1    1    2    0    0  0.24535244538E+03 -0.40397670838E+02  0.20836522685E+02  0.24952746330E+03  0.00000000000E+00 0.  1.
<mgrwt>
<rscale>  0 0.56234468E+03</rscale>
<asrwt>0</asrwt>
<pdfrwt beam="1">  1        2 0.30134042E-01 0.56234468E+03</pdfrwt>
<pdfrwt beam="2">  1       -2 0.62095638E-01 0.56234468E+03</pdfrwt>
<totfact> 0.43034256E+02</totfact>
</mgrwt>
</event>
<event>
 6    1  0.1780144E-005  0.2339320E+04  0.7818608E-02  0.8462577E-01
          2   -1    0    0  501    0  0.00000000000E+00  0.00000000000E+00  0.24876208102E+04  0.24876208102E+04  0.00000000000E+00 0. -1.
         -2   -1    0    0    0  501 -0.00000000000E+00 -0.00000000000E+00 -0.54996497598E+03  0.54996497598E+03  0.00000000000E+00 0.  1.
         23    2    1    2    0    0  0.67348413987E+03  0.81566381448E+03  0.32777807948E+03  0.11112953797E+04  0.93008637368E+02 0.  0.
         11    1    3    3    0    0  0.33192564244E+03  0.40991258973E+03  0.21182222390E+03  0.56839389324E+03  0.00000000000E+00 0. -1.
        -11    1    3    3    0    0  0.34155849742E+03  0.40575122475E+03  0.11595585558E+03  0.54290148645E+03  0.00000000000E+00 0.  1.
         22    1    1    2    0    0 -0.67348413987E+03 -0.81566381448E+03  0.16098777547E+04  0.19262904064E+04  0.00000000000E+00 0. -1.
<mgrwt>
<rscale>  0 0.23393198E+04</rscale>
<asrwt>0</asrwt>
<pdfrwt beam="1">  1        2 0.38271089E+00 0.23393198E+04</pdfrwt>
<pdfrwt beam="2">  1       -2 0.84609998E-01 0.23393198E+04</pdfrwt>
<totfact> 0.38940113E+00</totfact>
</mgrwt>
</event>
<event>
 6    1  0.1780144E-005  0.1883952E+04  0.7818608E-02  0.8662886E-01
         -1   -1    0    0    0  501 -0.00000000000E+00  0.00000000000E+00  0.16103457033E+04  0.16103457033E+04  0.00000000000E+00 0.  1.
          1   -1    0    0  501    0  0.00000000000E+00 -0.00000000000E+00 -0.55101119245E+03  0.55101119245E+03  0.00000000000E+00 0. -1.
         23    2    1    2    0    0  0.13234613628E+03  0.54616662071E+03 -0.33323254805E+03  0.65967234468E+03  0.91160264841E+02 0.  0.
         13    1    3    3    0    0  0.58272899161E+02  0.24276833109E+03 -0.96029490318E+02  0.26749552589E+03  0.00000000000E+00 0.  1.
        -13    1    3    3    0    0  0.74073237121E+02  0.30339828962E+03 -0.23720305773E+03  0.39217681880E+03  0.00000000000E+00 0. -1.
         22    1    1    2    0    0 -0.13234613628E+03 -0.54616662071E+03  0.13925670589E+04  0.15016845511E+04  0.00000000000E+00 0.  1.
<mgrwt>
<rscale>  0 0.18839517E+04</rscale>
<asrwt>0</asrwt>
<pdfrwt beam="1">  1        1 0.84770953E-01 0.18839517E+04</pdfrwt>
<pdfrwt beam="2">  1       -1 0.24774549E+00 0.18839517E+04</pdfrwt>
<totfact> 0.26145814E+00</totfact>
</mgrwt>
</event>
<event>
 6    1  0.1780144E-005  0.2144882E+04  0.7818608E-02  0.8541726E-01
          2   -1    0    0  501    0  0.00000000000E+00  0.00000000000E+00  0.13584276849E+04  0.13584276849E+04  0.00000000000E+00 0. -1.
         -2   -1    0    0    0  501 -0.00000000000E+00 -0.00000000000E+00 -0.84666236265E+03  0.84666236265E+03  0.00000000000E+00 0.  1.
         23    2    1    2    0    0 -0.24662184270E+03 -0.27180662297E+03  0.12901695422E+04  0.13445005384E+04  0.91886215905E+02 0.  0.
         11    1    3    3    0    0 -0.12069035948E+03 -0.19691157147E+03  0.74432542356E+03  0.77933347548E+03  0.00000000000E+00 0.  1.
        -11    1    3    3    0    0 -0.12593148322E+03 -0.74895051506E+02  0.54584411860E+03  0.56516706293E+03  0.00000000000E+00 0. -1.
         22    1    1    2    0    0  0.24662184270E+03  0.27180662297E+03 -0.77840421994E+03  0.86058950912E+03  0.00000000000E+00 0.  1.
<mgrwt>
<rscale>  0 0.21448819E+04</rscale>
<asrwt>0</asrwt>
<pdfrwt beam="1">  1        2 0.20898887E+00 0.21448819E+04</pdfrwt>
<pdfrwt beam="2">  1       -2 0.13025575E+00 0.21448819E+04</pdfrwt>
<totfact> 0.60677399E+00</totfact>
</mgrwt>
</event>
<event>
 6    1  0.1780144E-005  0.2753556E+04  0.7818608E-02  0.8317834E-01
          2   -1    0    0  501    0  0.00000000000E+00  0.00000000000E+00  0.12336263884E+04  0.12336263884E+04  0.00000000000E+00 0. -1.
         -2   -1    0    0    0  501 -0.00000000000E+00 -0.00000000000E+00 -0.15365407378E+04  0.15365407378E+04  0.00000000000E+00 0.  1.
         23    2    1    2    0    0 -0.55245275001E+03  0.19750648780E+03  0.10996529875E+04  0.12498355873E+04  0.92948634566E+02 0.  0.
         11    1    3    3    0    0 -0.75005919448E+02 -0.88144101405E+00  0.17610873128E+03  0.19141825964E+03  0.00000000000E+00 0. -1.
        -11    1    3    3    0    0 -0.47744683056E+03  0.19838792881E+03  0.92354425625E+03  0.10584173277E+04  0.00000000000E+00 0.  1.
         22    1    1    2    0    0  0.55245275001E+03 -0.19750648780E+03 -0.14025673369E+04  0.15203315390E+04  0.00000000000E+00 0.  1.
<mgrwt>
<rscale>  0 0.27535557E+04</rscale>
<asrwt>0</asrwt>
<pdfrwt beam="1">  1        2 0.18978868E+00 0.27535557E+04</pdfrwt>
<pdfrwt beam="2">  1       -2 0.23639088E+00 0.27535557E+04</pdfrwt>
<totfact> 0.12322027E+00</totfact>
</mgrwt>
</event>
<event>
 6    1  0.1780144E-005  0.6153671E+04  0.7818608E-02  0.7671635E-01
          2   -1    0    0  501    0  0.00000000000E+00  0.00000000000E+00  0.24721072693E+04  0.24721072693E+04  0.00000000000E+00 0. -1.
         -2   -1    0    0    0  501 -0.00000000000E+00 -0.00000000000E+00 -0.38294928845E+04  0.38294928845E+04  0.00000000000E+00 0.  1.
         23    2    1    2    0    0  0.25664949364E+04 -0.57422519497E+03  0.95553243153E+03  0.27992836741E+04  0.79473437534E+02 0.  0.
         11    1    3    3    0    0  0.18534446322E+04 -0.38087381739E+03  0.67265482724E+03  0.20081798689E+04  0.00000000000E+00 0.  1.
        -11    1    3    3    0    0  0.71305030421E+03 -0.19335137758E+03  0.28287760429E+03  0.79110380517E+03  0.00000000000E+00 0. -1.
         22    1    1    2    0    0 -0.25664949364E+04  0.57422519497E+03 -0.23129180468E+04  0.35023164797E+04  0.00000000000E+00 0.  1.
<mgrwt>
<rscale>  0 0.61536712E+04</rscale>
<asrwt>0</asrwt>
<pdfrwt beam="1">  1        2 0.38032419E+00 0.61536712E+04</pdfrwt>
<pdfrwt beam="2">  1       -2 0.58915276E+00 0.61536712E+04</pdfrwt>
<totfact> 0.13800230E-03</totfact>
</mgrwt>
</event>
<event>
 6    1  0.1780144E-005  0.1696920E+04  0.7818608E-02  0.8763123E-01
         -2   -1    0    0    0  501 -0.00000000000E+00  0.00000000000E+00  0.20034535619E+04  0.20034535619E+04  0.00000000000E+00 0.  1.
          2   -1    0    0  501    0  0.00000000000E+00 -0.00000000000E+00 -0.35932157097E+03  0.35932157097E+03  0.00000000000E+00 0. -1.
         23    2    1    2    0    0  0.14162305262E+03  0.51075772930E+03 -0.93803391704E+02  0.54581339929E+03  0.90457965247E+02 0.  0.
         13    1    3    3    0    0  0.41991803961E+02  0.10714175447E+03  0.15078771003E+02  0.11606048632E+03  0.00000000000E+00 0. -1.
        -13    1    3    3    0    0  0.99631248659E+02  0.40361597483E+03 -0.10888216271E+03  0.42975291297E+03  0.00000000000E+00 0.  1.
         22    1    1    2    0    0 -0.14162305262E+03 -0.51075772930E+03  0.17379353827E+04  0.18169617336E+04  0.00000000000E+00 0.  1.
<mgrwt>
<rscale>  0 0.16969197E+04</rscale>
<asrwt>0</asrwt>
<pdfrwt beam="1">  1        2 0.55280243E-01 0.16969197E+04</pdfrwt>
<pdfrwt beam="2">  1       -2 0.30822362E+00 0.16969197E+04</pdfrwt>
<totfact> 0.24230460E+00</totfact>
</mgrwt>
</event>
<event>
 6    1  0.1780144E-005  0.1315394E+04  0.7818608E-02  0.9017446E-01
          1   -1    0    0  501    0  0.00000000000E+00  0.00000000000E+00  0.66587780269E+03  0.66587780269E+03  0.00000000000E+00 0. -1.
         -1   -1    0    0    0  501 -0.00000000000E+00 -0.00000000000E+00 -0.64961642405E+03  0.64961642405E+03  0.00000000000E+00 0.  1.
         23    2    1    2    0    0 -0.41178655105E+03  0.24032945006E+02  0.51649473189E+03  0.66712769940E+03  0.90259698431E+02 0.  0.
         13    1    3    3    0    0 -0.19077941374E+03  0.56061413803E+02  0.24997879651E+03  0.31941988906E+03  0.00000000000E+00 0. -1.
        -13    1    3    3    0    0 -0.22100713730E+03 -0.32028468798E+02  0.26651593539E+03  0.34770781034E+03  0.00000000000E+00 0.  1.
         22    1    1    2    0    0  0.41178655105E+03 -0.24032945006E+02 -0.50023335325E+03  0.64836652734E+03  0.00000000000E+00 0.  1.
<mgrwt>
<rscale>  0 0.13153937E+04</rscale>
<asrwt>0</asrwt>
<pdfrwt beam="1">  1        1 0.10244274E+00 0.13153937E+04</pdfrwt>
<pdfrwt beam="2">  1       -1 0.99940988E-01 0.13153937E+04</pdfrwt>
<totfact> 0.27532710E+01</totfact>
</mgrwt>
</event>
<event>
 6    1  0.1780144E-005  0.1400617E+04  0.7818608E-02  0.8953372E-01
         -2   -1    0    0    0  501 -0.00000000000E+00  0.00000000000E+00  0.16103392554E+03  0.16103392554E+03  0.00000000000E+00 0.  1.
          2   -1    0    0  501    0  0.00000000000E+00 -0.00000000000E+00 -0.30455215923E+04  0.30455215923E+04  0.00000000000E+00 0. -1.
         23    2    1    2    0    0 -0.87392697878E+02  0.50803799842E+03 -0.25235261186E+04  0.25772437265E+04  0.90890390918E+02 0.  0.
         13    1    3    3    0    0 -0.67204760294E+02  0.15689849228E+03 -0.74985574692E+03  0.76903657772E+03  0.00000000000E+00 0.  1.
        -13    1    3    3    0    0 -0.20187937584E+02  0.35113950614E+03 -0.17736703717E+04  0.18082071488E+04  0.00000000000E+00 0. -1.
         22    1    1    2    0    0  0.87392697878E+02 -0.50803799842E+03 -0.36096154820E+03  0.62931179137E+03  0.00000000000E+00 0.  1.
<mgrwt>
<rscale>  0 0.14006174E+04</rscale>
<asrwt>0</asrwt>
<pdfrwt beam="1">  1        2 0.46854179E+00 0.14006174E+04</pdfrwt>
<pdfrwt beam="2">  1       -2 0.24774450E-01 0.14006174E+04</pdfrwt>
<totfact> 0.23361640E+01</totfact>
</mgrwt>
</event>
<event>
 6    1  0.1780144E-005  0.2867008E+04  0.7818608E-02  0.8282762E-01
          2   -1    0    0  501    0  0.00000000000E+00  0.00000000000E+00  0.15497574766E+04  0.15497574766E+04  0.00000000000E+00 0. -1.
         -2   -1    0    0    0  501 -0.00000000000E+00 -0.00000000000E+00 -0.13259710787E+04  0.13259710787E+04  0.00000000000E+00 0.  1.
         23    2    1    2    0    0  0.13131634119E+04  0.36905545927E+03 -0.32548469591E+03  0.14052528456E+04  0.90527312107E+02 0.  0.
         13    1    3    3    0    0  0.10535470270E+04  0.32262134273E+03 -0.23671622482E+03  0.11269784559E+04  0.00000000000E+00 0.  1.
        -13    1    3    3    0    0  0.25961638491E+03  0.46434116544E+02 -0.88768471085E+02  0.27827438968E+03  0.00000000000E+00 0. -1.
         22    1    1    2    0    0 -0.13131634119E+04 -0.36905545927E+03  0.54927109378E+03  0.14704757097E+04  0.00000000000E+00 0. -1.
<mgrwt>
<rscale>  0 0.28670079E+04</rscale>
<asrwt>0</asrwt>
<pdfrwt beam="1">  1        2 0.23842423E+00 0.28670079E+04</pdfrwt>
<pdfrwt beam="2">  1       -2 0.20399555E+00 0.28670079E+04</pdfrwt>
<totfact> 0.12897700E+00</totfact>
</mgrwt>
</event>
<event>
 6    1  0.1780144E-005  0.2102928E+04  0.7818608E-02  0.8559955E-01
         -2   -1    0    0    0  501 -0.00000000000E+00  0.00000000000E+00  0.61142669680E+03  0.61142669680E+03  0.00000000000E+00 0.  1.
          2   -1    0    0  501    0  0.00000000000E+00 -0.00000000000E+00 -0.18081918176E+04  0.18081918176E+04  0.00000000000E+00 0. -1.
         23    2    1    2    0    0  0.82868352697E+02 -0.82491374658E+03 -0.13399828821E+04  0.15782736502E+04  0.89686886155E+02 0.  0.
         13    1    3    3    0    0  0.76503817031E+02 -0.56516817678E+03 -0.84889658978E+03  0.10226892599E+04  0.00000000000E+00 0.  1.
        -13    1    3    3    0    0  0.63645356656E+01 -0.25974556980E+03 -0.49108629233E+03  0.55558439040E+03  0.00000000000E+00 0. -1.
         22    1    1    2    0    0 -0.82868352697E+02  0.82491374658E+03  0.14321776135E+03  0.84134486410E+03  0.00000000000E+00 0.  1.
<mgrwt>
<rscale>  0 0.21029282E+04</rscale>
<asrwt>0</asrwt>
<pdfrwt beam="1">  1        2 0.27818335E+00 0.21029282E+04</pdfrwt>
<pdfrwt beam="2">  1       -2 0.94065648E-01 0.21029282E+04</pdfrwt>
<totfact> 0.75033824E+00</totfact>
</mgrwt>
</event>
<event>
 6    1  0.1780144E-005  0.3837082E+04  0.7818608E-02  0.8038244E-01
          2   -1    0    0  501    0  0.00000000000E+00  0.00000000000E+00  0.23311436477E+04  0.23311436477E+04  0.00000000000E+00 0. -1.
         -2   -1    0    0    0  501 -0.00000000000E+00 -0.00000000000E+00 -0.15789673844E+04  0.15789673844E+04  0.00000000000E+00 0.  1.
         23    2    1    2    0    0  0.40959199267E+03 -0.18731854978E+04  0.37973342797E+03  0.19568309254E+04  0.91653066047E+02 0.  0.
         13    1    3    3    0    0  0.22833629866E+03 -0.12082636514E+04  0.27038368490E+03  0.12590257558E+04  0.00000000000E+00 0.  1.
        -13    1    3    3    0    0  0.18125569401E+03 -0.66492184639E+03  0.10934974307E+03  0.69780516961E+03  0.00000000000E+00 0. -1.
         22    1    1    2    0    0 -0.40959199267E+03  0.18731854978E+04  0.37244283529E+03  0.19532801067E+04  0.00000000000E+00 0.  1.
<mgrwt>
<rscale>  0 0.38370821E+04</rscale>
<asrwt>0</asrwt>
<pdfrwt beam="1">  1        2 0.35863749E+00 0.38370821E+04</pdfrwt>
<pdfrwt beam="2">  1       -2 0.24291806E+00 0.38370821E+04</pdfrwt>
<totfact> 0.24724722E-01</totfact>
</mgrwt>
</event>
<event>
 6    1  0.1780144E-005  0.4707053E+03  0.7818608E-02  0.1021721E+00
         -1   -1    0    0    0  501 -0.00000000000E+00  0.00000000000E+00  0.10628905734E+03  0.10628905734E+03  0.00000000000E+00 0.  1.
          1   -1    0    0  501    0  0.00000000000E+00 -0.00000000000E+00 -0.52113423218E+03  0.52113423218E+03  0.00000000000E+00 0. -1.
         23    2    1    2    0    0  0.22423509744E+03  0.13854768367E+02 -0.18027286131E+03  0.30261949673E+03  0.92773497003E+02 0.  0.
         13    1    3    3    0    0  0.87737223456E+02 -0.38767475754E+02 -0.83919510437E+02  0.12744889873E+03  0.00000000000E+00 0. -1.
        -13    1    3    3    0    0  0.13649787399E+03  0.52622244122E+02 -0.96353350876E+02  0.17517059800E+03  0.00000000000E+00 0.  1.
         22    1    1    2    0    0 -0.22423509744E+03 -0.13854768367E+02 -0.23457231353E+03  0.32480379279E+03  0.00000000000E+00 0.  1.
<mgrwt>
<rscale>  0 0.47070528E+03</rscale>
<asrwt>0</asrwt>
<pdfrwt beam="1">  1        1 0.80174497E-01 0.47070528E+03</pdfrwt>
<pdfrwt beam="2">  1       -1 0.16352163E-01 0.47070528E+03</pdfrwt>
<totfact> 0.11975518E+03</totfact>
</mgrwt>
</event>
<event>
 6    1  0.1780144E-005  0.1561618E+04  0.7818608E-02  0.8844481E-01
         -2   -1    0    0    0  501 -0.00000000000E+00  0.00000000000E+00  0.28672166850E+03  0.28672166850E+03  0.00000000000E+00 0.  1.
          2   -1    0    0  501    0  0.00000000000E+00 -0.00000000000E+00 -0.21263213553E+04  0.21263213553E+04  0.00000000000E+00 0. -1.
         23    2    1    2    0    0  0.68897310716E+03 -0.33147207501E+03 -0.69892171949E+03  0.10398336792E+04  0.90580525412E+02 0.  0.
         13    1    3    3    0    0  0.21399141659E+03 -0.78193331729E+02 -0.16209196881E+03  0.27960745673E+03  0.00000000000E+00 0.  1.
        -13    1    3    3    0    0  0.47498169057E+03 -0.25327874328E+03 -0.53682975068E+03  0.76022622251E+03  0.00000000000E+00 0. -1.
         22    1    1    2    0    0 -0.68897310716E+03  0.33147207501E+03 -0.11406779673E+04  0.13732093445E+04  0.00000000000E+00 0.  1.
<mgrwt>
<rscale>  0 0.15616176E+04</rscale>
<asrwt>0</asrwt>
<pdfrwt beam="1">  1        2 0.32712637E+00 0.15616176E+04</pdfrwt>
<pdfrwt beam="2">  1       -2 0.44111025E-01 0.15616176E+04</pdfrwt>
<totfact> 0.26639702E+01</totfact>
</mgrwt>
</event>
<event>
 6    1  0.1780144E-005  0.1564220E+04  0.7818608E-02  0.8842836E-01
         -2   -1    0    0    0  501 -0.00000000000E+00  0.00000000000E+00  0.26384001984E+03  0.26384001984E+03  0.00000000000E+00 0.  1.
          2   -1    0    0  501    0  0.00000000000E+00 -0.00000000000E+00 -0.23184357367E+04  0.23184357367E+04  0.00000000000E+00 0. -1.
         23    2    1    2    0    0 -0.48469921565E+02  0.17262551493E+03 -0.22823459550E+04  0.22924153200E+04  0.11796626368E+03 0.  0.
         13    1    3    3    0    0  0.18814497918E+02  0.28437297578E+02 -0.94846885945E+03  0.94908157846E+03  0.00000000000E+00 0.  1.
        -13    1    3    3    0    0 -0.67284419483E+02  0.14418821736E+03 -0.13338770955E+04  0.13433337415E+04  0.00000000000E+00 0. -1.
         22    1    1    2    0    0  0.48469921565E+02 -0.17262551493E+03  0.22775023814E+03  0.28986043655E+03  0.00000000000E+00 0.  1.
<mgrwt>
<rscale>  0 0.15642201E+04</rscale>
<asrwt>0</asrwt>
<pdfrwt beam="1">  1        2 0.35668242E+00 0.15642201E+04</pdfrwt>
<pdfrwt beam="2">  1       -2 0.40590772E-01 0.15642201E+04</pdfrwt>
<totfact> 0.24486824E+01</totfact>
</mgrwt>
</event>
<event>
 6    1  0.1780144E-005  0.1269353E+04  0.7818608E-02  0.9054228E-01
          2   -1    0    0  501    0  0.00000000000E+00  0.00000000000E+00  0.12400879984E+04  0.12400879984E+04  0.00000000000E+00 0. -1.
         -2   -1    0    0    0  501 -0.00000000000E+00 -0.00000000000E+00 -0.32482730170E+03  0.32482730170E+03  0.00000000000E+00 0.  1.
         23    2    1    2    0    0  0.38025960467E+03 -0.38727202892E+03  0.85876752210E+03  0.10192336437E+04  0.82332084632E+02 0.  0.
         11    1    3    3    0    0  0.43436578730E+02 -0.84029039881E+02  0.12450751236E+03  0.15636411528E+03  0.00000000000E+00 0. -1.
        -11    1    3    3    0    0  0.33682302594E+03 -0.30324298904E+03  0.73426000974E+03  0.86286952844E+03  0.00000000000E+00 0.  1.
         22    1    1    2    0    0 -0.38025960467E+03  0.38727202892E+03  0.56493174605E+02  0.54568165638E+03  0.00000000000E+00 0. -1.
<mgrwt>
<rscale>  0 0.12693533E+04</rscale>
<asrwt>0</asrwt>
<pdfrwt beam="1">  1        2 0.19078277E+00 0.12693533E+04</pdfrwt>
<pdfrwt beam="2">  1       -2 0.49973432E-01 0.12693533E+04</pdfrwt>
<totfact> 0.66692518E+01</totfact>
</mgrwt>
</event>
<event>
 6    1  0.1780144E-005  0.1734841E+04  0.7818608E-02  0.8741739E-01
         -2   -1    0    0    0  501 -0.00000000000E+00  0.00000000000E+00  0.33854952996E+03  0.33854952996E+03  0.00000000000E+00 0.  1.
          2   -1    0    0  501    0  0.00000000000E+00 -0.00000000000E+00 -0.22224769133E+04  0.22224769133E+04  0.00000000000E+00 0. -1.
         23    2    1    2    0    0  0.31616783620E+03 -0.54776342043E+03 -0.18156503269E+04  0.19248907488E+04  0.92797735828E+02 0.  0.
         11    1    3    3    0    0  0.18835187317E+03 -0.41022766767E+03 -0.12954902508E+04  0.13718812475E+04  0.00000000000E+00 0.  1.
        -11    1    3    3    0    0  0.12781596303E+03 -0.13753575276E+03 -0.52016007611E+03  0.55300950125E+03  0.00000000000E+00 0. -1.
         22    1    1    2    0    0 -0.31616783620E+03  0.54776342043E+03 -0.68277056478E+02  0.63613569452E+03  0.00000000000E+00 0.  1.
<mgrwt>
<rscale>  0 0.17348412E+04</rscale>
<asrwt>0</asrwt>
<pdfrwt beam="1">  1        2 0.34191953E+00 0.17348412E+04</pdfrwt>
<pdfrwt beam="2">  1       -2 0.52084543E-01 0.17348412E+04</pdfrwt>
<totfact> 0.16571331E+01</totfact>
</mgrwt>
</event>
<event>
 6    1  0.1819529E-005  0.4065741E+04  0.7818608E-02  0.7991414E-01
          2   -1    0    0  501    0  0.00000000000E+00  0.00000000000E+00  0.19263570318E+04  0.19263570318E+04  0.00000000000E+00 0. -1.
         -2   -1    0    0    0  501 -0.00000000000E+00 -0.00000000000E+00 -0.21452737873E+04  0.21452737873E+04  0.00000000000E+00 0.  1.
         23    2    1    2    0    0  0.19173073833E+04  0.25270407602E+03  0.51473083253E+03  0.20032580926E+04  0.90378115269E+02 0.  0.
         13    1    3    3    0    0  0.10899645377E+04  0.14197543807E+03  0.24619412749E+03  0.11264063507E+04  0.00000000000E+00 0. -1.
        -13    1    3    3    0    0  0.82734284555E+03  0.11072863795E+03  0.26853670504E+03  0.87685174191E+03  0.00000000000E+00 0.  1.
         22    1    1    2    0    0 -0.19173073833E+04 -0.25270407602E+03 -0.73364758809E+03  0.20683727265E+04  0.00000000000E+00 0.  1.
<mgrwt>
<rscale>  0 0.40657414E+04</rscale>
<asrwt>0</asrwt>
<pdfrwt beam="1">  1        2 0.29636262E+00 0.40657414E+04</pdfrwt>
<pdfrwt beam="2">  1       -2 0.33004212E+00 0.40657414E+04</pdfrwt>
<totfact> 0.11951018E-01</totfact>
</mgrwt>
</event>
<event>
 6    1  0.1780144E-005  0.2540035E+04  0.7818608E-02  0.8388860E-01
         -2   -1    0    0    0  501 -0.00000000000E+00  0.00000000000E+00  0.10603942835E+04  0.10603942835E+04  0.00000000000E+00 0.  1.
          2   -1    0    0  501    0  0.00000000000E+00 -0.00000000000E+00 -0.15210801567E+04  0.15210801567E+04  0.00000000000E+00 0. -1.
         23    2    1    2    0    0 -0.10243946095E+04 -0.47939745283E+03  0.35249320635E+03  0.11884681770E+04  0.94862603107E+02 0.  0.
         13    1    3    3    0    0 -0.68648327487E+03 -0.27157256711E+03  0.22469383896E+03  0.77168534206E+03  0.00000000000E+00 0. -1.
        -13    1    3    3    0    0 -0.33791133463E+03 -0.20782488572E+03  0.12779936739E+03  0.41678283494E+03  0.00000000000E+00 0.  1.
         22    1    1    2    0    0  0.10243946095E+04  0.47939745283E+03 -0.81317907953E+03  0.13930062631E+04  0.00000000000E+00 0. -1.
<mgrwt>
<rscale>  0 0.25400352E+04</rscale>
<asrwt>0</asrwt>
<pdfrwt beam="1">  1        2 0.23401233E+00 0.25400352E+04</pdfrwt>
<pdfrwt beam="2">  1       -2 0.16313758E+00 0.25400352E+04</pdfrwt>
<totfact> 0.26228877E+00</totfact>
</mgrwt>
</event>
<event>
 6    1  0.1780144E-005  0.2158463E+04  0.7818608E-02  0.8535918E-01
         -2   -1    0    0    0  501 -0.00000000000E+00  0.00000000000E+00  0.82596384438E+03  0.82596384438E+03  0.00000000000E+00 0. -1.
          2   -1    0    0  501    0  0.00000000000E+00 -0.00000000000E+00 -0.14101591022E+04  0.14101591022E+04  0.00000000000E+00 0.  1.
         23    2    1    2    0    0 -0.16792911674E+03  0.43404690025E+03  0.71393616528E+03  0.85708629316E+03  0.91077801655E+02 0.  0.
         11    1    3    3    0    0 -0.14797033871E+03  0.26365359427E+03  0.47073762788E+03  0.55946613232E+03  0.00000000000E+00 0.  1.
        -11    1    3    3    0    0 -0.19958778033E+02  0.17039330598E+03  0.24319853740E+03  0.29762016083E+03  0.00000000000E+00 0. -1.
         22    1    1    2    0    0  0.16792911674E+03 -0.43404690025E+03 -0.12981314231E+04  0.13790366535E+04  0.00000000000E+00 0.  1.
<mgrwt>
<rscale>  0 0.21584628E+04</rscale>
<asrwt>0</asrwt>
<pdfrwt beam="1">  1        2 0.21694755E+00 0.21584628E+04</pdfrwt>
<pdfrwt beam="2">  1       -2 0.12707136E+00 0.21584628E+04</pdfrwt>
<totfact> 0.60256163E+00</totfact>
</mgrwt>
</event>
<event>
 6    1  0.1780144E-005  0.2326354E+04  0.7818608E-02  0.8467602E-01
         -2   -1    0    0    0  501 -0.00000000000E+00  0.00000000000E+00  0.15742367965E+04  0.15742367965E+04  0.00000000000E+00 0.  1.
          2   -1    0    0  501    0  0.00000000000E+00 -0.00000000000E+00 -0.85945169483E+03  0.85945169483E+03  0.00000000000E+00 0. -1.
         23    2    1    2    0    0  0.20144500454E+03 -0.10926353387E+04  0.38189724654E+01  0.11146339398E+04  0.89230947227E+02 0.  0.
         13    1    3    3    0    0  0.75011172405E+02 -0.23144311591E+03  0.19432838994E+02  0.24407012746E+03  0.00000000000E+00 0.  1.
        -13    1    3    3    0    0  0.12643383213E+03 -0.86119222276E+03 -0.15613866528E+02  0.87056381230E+03  0.00000000000E+00 0. -1.
         22    1    1    2    0    0 -0.20144500454E+03  0.10926353387E+04  0.71096612921E+03  0.13190545516E+04  0.00000000000E+00 0.  1.
<mgrwt>
<rscale>  0 0.23263538E+04</rscale>
<asrwt>0</asrwt>
<pdfrwt beam="1">  1        2 0.13222334E+00 0.23263538E+04</pdfrwt>
<pdfrwt beam="2">  1       -2 0.24219028E+00 0.23263538E+04</pdfrwt>
<totfact> 0.20300909E+00</totfact>
</mgrwt>
</event>
<event>
 6    1  0.1780144E-005  0.2579391E+04  0.7818608E-02  0.8375235E-01
         -1   -1    0    0    0  501 -0.00000000000E+00  0.00000000000E+00  0.15765380102E+04  0.15765380102E+04  0.00000000000E+00 0.  1.
          1   -1    0    0  501    0  0.00000000000E+00 -0.00000000000E+00 -0.10550428252E+04  0.10550428252E+04  0.00000000000E+00 0. -1.
         23    2    1    2    0    0 -0.94550349640E+03 -0.50005095189E+03 -0.47057865287E+03  0.11727325513E+04  0.99144098386E+02 0.  0.
         13    1    3    3    0    0 -0.13101094942E+03 -0.54700646909E+02 -0.29630142923E+02  0.14503094501E+03  0.00000000000E+00 0. -1.
        -13    1    3    3    0    0 -0.81449254698E+03 -0.44535030498E+03 -0.44094850995E+03  0.10277016063E+04  0.00000000000E+00 0.  1.
         22    1    1    2    0    0  0.94550349640E+03  0.50005095189E+03  0.99207383786E+03  0.14588482841E+04  0.00000000000E+00 0.  1.
<mgrwt>
<rscale>  0 0.25793915E+04</rscale>
<asrwt>0</asrwt>
<pdfrwt beam="1">  1        1 0.16231428E+00 0.25793915E+04</pdfrwt>
<pdfrwt beam="2">  1       -1 0.24254431E+00 0.25793915E+04</pdfrwt>
<totfact> 0.94410173E-01</totfact>
</mgrwt>
</event>
<event>
 6    1  0.1780144E-005  0.3515257E+04  0.7818608E-02  0.8110184E-01
          2   -1    0    0  501    0  0.00000000000E+00  0.00000000000E+00  0.30885643836E+04  0.30885643836E+04  0.00000000000E+00 0. -1.
         -2   -1    0    0    0  501 -0.00000000000E+00 -0.00000000000E+00 -0.10002245822E+04  0.10002245822E+04  0.00000000000E+00 0.  1.
         23    2    1    2    0    0 -0.15083052572E+04 -0.43011707502E+03  0.12514223960E+03  0.15759956766E+04  0.90090762692E+02 0.  0.
         13    1    3    3    0    0 -0.64541654844E+03 -0.18313214817E+03  0.98265621299E+02  0.67805312257E+03  0.00000000000E+00 0. -1.
        -13    1    3    3    0    0 -0.86288870874E+03 -0.24698492686E+03  0.26876618299E+02  0.89794255405E+03  0.00000000000E+00 0.  1.
         22    1    1    2    0    0  0.15083052572E+04  0.43011707502E+03  0.19631975619E+04  0.25127932892E+04  0.00000000000E+00 0. -1.
<mgrwt>
<rscale>  0 0.35152570E+04</rscale>
<asrwt>0</asrwt>
<pdfrwt beam="1">  1        2 0.47516375E+00 0.35152570E+04</pdfrwt>
<pdfrwt beam="2">  1       -2 0.15388071E+00 0.35152570E+04</pdfrwt>
<totfact> 0.35125452E-01</totfact>
</mgrwt>
</event>
<event>
 6    1  0.1780144E-005  0.3399242E+04  0.7818608E-02  0.8138092E-01
          1   -1    0    0  501    0  0.00000000000E+00  0.00000000000E+00  0.17427162885E+04  0.17427162885E+04  0.00000000000E+00 0. -1.
         -1   -1    0    0    0  501 -0.00000000000E+00 -0.00000000000E+00 -0.16575915287E+04  0.16575915287E+04  0.00000000000E+00 0.  1.
         23    2    1    2    0    0  0.48244621540E+02 -0.88863910599E+03  0.14895681732E+04  0.17376387865E+04  0.92564600583E+02 0.  0.
         13    1    3    3    0    0  0.19708726465E+02 -0.11701002833E+03  0.25879507261E+03  0.28470101903E+03  0.00000000000E+00 0. -1.
        -13    1    3    3    0    0  0.28535895076E+02 -0.77162907765E+03  0.12307731006E+04  0.14529377674E+04  0.00000000000E+00 0.  1.
         22    1    1    2    0    0 -0.48244621540E+02  0.88863910599E+03 -0.14044434135E+04  0.16626690307E+04  0.00000000000E+00 0.  1.
<mgrwt>
<rscale>  0 0.33992421E+04</rscale>
<asrwt>0</asrwt>
<pdfrwt beam="1">  1        1 0.26811020E+00 0.33992421E+04</pdfrwt>
<pdfrwt beam="2">  1       -1 0.25501408E+00 0.33992421E+04</pdfrwt>
<totfact> 0.23709233E-01</totfact>
</mgrwt>
</event>
<event>
 6    1  0.1780144E-005  0.1230442E+04  0.7818608E-02  0.9086620E-01
          2   -1    0    0  501    0  0.00000000000E+00  0.00000000000E+00  0.22488694124E+04  0.22488694124E+04  0.00000000000E+00 0.  1.
         -2   -1    0    0    0  501 -0.00000000000E+00 -0.00000000000E+00 -0.16830546078E+03  0.16830546078E+03  0.00000000000E+00 0. -1.
         23    2    1    2    0    0 -0.54939392288E+03 -0.23334343929E+03  0.77991879568E+03  0.98610511079E+03  0.88583963005E+02 0.  0.
         11    1    3    3    0    0 -0.38685617080E+03 -0.17815584270E+03  0.61490282519E+03  0.74799912139E+03  0.00000000000E+00 0. -1.
        -11    1    3    3    0    0 -0.16253775208E+03 -0.55187596588E+02  0.16501597049E+03  0.23810598939E+03  0.00000000000E+00 0.  1.
         22    1    1    2    0    0  0.54939392288E+03  0.23334343929E+03  0.13006451559E+04  0.14310697624E+04  0.00000000000E+00 0. -1.
<mgrwt>
<rscale>  0 0.12304422E+04</rscale>
<asrwt>0</asrwt>
<pdfrwt beam="1">  1        2 0.34597989E+00 0.12304422E+04</pdfrwt>
<pdfrwt beam="2">  1       -2 0.25893149E-01 0.12304422E+04</pdfrwt>
<totfact> 0.64428593E+01</totfact>
</mgrwt>
</event>
<event>
 6    1  0.1780144E-005  0.1553541E+04  0.7818608E-02  0.8849609E-01
         -2   -1    0    0    0  501 -0.00000000000E+00  0.00000000000E+00  0.35955669697E+03  0.35955669697E+03  0.00000000000E+00 0.  1.
          2   -1    0    0  501    0  0.00000000000E+00 -0.00000000000E+00 -0.16781008005E+04  0.16781008005E+04  0.00000000000E+00 0. -1.
         23    2    1    2    0    0  0.28009889318E+03  0.72151874444E+03 -0.64341772739E+03  0.10106033060E+04  0.91038352307E+02 0.  0.
         11    1    3    3    0    0  0.22763168960E+02  0.69747204959E+02 -0.99076669682E+02  0.12328430937E+03  0.00000000000E+00 0. -1.
        -11    1    3    3    0    0  0.25733572422E+03  0.65177153948E+03 -0.54434105771E+03  0.88731899661E+03  0.00000000000E+00 0.  1.
         22    1    1    2    0    0 -0.28009889318E+03 -0.72151874444E+03 -0.67512637618E+03  0.10270541915E+04  0.00000000000E+00 0.  1.
<mgrwt>
<rscale>  0 0.15535410E+04</rscale>
<asrwt>0</asrwt>
<pdfrwt beam="1">  1        2 0.25816935E+00 0.15535410E+04</pdfrwt>
<pdfrwt beam="2">  1       -2 0.55316416E-01 0.15535410E+04</pdfrwt>
<totfact> 0.29813920E+01</totfact>
</mgrwt>
</event>
<event>
 6    1  0.1780144E-005  0.8757778E+03  0.7818608E-02  0.9456377E-01
          1   -1    0    0  501    0  0.00000000000E+00  0.00000000000E+00  0.31601456564E+04  0.31601456564E+04  0.00000000000E+00 0. -1.
         -1   -1    0    0    0  501 -0.00000000000E+00 -0.00000000000E+00 -0.60676538316E+02  0.60676538316E+02  0.00000000000E+00 0.  1.
         23    2    1    2    0    0  0.41597863581E+03 -0.31885420581E+02  0.11391929437E+04  0.12166421665E+04  0.91666203801E+02 0.  0.
         13    1    3    3    0    0  0.80149996998E+02 -0.42045302113E+02  0.27042249848E+03  0.28516689347E+03  0.00000000000E+00 0.  1.
        -13    1    3    3    0    0  0.33582863882E+03  0.10159881532E+02  0.86877044521E+03  0.93147527306E+03  0.00000000000E+00 0. -1.
         22    1    1    2    0    0 -0.41597863581E+03  0.31885420581E+02  0.19602761744E+04  0.20041800282E+04  0.00000000000E+00 0. -1.
<mgrwt>
<rscale>  0 0.87577782E+03</rscale>
<asrwt>0</asrwt>
<pdfrwt beam="1">  1        1 0.48617613E+00 0.87577782E+03</pdfrwt>
<pdfrwt beam="2">  1       -1 0.93348545E-02 0.87577782E+03</pdfrwt>
<totfact> 0.33504120E+01</totfact>
</mgrwt>
</event>
<event>
 6    1  0.1780144E-005  0.3731730E+03  0.7818608E-02  0.1053486E+00
          2   -1    0    0  501    0  0.00000000000E+00  0.00000000000E+00  0.84164365075E+03  0.84164365075E+03  0.00000000000E+00 0. -1.
         -2   -1    0    0    0  501 -0.00000000000E+00 -0.00000000000E+00 -0.41364911567E+02  0.41364911567E+02  0.00000000000E+00 0.  1.
         23    2    1    2    0    0 -0.16233643638E+03  0.55895326817E+02  0.34468100192E+03  0.39613413874E+03  0.92950829233E+02 0.  0.
         13    1    3    3    0    0 -0.10494875177E+03  0.61033731860E+02  0.14928236759E+03  0.19241772839E+03  0.00000000000E+00 0. -1.
        -13    1    3    3    0    0 -0.57387684607E+02 -0.51384050433E+01  0.19539863433E+03  0.20371641035E+03  0.00000000000E+00 0.  1.
         22    1    1    2    0    0  0.16233643638E+03 -0.55895326817E+02  0.45559773726E+03  0.48687442358E+03  0.00000000000E+00 0. -1.
<mgrwt>
<rscale>  0 0.37317296E+03</rscale>
<asrwt>0</asrwt>
<pdfrwt beam="1">  1        2 0.12948363E+00 0.37317296E+03</pdfrwt>
<pdfrwt beam="2">  1       -2 0.63638332E-02 0.37317296E+03</pdfrwt>
<totfact> 0.45097480E+03</totfact>
</mgrwt>
</event>
<event>
 6    1  0.1780144E-005  0.4833423E+04  0.7818608E-02  0.7854730E-01
         -2   -1    0    0    0  501 -0.00000000000E+00  0.00000000000E+00  0.21225392325E+04  0.21225392325E+04  0.00000000000E+00 0.  1.
          2   -1    0    0  501    0  0.00000000000E+00 -0.00000000000E+00 -0.27516547530E+04  0.27516547530E+04  0.00000000000E+00 0. -1.
         23    2    1    2    0    0 -0.23637179176E+04  0.38778210630E+03  0.24337759928E+01  0.23970198152E+04  0.90336677399E+02 0.  0.
         11    1    3    3    0    0 -0.18463261614E+03  0.42441926819E+02 -0.21056370655E+02  0.19061450847E+03  0.00000000000E+00 0.  1.
        -11    1    3    3    0    0 -0.21790853015E+04  0.34534017948E+03  0.23490146648E+02  0.22064053068E+04  0.00000000000E+00 0. -1.
         22    1    1    2    0    0  0.23637179176E+04 -0.38778210630E+03 -0.63154929643E+03  0.24771741703E+04  0.00000000000E+00 0. -1.
<mgrwt>
<rscale>  0 0.48334233E+04</rscale>
<asrwt>0</asrwt>
<pdfrwt beam="1">  1        2 0.42333150E+00 0.48334233E+04</pdfrwt>
<pdfrwt beam="2">  1       -2 0.32654450E+00 0.48334233E+04</pdfrwt>
<totfact> 0.39785133E-02</totfact>
</mgrwt>
</event>
<event>
 6    1  0.1780144E-005  0.2648237E+04  0.7818608E-02  0.8351998E-01
         -2   -1    0    0    0  501 -0.00000000000E+00  0.00000000000E+00  0.82719133639E+03  0.82719133639E+03  0.00000000000E+00 0.  1.
          2   -1    0    0  501    0  0.00000000000E+00 -0.00000000000E+00 -0.21195694551E+04  0.21195694551E+04  0.00000000000E+00 0. -1.
         23    2    1    2    0    0  0.11887028721E+04  0.55702029520E+03 -0.47009527562E+03  0.13977497517E+04  0.97101353456E+02 0.  0.
         11    1    3    3    0    0  0.11176245064E+04  0.53970393846E+03 -0.42527391026E+03  0.13119538015E+04  0.00000000000E+00 0.  1.
        -11    1    3    3    0    0  0.71078365721E+02  0.17316356732E+02 -0.44821365361E+02  0.85795950235E+02  0.00000000000E+00 0. -1.
         22    1    1    2    0    0 -0.11887028721E+04 -0.55702029520E+03 -0.82228284312E+03  0.15490110398E+04  0.00000000000E+00 0.  1.
<mgrwt>
<rscale>  0 0.26482368E+04</rscale>
<asrwt>0</asrwt>
<pdfrwt beam="1">  1        2 0.32608761E+00 0.26482368E+04</pdfrwt>
<pdfrwt beam="2">  1       -2 0.12726021E+00 0.26482368E+04</pdfrwt>
<totfact> 0.23135857E+00</totfact>
</mgrwt>
</event>
<event>
 6    1  0.1780144E-005  0.9395731E+03  0.7818608E-02  0.9377422E-01
         -2   -1    0    0    0  501 -0.00000000000E+00  0.00000000000E+00  0.96669083983E+02  0.96669083983E+02  0.00000000000E+00 0.  1.
          2   -1    0    0  501    0  0.00000000000E+00 -0.00000000000E+00 -0.22830402562E+04  0.22830402562E+04  0.00000000000E+00 0. -1.
         23    2    1    2    0    0 -0.29083775849E+03  0.24001074764E+03 -0.17937887292E+04  0.18353631862E+04  0.93210834867E+02 0.  0.
         13    1    3    3    0    0 -0.15673090237E+03  0.72497500245E+02 -0.87105278425E+03  0.88800530193E+03  0.00000000000E+00 0.  1.
        -13    1    3    3    0    0 -0.13410685612E+03  0.16751324739E+03 -0.92273594491E+03  0.94735788430E+03  0.00000000000E+00 0. -1.
         22    1    1    2    0    0  0.29083775849E+03 -0.24001074764E+03 -0.39258244311E+03  0.54434615401E+03  0.00000000000E+00 0.  1.
<mgrwt>
<rscale>  0 0.93957312E+03</rscale>
<asrwt>0</asrwt>
<pdfrwt beam="1">  1        2 0.35123700E+00 0.93957312E+03</pdfrwt>
<pdfrwt beam="2">  1       -2 0.14872165E-01 0.93957312E+03</pdfrwt>
<totfact> 0.16709103E+02</totfact>
</mgrwt>
</event>
<event>
 6    1  0.1780144E-005  0.4058810E+03  0.7818608E-02  0.1041762E+00
          1   -1    0    0  501    0  0.00000000000E+00  0.00000000000E+00  0.42592701318E+03  0.42592701318E+03  0.00000000000E+00 0. -1.
         -1   -1    0    0    0  501 -0.00000000000E+00 -0.00000000000E+00 -0.96694600730E+02  0.96694600730E+02  0.00000000000E+00 0.  1.
         23    2    1    2    0    0  0.10314568317E+03  0.14113549861E+03  0.69133055645E+02  0.20923696793E+03  0.91882906126E+02 0.  0.
         11    1    3    3    0    0  0.10708255282E+03  0.83231386244E+02  0.29045067850E+02  0.13870022617E+03  0.00000000000E+00 0. -1.
        -11    1    3    3    0    0 -0.39368696427E+01  0.57904112371E+02  0.40087987795E+02  0.70536741755E+02  0.00000000000E+00 0.  1.
         22    1    1    2    0    0 -0.10314568317E+03 -0.14113549861E+03  0.26009935681E+03  0.31338464599E+03  0.00000000000E+00 0. -1.
<mgrwt>
<rscale>  0 0.40588098E+03</rscale>
<asrwt>0</asrwt>
<pdfrwt beam="1">  1        1 0.65527231E-01 0.40588098E+03</pdfrwt>
<pdfrwt beam="2">  1       -1 0.14876093E-01 0.40588098E+03</pdfrwt>
<totfact> 0.18265614E+03</totfact>
</mgrwt>
</event>
<event>
 6    1  0.1780144E-005  0.1289771E+04  0.7818608E-02  0.9037717E-01
          1   -1    0    0  501    0  0.00000000000E+00  0.00000000000E+00  0.13368092402E+04  0.13368092402E+04  0.00000000000E+00 0. -1.
         -1   -1    0    0    0  501 -0.00000000000E+00 -0.00000000000E+00 -0.31109680322E+03  0.31109680322E+03  0.00000000000E+00 0.  1.
         23    2    1    2    0    0  0.18766510147E+03  0.52417579515E+03  0.92308347441E+03  0.10817689942E+04  0.90347117132E+02 0.  0.
         13    1    3    3    0    0  0.11004362960E+03  0.20782203334E+03  0.44412538428E+03  0.50254050078E+03  0.00000000000E+00 0.  1.
        -13    1    3    3    0    0  0.77621471876E+02  0.31635376181E+03  0.47895809012E+03  0.57922849343E+03  0.00000000000E+00 0. -1.
         22    1    1    2    0    0 -0.18766510147E+03 -0.52417579515E+03  0.10262896258E+03  0.56613704921E+03  0.00000000000E+00 0.  1.
<mgrwt>
<rscale>  0 0.12897706E+04</rscale>
<asrwt>0</asrwt>
<pdfrwt beam="1">  1        1 0.20566296E+00 0.12897706E+04</pdfrwt>
<pdfrwt beam="2">  1       -1 0.47861047E-01 0.12897706E+04</pdfrwt>
<totfact> 0.36507589E+01</totfact>
</mgrwt>
</event>
<event>
 6    1  0.1780144E-005  0.3602277E+04  0.7818608E-02  0.8089970E-01
          2   -1    0    0  501    0  0.00000000000E+00  0.00000000000E+00  0.29847734440E+04  0.29847734440E+04  0.00000000000E+00 0. -1.
         -2   -1    0    0    0  501 -0.00000000000E+00 -0.00000000000E+00 -0.10868833220E+04  0.10868833220E+04  0.00000000000E+00 0.  1.
         23    2    1    2    0    0 -0.69559874261E+02 -0.19103898830E+03  0.29710759058E+04  0.29793829004E+04  0.89977541126E+02 0.  0.
         11    1    3    3    0    0 -0.98190553228E+01 -0.97878007195E+02  0.90171353558E+03  0.90706329348E+03  0.00000000000E+00 0.  1.
        -11    1    3    3    0    0 -0.59740818938E+02 -0.93160981107E+02  0.20693623702E+04  0.20723196069E+04  0.00000000000E+00 0. -1.
         22    1    1    2    0    0  0.69559874261E+02  0.19103898830E+03 -0.10731857838E+04  0.10922738657E+04  0.00000000000E+00 0.  1.
<mgrwt>
<rscale>  0 0.36022773E+04</rscale>
<asrwt>0</asrwt>
<pdfrwt beam="1">  1        2 0.45919591E+00 0.36022773E+04</pdfrwt>
<pdfrwt beam="2">  1       -2 0.16721282E+00 0.36022773E+04</pdfrwt>
<totfact> 0.32342835E-01</totfact>
</mgrwt>
</event>
<event>
 6    1  0.1780144E-005  0.2331515E+04  0.7818608E-02  0.8465598E-01
         -1   -1    0    0    0  501 -0.00000000000E+00  0.00000000000E+00  0.16007919876E+04  0.16007919876E+04  0.00000000000E+00 0.  1.
          1   -1    0    0  501    0  0.00000000000E+00 -0.00000000000E+00 -0.84894876037E+03  0.84894876037E+03  0.00000000000E+00 0. -1.
         23    2    1    2    0    0  0.82824124467E+03 -0.76530697888E+03  0.67489887565E+03  0.13194316025E+04  0.11718758422E+03 0.  0.
         11    1    3    3    0    0  0.52687924697E+03 -0.54213905474E+03  0.49401850566E+03  0.90308957446E+03  0.00000000000E+00 0.  1.
        -11    1    3    3    0    0  0.30136199771E+03 -0.22316792414E+03  0.18088036999E+03  0.41634202799E+03  0.00000000000E+00 0. -1.
         22    1    1    2    0    0 -0.82824124467E+03  0.76530697888E+03  0.76944351622E+02  0.11303091456E+04  0.00000000000E+00 0.  1.
<mgrwt>
<rscale>  0 0.23315148E+04</rscale>
<asrwt>0</asrwt>
<pdfrwt beam="1">  1        1 0.13060750E+00 0.23315148E+04</pdfrwt>
<pdfrwt beam="2">  1       -1 0.24627569E+00 0.23315148E+04</pdfrwt>
<totfact> 0.13339873E+00</totfact>
</mgrwt>
</event>
<event>
 6    1  0.1780144E-005  0.9986116E+03  0.7818608E-02  0.9310069E-01
         -1   -1    0    0    0  501 -0.00000000000E+00  0.00000000000E+00  0.21278777037E+03  0.21278777037E+03  0.00000000000E+00 0.  1.
          1   -1    0    0  501    0  0.00000000000E+00 -0.00000000000E+00 -0.11716194792E+04  0.11716194792E+04  0.00000000000E+00 0. -1.
         23    2    1    2    0    0  0.12589942079E+03 -0.43767019984E+03 -0.75243512013E+03  0.88440182982E+03  0.92747607026E+02 0.  0.
         13    1    3    3    0    0  0.89866569440E+02 -0.40646494967E+03 -0.69005658408E+03  0.80589567864E+03  0.00000000000E+00 0. -1.
        -13    1    3    3    0    0  0.36032851348E+02 -0.31205250165E+02 -0.62378536046E+02  0.78506151182E+02  0.00000000000E+00 0.  1.
         22    1    1    2    0    0 -0.12589942079E+03  0.43767019984E+03 -0.20639658875E+03  0.50000541980E+03  0.00000000000E+00 0.  1.
<mgrwt>
<rscale>  0 0.99861163E+03</rscale>
<asrwt>0</asrwt>
<pdfrwt beam="1">  1        1 0.18024915E+00 0.99861163E+03</pdfrwt>
<pdfrwt beam="2">  1       -1 0.32736580E-01 0.99861163E+03</pdfrwt>
<totfact> 0.98193662E+01</totfact>
</mgrwt>
</event>
<event>
 6    1  0.1780144E-005  0.2470681E+04  0.7818608E-02  0.8413506E-01
         -2   -1    0    0    0  501 -0.00000000000E+00  0.00000000000E+00  0.11618834331E+04  0.11618834331E+04  0.00000000000E+00 0.  1.
          2   -1    0    0  501    0  0.00000000000E+00 -0.00000000000E+00 -0.13134415397E+04  0.13134415397E+04  0.00000000000E+00 0. -1.
         23    2    1    2    0    0 -0.54471730083E+02 -0.66300115057E+03  0.96485876090E+03  0.11757387629E+04  0.94188720892E+02 0.  0.
         13    1    3    3    0    0 -0.39037204744E+02 -0.11491879686E+03  0.14015878059E+03  0.18540419899E+03  0.00000000000E+00 0.  1.
        -13    1    3    3    0    0 -0.15434525339E+02 -0.54808235371E+03  0.82469998032E+03  0.99033456395E+03  0.00000000000E+00 0. -1.
         22    1    1    2    0    0  0.54471730083E+02  0.66300115057E+03 -0.11164168675E+04  0.12995862100E+04  0.00000000000E+00 0. -1.
<mgrwt>
<rscale>  0 0.24706808E+04</rscale>
<asrwt>0</asrwt>
<pdfrwt beam="1">  1        2 0.20206793E+00 0.24706808E+04</pdfrwt>
<pdfrwt beam="2">  1       -2 0.17875130E+00 0.24706808E+04</pdfrwt>
<totfact> 0.26851859E+00</totfact>
</mgrwt>
</event>
<event>
 6    1  0.1780144E-005  0.6128081E+04  0.7818608E-02  0.7674721E-01
         -2   -1    0    0    0  501 -0.00000000000E+00  0.00000000000E+00  0.23048820336E+04  0.23048820336E+04  0.00000000000E+00 0.  1.
          2   -1    0    0  501    0  0.00000000000E+00 -0.00000000000E+00 -0.40732425017E+04  0.40732425017E+04  0.00000000000E+00 0. -1.
         23    2    1    2    0    0  0.25724526784E+04  0.68877662845E+02  0.84530240769E+03  0.27102245171E+04  0.92324740320E+02 0.  0.
         11    1    3    3    0    0  0.10862328808E+04  0.54879677371E+02  0.39683513864E+03  0.11577529000E+04  0.00000000000E+00 0.  1.
        -11    1    3    3    0    0  0.14862197976E+04  0.13997985474E+02  0.44846726906E+03  0.15524716171E+04  0.00000000000E+00 0. -1.
         22    1    1    2    0    0 -0.25724526784E+04 -0.68877662845E+02 -0.26136628758E+04  0.36679000182E+04  0.00000000000E+00 0. -1.
<mgrwt>
<rscale>  0 0.61280808E+04</rscale>
<asrwt>0</asrwt>
<pdfrwt beam="1">  1        2 0.62665269E+00 0.61280808E+04</pdfrwt>
<pdfrwt beam="2">  1       -2 0.35459724E+00 0.61280808E+04</pdfrwt>
<totfact> 0.28721085E-03</totfact>
</mgrwt>
</event>
<event>
 6    1  0.1780144E-005  0.1766731E+04  0.7818608E-02  0.8724194E-01
         -1   -1    0    0    0  501 -0.00000000000E+00  0.00000000000E+00  0.69078362438E+03  0.69078362438E+03  0.00000000000E+00 0.  1.
          1   -1    0    0  501    0  0.00000000000E+00 -0.00000000000E+00 -0.11296373142E+04  0.11296373142E+04  0.00000000000E+00 0. -1.
         23    2    1    2    0    0 -0.50633500871E+03 -0.30287704182E+03  0.45403339970E+03  0.75020740935E+03  0.92494245748E+02 0.  0.
         13    1    3    3    0    0 -0.19859659362E+03 -0.10563990685E+03  0.11953463809E+03  0.25473304972E+03  0.00000000000E+00 0.  1.
        -13    1    3    3    0    0 -0.30773841508E+03 -0.19723713497E+03  0.33449876160E+03  0.49547435962E+03  0.00000000000E+00 0. -1.
         22    1    1    2    0    0  0.50633500871E+03  0.30287704182E+03 -0.89288708948E+03  0.10702135292E+04  0.00000000000E+00 0. -1.
<mgrwt>
<rscale>  0 0.17667314E+04</rscale>
<asrwt>0</asrwt>
<pdfrwt beam="1">  1        1 0.17379036E+00 0.17667314E+04</pdfrwt>
<pdfrwt beam="2">  1       -1 0.10627440E+00 0.17667314E+04</pdfrwt>
<totfact> 0.94358473E+00</totfact>
</mgrwt>
</event>
<event>
 6    1  0.1780144E-005  0.5202722E+03  0.7818608E-02  0.1008619E+00
         -1   -1    0    0    0  501 -0.00000000000E+00  0.00000000000E+00  0.62201886153E+02  0.62201886153E+02  0.00000000000E+00 0.  1.
          1   -1    0    0  501    0  0.00000000000E+00 -0.00000000000E+00 -0.10879216991E+04  0.10879216991E+04  0.00000000000E+00 0. -1.
         23    2    1    2    0    0 -0.14659093844E+03 -0.75549481939E+02 -0.95044499526E+03  0.96884224138E+03  0.90072039003E+02 0.  0.
         11    1    3    3    0    0 -0.71246747900E+02 -0.39944355751E+01 -0.57048109955E+03  0.57492672537E+03  0.00000000000E+00 0. -1.
        -11    1    3    3    0    0 -0.75344190542E+02 -0.71555046364E+02 -0.37996389571E+03  0.39391551601E+03  0.00000000000E+00 0.  1.
         22    1    1    2    0    0  0.14659093844E+03  0.75549481939E+02 -0.75274817664E+02  0.18128134385E+03  0.00000000000E+00 0. -1.
<mgrwt>
<rscale>  0 0.52027217E+03</rscale>
<asrwt>0</asrwt>
<pdfrwt beam="1">  1        1 0.16737258E+00 0.52027217E+03</pdfrwt>
<pdfrwt beam="2">  1       -1 0.95695202E-02 0.52027217E+03</pdfrwt>
<totfact> 0.89071369E+02</totfact>
</mgrwt>
</event>
<event>
 6    1  0.1780144E-005  0.1589352E+04  0.7818608E-02  0.8827116E-01
          2   -1    0    0  501    0  0.00000000000E+00  0.00000000000E+00  0.27154622794E+04  0.27154622794E+04  0.00000000000E+00 0.  1.
         -2   -1    0    0    0  501 -0.00000000000E+00 -0.00000000000E+00 -0.23256088286E+03  0.23256088286E+03  0.00000000000E+00 0. -1.
         23    2    1    2    0    0 -0.22244296471E+03 -0.73931906101E+03  0.91820058377E+03  0.12032130924E+04  0.92498038383E+02 0.  0.
         13    1    3    3    0    0 -0.17102220609E+03 -0.54947653212E+03  0.74311319465E+03  0.93988843721E+03  0.00000000000E+00 0.  1.
        -13    1    3    3    0    0 -0.51420758619E+02 -0.18984252889E+03  0.17508738912E+03  0.26332465517E+03  0.00000000000E+00 0. -1.
         22    1    1    2    0    0  0.22244296471E+03  0.73931906101E+03  0.15647008128E+04  0.17448100699E+04  0.00000000000E+00 0. -1.
<mgrwt>
<rscale>  0 0.15893525E+04</rscale>
<asrwt>0</asrwt>
<pdfrwt beam="1">  1        2 0.41776340E+00 0.15893525E+04</pdfrwt>
<pdfrwt beam="2">  1       -2 0.35778599E-01 0.15893525E+04</pdfrwt>
<totfact> 0.18389891E+01</totfact>
</mgrwt>
</event>
<event>
 6    1  0.1780144E-005  0.2451889E+04  0.7818608E-02  0.8420328E-01
         -1   -1    0    0    0  501 -0.00000000000E+00  0.00000000000E+00  0.95265010837E+03  0.95265010837E+03  0.00000000000E+00 0.  1.
          1   -1    0    0  501    0  0.00000000000E+00 -0.00000000000E+00 -0.15776415280E+04  0.15776415280E+04  0.00000000000E+00 0. -1.
         23    2    1    2    0    0  0.62466764886E+02  0.74293795265E+03 -0.13150404342E+04  0.15144045655E+04  0.90724562593E+02 0.  0.
         13    1    3    3    0    0  0.14552537077E+01  0.26906374811E+03 -0.55268874313E+03  0.61470502283E+03  0.00000000000E+00 0.  1.
        -13    1    3    3    0    0  0.61011511178E+02  0.47387420454E+03 -0.76235169110E+03  0.89969954271E+03  0.00000000000E+00 0. -1.
         22    1    1    2    0    0 -0.62466764886E+02 -0.74293795265E+03  0.69004901458E+03  0.10158870709E+04  0.00000000000E+00 0.  1.
<mgrwt>
<rscale>  0 0.24518894E+04</rscale>
<asrwt>0</asrwt>
<pdfrwt beam="1">  1        1 0.24271408E+00 0.24518894E+04</pdfrwt>
<pdfrwt beam="2">  1       -1 0.14656156E+00 0.24518894E+04</pdfrwt>
<totfact> 0.19151553E+00</totfact>
</mgrwt>
</event>
<event>
 6    1  0.1780144E-005  0.2812286E+04  0.7818608E-02  0.8299464E-01
         -1   -1    0    0    0  501 -0.00000000000E+00  0.00000000000E+00  0.90534361836E+03  0.90534361836E+03  0.00000000000E+00 0.  1.
          1   -1    0    0  501    0  0.00000000000E+00 -0.00000000000E+00 -0.21839641409E+04  0.21839641409E+04  0.00000000000E+00 0. -1.
         23    2    1    2    0    0 -0.23302488661E+03 -0.77765492187E+03  0.61946215013E+03  0.10249033397E+04  0.87439836159E+02 0.  0.
         11    1    3    3    0    0 -0.17455907958E+03 -0.63295515578E+03  0.45935580196E+03  0.80131819790E+03  0.00000000000E+00 0.  1.
        -11    1    3    3    0    0 -0.58465807029E+02 -0.14469976609E+03  0.16010634818E+03  0.22358514178E+03  0.00000000000E+00 0. -1.
         22    1    1    2    0    0  0.23302488661E+03  0.77765492187E+03 -0.18980826727E+04  0.20644044196E+04  0.00000000000E+00 0. -1.
<mgrwt>
<rscale>  0 0.28122859E+04</rscale>
<asrwt>0</asrwt>
<pdfrwt beam="1">  1        1 0.33599448E+00 0.28122859E+04</pdfrwt>
<pdfrwt beam="2">  1       -1 0.13928363E+00 0.28122859E+04</pdfrwt>
<totfact> 0.82062496E-01</totfact>
</mgrwt>
</event>
<event>
 6    1  0.1780144E-005  0.7460846E+03  0.7818608E-02  0.9641513E-01
          2   -1    0    0  501    0  0.00000000000E+00  0.00000000000E+00  0.16346045521E+04  0.16346045521E+04  0.00000000000E+00 0.  1.
         -2   -1    0    0    0  501 -0.00000000000E+00 -0.00000000000E+00 -0.85134089774E+02  0.85134089774E+02  0.00000000000E+00 0. -1.
         23    2    1    2    0    0 -0.20285762923E+03  0.23081304892E+03  0.12510696643E+04  0.12914059236E+04  0.90155827749E+02 0.  0.
         11    1    3    3    0    0 -0.14171145754E+03  0.20110364535E+03  0.86107666129E+03  0.89553214905E+03  0.00000000000E+00 0.  1.
        -11    1    3    3    0    0 -0.61146171698E+02  0.29709403573E+02  0.38999300304E+03  0.39587377457E+03  0.00000000000E+00 0. -1.
         22    1    1    2    0    0  0.20285762923E+03 -0.23081304892E+03  0.29840079804E+03  0.42833271830E+03  0.00000000000E+00 0. -1.
<mgrwt>
<rscale>  0 0.74608464E+03</rscale>
<asrwt>0</asrwt>
<pdfrwt beam="1">  1        2 0.25147760E+00 0.74608464E+03</pdfrwt>
<pdfrwt beam="2">  1       -2 0.13097553E-01 0.74608464E+03</pdfrwt>
<totfact> 0.47655142E+02</totfact>
</mgrwt>
</event>
<event>
 6    1  0.1780144E-005  0.1872783E+04  0.7818608E-02  0.8668524E-01
          2   -1    0    0  501    0  0.00000000000E+00  0.00000000000E+00  0.15239955262E+04  0.15239955262E+04  0.00000000000E+00 0. -1.
         -2   -1    0    0    0  501 -0.00000000000E+00 -0.00000000000E+00 -0.57534894253E+03  0.57534894253E+03  0.00000000000E+00 0.  1.
         23    2    1    2    0    0  0.49889540948E+03 -0.17353622782E+03  0.13391517421E+04  0.14424535107E+04  0.91286856508E+02 0.  0.
         11    1    3    3    0    0  0.20847959875E+03 -0.94592363862E+02  0.68864884861E+03  0.72570565320E+03  0.00000000000E+00 0. -1.
        -11    1    3    3    0    0  0.29041581073E+03 -0.78943863957E+02  0.65050289350E+03  0.71674785750E+03  0.00000000000E+00 0.  1.
         22    1    1    2    0    0 -0.49889540948E+03  0.17353622782E+03 -0.39050515844E+03  0.65689095802E+03  0.00000000000E+00 0.  1.
<mgrwt>
<rscale>  0 0.18727832E+04</rscale>
<asrwt>0</asrwt>
<pdfrwt beam="1">  1        2 0.23446085E+00 0.18727832E+04</pdfrwt>
<pdfrwt beam="2">  1       -2 0.88515223E-01 0.18727832E+04</pdfrwt>
<totfact> 0.12682166E+01</totfact>
</mgrwt>
</event>
<event>
 6    1  0.1780144E-005  0.2927201E+04  0.7818608E-02  0.8264830E-01
         -2   -1    0    0    0  501 -0.00000000000E+00  0.00000000000E+00  0.10228735211E+04  0.10228735211E+04  0.00000000000E+00 0.  1.
          2   -1    0    0  501    0  0.00000000000E+00 -0.00000000000E+00 -0.20942243472E+04  0.20942243472E+04  0.00000000000E+00 0. -1.
         23    2    1    2    0    0 -0.88738852832E+03 -0.11600268490E+04 -0.61102877913E+03  0.15857530092E+04  0.90198374125E+02 0.  0.
         11    1    3    3    0    0 -0.78124500574E+03 -0.10365485009E+04 -0.51297090344E+03  0.13956775063E+04  0.00000000000E+00 0.  1.
        -11    1    3    3    0    0 -0.10614352259E+03 -0.12347834810E+03 -0.98057875691E+02  0.19007550295E+03  0.00000000000E+00 0. -1.
         22    1    1    2    0    0  0.88738852832E+03  0.11600268490E+04 -0.46032204689E+03  0.15313448591E+04  0.00000000000E+00 0. -1.
<mgrwt>
<rscale>  0 0.29272011E+04</rscale>
<asrwt>0</asrwt>
<pdfrwt beam="1">  1        2 0.32218836E+00 0.29272011E+04</pdfrwt>
<pdfrwt beam="2">  1       -2 0.15736516E+00 0.29272011E+04</pdfrwt>
<totfact> 0.13433956E+00</totfact>
</mgrwt>
</event>
<event>
 6    1  0.1780144E-005  0.2934552E+04  0.7818608E-02  0.8262671E-01
         -1   -1    0    0    0  501 -0.00000000000E+00  0.00000000000E+00  0.10634788912E+04  0.10634788912E+04  0.00000000000E+00 0.  1.
          1   -1    0    0  501    0  0.00000000000E+00 -0.00000000000E+00 -0.20243933002E+04  0.20243933002E+04  0.00000000000E+00 0. -1.
         23    2    1    2    0    0 -0.66070848129E+03  0.23954558916E+03  0.87267561332E+03  0.11242097569E+04  0.91471662269E+02 0.  0.
         13    1    3    3    0    0 -0.56254900922E+03  0.23485920503E+03  0.76975155715E+03  0.98190513477E+03  0.00000000000E+00 0.  1.
        -13    1    3    3    0    0 -0.98159472078E+02  0.46863841326E+01  0.10292405617E+03  0.14230462218E+03  0.00000000000E+00 0. -1.
         22    1    1    2    0    0  0.66070848129E+03 -0.23954558916E+03 -0.18335900223E+04  0.19636624345E+04  0.00000000000E+00 0. -1.
<mgrwt>
<rscale>  0 0.29345525E+04</rscale>
<asrwt>0</asrwt>
<pdfrwt beam="1">  1        1 0.31144512E+00 0.29345525E+04</pdfrwt>
<pdfrwt beam="2">  1       -1 0.16361214E+00 0.29345525E+04</pdfrwt>
<totfact> 0.67377316E-01</totfact>
</mgrwt>
</event>
<event>
 6    1  0.1780144E-005  0.1788178E+04  0.7818608E-02  0.8712612E-01
          1   -1    0    0  501    0  0.00000000000E+00  0.00000000000E+00  0.13305244043E+04  0.13305244043E+04  0.00000000000E+00 0. -1.
         -1   -1    0    0    0  501 -0.00000000000E+00 -0.00000000000E+00 -0.60081178564E+03  0.60081178564E+03  0.00000000000E+00 0.  1.
         23    2    1    2    0    0  0.19104818986E+03 -0.16622678781E+03 -0.55676558012E+03  0.62016994886E+03  0.10243094468E+03 0.  0.
         11    1    3    3    0    0  0.96693514689E+02 -0.20193723366E+02 -0.18347238168E+03  0.20837355179E+03  0.00000000000E+00 0.  1.
        -11    1    3    3    0    0  0.94354675174E+02 -0.14603306445E+03 -0.37329319844E+03  0.41179639707E+03  0.00000000000E+00 0. -1.
         22    1    1    2    0    0 -0.19104818986E+03  0.16622678781E+03  0.12864781988E+04  0.13111662411E+04  0.00000000000E+00 0. -1.
<mgrwt>
<rscale>  0 0.17881776E+04</rscale>
<asrwt>0</asrwt>
<pdfrwt beam="1">  1        1 0.20469606E+00 0.17881776E+04</pdfrwt>
<pdfrwt beam="2">  1       -1 0.92432583E-01 0.17881776E+04</pdfrwt>
<totfact> 0.92520214E+00</totfact>
</mgrwt>
</event>
<event>
 6    1  0.1780144E-005  0.8970326E+03  0.7818608E-02  0.9429298E-01
          2   -1    0    0  501    0  0.00000000000E+00  0.00000000000E+00  0.14747706682E+04  0.14747706682E+04  0.00000000000E+00 0. -1.
         -2   -1    0    0    0  501 -0.00000000000E+00 -0.00000000000E+00 -0.13640552344E+03  0.13640552344E+03  0.00000000000E+00 0.  1.
         23    2    1    2    0    0  0.35123298000E+03 -0.21608962540E+03  0.97153839670E+03  0.10592512008E+04  0.89816020948E+02 0.  0.
         13    1    3    3    0    0  0.32686064100E+03 -0.21835777418E+03  0.86801864844E+03  0.95287689143E+03  0.00000000000E+00 0.  1.
        -13    1    3    3    0    0  0.24372339002E+02  0.22681487818E+01  0.10351974827E+03  0.10637430934E+03  0.00000000000E+00 0. -1.
         22    1    1    2    0    0 -0.35123298000E+03  0.21608962540E+03  0.36682674801E+03  0.55192499083E+03  0.00000000000E+00 0.  1.
<mgrwt>
<rscale>  0 0.89703259E+03</rscale>
<asrwt>0</asrwt>
<pdfrwt beam="1">  1        2 0.22688778E+00 0.89703259E+03</pdfrwt>
<pdfrwt beam="2">  1       -2 0.20985466E-01 0.89703259E+03</pdfrwt>
<totfact> 0.25823815E+02</totfact>
</mgrwt>
</event>
<event>
 6    1  0.1780144E-005  0.1164658E+04  0.7818608E-02  0.9144366E-01
         -1   -1    0    0    0  501 -0.00000000000E+00  0.00000000000E+00  0.41312824412E+03  0.41312824412E+03  0.00000000000E+00 0.  1.
          1   -1    0    0  501    0  0.00000000000E+00 -0.00000000000E+00 -0.82082825754E+03  0.82082825754E+03  0.00000000000E+00 0. -1.
         23    2    1    2    0    0 -0.56581317059E+03 -0.19495365860E+02 -0.33504558766E+03  0.66316470173E+03  0.83709393186E+02 0.  0.
         11    1    3    3    0    0 -0.21898416775E+03 -0.36910881353E+02 -0.16395834724E+03  0.27604133480E+03  0.00000000000E+00 0. -1.
        -11    1    3    3    0    0 -0.34682900283E+03  0.17415515493E+02 -0.17108724042E+03  0.38712336693E+03  0.00000000000E+00 0.  1.
         22    1    1    2    0    0  0.56581317059E+03  0.19495365860E+02 -0.72654425764E+02  0.57079179994E+03  0.00000000000E+00 0.  1.
<mgrwt>
<rscale>  0 0.11646585E+04</rscale>
<asrwt>0</asrwt>
<pdfrwt beam="1">  1        1 0.12628127E+00 0.11646585E+04</pdfrwt>
<pdfrwt beam="2">  1       -1 0.63558192E-01 0.11646585E+04</pdfrwt>
<totfact> 0.52839030E+01</totfact>
</mgrwt>
</event>
<event>
 6    1  0.1780144E-005  0.3764551E+04  0.7818608E-02  0.8053805E-01
         -2   -1    0    0    0  501 -0.00000000000E+00  0.00000000000E+00  0.18850662560E+04  0.18850662560E+04  0.00000000000E+00 0.  1.
          2   -1    0    0  501    0  0.00000000000E+00 -0.00000000000E+00 -0.18794893064E+04  0.18794893064E+04  0.00000000000E+00 0. -1.
         23    2    1    2    0    0 -0.68480058106E+03 -0.40108051009E+03  0.17083933540E+04  0.18858855227E+04  0.90216082012E+02 0.  0.
         11    1    3    3    0    0 -0.19495353048E+03 -0.15824590140E+03  0.49698550687E+03  0.55681526415E+03  0.00000000000E+00 0. -1.
        -11    1    3    3    0    0 -0.48984705058E+03 -0.24283460869E+03  0.12114078471E+04  0.13290702585E+04  0.00000000000E+00 0.  1.
         22    1    1    2    0    0  0.68480058106E+03  0.40108051009E+03 -0.17028164043E+04  0.18786700397E+04  0.00000000000E+00 0. -1.
<mgrwt>
<rscale>  0 0.37645514E+04</rscale>
<asrwt>0</asrwt>
<pdfrwt beam="1">  1        2 0.28915220E+00 0.37645514E+04</pdfrwt>
<pdfrwt beam="2">  1       -2 0.29001019E+00 0.37645514E+04</pdfrwt>
<totfact> 0.22933048E-01</totfact>
</mgrwt>
</event>
<event>
 6    1  0.1780144E-005  0.9290070E+03  0.7818608E-02  0.9390030E-01
          2   -1    0    0  501    0  0.00000000000E+00  0.00000000000E+00  0.61573420262E+03  0.61573420262E+03  0.00000000000E+00 0. -1.
         -2   -1    0    0    0  501 -0.00000000000E+00 -0.00000000000E+00 -0.35041663761E+03  0.35041663761E+03  0.00000000000E+00 0.  1.
         23    2    1    2    0    0 -0.21703739591E+03 -0.38121439338E+03  0.28430101584E+03  0.52707224095E+03  0.67442083487E+02 0.  0.
         11    1    3    3    0    0 -0.17728139855E+03 -0.33103522804E+03  0.21493099380E+03  0.43267580077E+03  0.00000000000E+00 0.  1.
        -11    1    3    3    0    0 -0.39755997354E+02 -0.50179165339E+02  0.69370022041E+02  0.94396440175E+02  0.00000000000E+00 0. -1.
         22    1    1    2    0    0  0.21703739591E+03  0.38121439338E+03 -0.18983450828E+02  0.43907859928E+03  0.00000000000E+00 0.  1.
<mgrwt>
<rscale>  0 0.92900702E+03</rscale>
<asrwt>0</asrwt>
<pdfrwt beam="1">  1        2 0.94728339E-01 0.92900702E+03</pdfrwt>
<pdfrwt beam="2">  1       -2 0.53910252E-01 0.92900702E+03</pdfrwt>
<totfact> 0.15611050E+02</totfact>
</mgrwt>
</event>
<event>
 6    1  0.1780144E-005  0.1691478E+04  0.7818608E-02  0.8766240E-01
         -3   -1    0    0    0  501 -0.00000000000E+00  0.00000000000E+00  0.14750977659E+04  0.14750977659E+04  0.00000000000E+00 0.  1.
          3   -1    0    0  501    0  0.00000000000E+00 -0.00000000000E+00 -0.48489959270E+03  0.48489959270E+03  0.00000000000E+00 0. -1.
         23    2    1    2    0    0  0.25575988284E+03 -0.73848718960E+03  0.86371899991E+03  0.11683071236E+04  0.90302698489E+02 0.  0.
         11    1    3    3    0    0  0.63394797671E+02 -0.88634431020E+02  0.12275183950E+03  0.16414315957E+03  0.00000000000E+00 0. -1.
        -11    1    3    3    0    0  0.19236508517E+03 -0.64985275858E+03  0.74096716042E+03  0.10041639640E+04  0.00000000000E+00 0.  1.
         22    1    1    2    0    0 -0.25575988284E+03  0.73848718960E+03  0.12647917325E+03  0.79169023497E+03  0.00000000000E+00 0. -1.
<mgrwt>
<rscale>  0 0.16914778E+04</rscale>
<asrwt>0</asrwt>
<pdfrwt beam="1">  1        3 0.74599938E-01 0.16914778E+04</pdfrwt>
<pdfrwt beam="2">  1       -3 0.22693812E+00 0.16914778E+04</pdfrwt>
<totfact> 0.42335941E-01</totfact>
</mgrwt>
</event>
<event>
 6    1  0.1780144E-005  0.2107694E+04  0.7818608E-02  0.8557862E-01
          1   -1    0    0  501    0  0.00000000000E+00  0.00000000000E+00  0.47086383332E+03  0.47086383332E+03  0.00000000000E+00 0. -1.
         -1   -1    0    0    0  501 -0.00000000000E+00 -0.00000000000E+00 -0.23586301969E+04  0.23586301969E+04  0.00000000000E+00 0.  1.
         23    2    1    2    0    0  0.49699399200E+02  0.69278723986E+03 -0.20061789608E+04  0.21249049775E+04  0.89682500403E+02 0.  0.
         13    1    3    3    0    0  0.19243491304E+02  0.47305437763E+02 -0.20674361259E+03  0.21295783091E+03  0.00000000000E+00 0.  1.
        -13    1    3    3    0    0  0.30455907896E+02  0.64548180210E+03 -0.17994353482E+04  0.19119471466E+04  0.00000000000E+00 0. -1.
         22    1    1    2    0    0 -0.49699399200E+02 -0.69278723986E+03  0.11841259719E+03  0.70458905269E+03  0.00000000000E+00 0. -1.
<mgrwt>
<rscale>  0 0.21076941E+04</rscale>
<asrwt>0</asrwt>
<pdfrwt beam="1">  1        1 0.72440587E-01 0.21076941E+04</pdfrwt>
<pdfrwt beam="2">  1       -1 0.36286620E+00 0.21076941E+04</pdfrwt>
<totfact> 0.56507732E-01</totfact>
</mgrwt>
</event>
<event>
 6    1  0.1780144E-005  0.1914898E+04  0.7818608E-02  0.8647476E-01
         -2   -1    0    0    0  501 -0.00000000000E+00  0.00000000000E+00  0.77993982725E+03  0.77993982725E+03  0.00000000000E+00 0.  1.
          2   -1    0    0  501    0  0.00000000000E+00 -0.00000000000E+00 -0.11753586577E+04  0.11753586577E+04  0.00000000000E+00 0. -1.
         23    2    1    2    0    0 -0.26376669374E+03  0.90543915933E+03 -0.35323710058E+03  0.10112792911E+04  0.92284426909E+02 0.  0.
         11    1    3    3    0    0 -0.46128998140E+02  0.17285610938E+03 -0.29551254039E+02  0.18132952224E+03  0.00000000000E+00 0. -1.
        -11    1    3    3    0    0 -0.21763769560E+03  0.73258304995E+03 -0.32368584654E+03  0.82994976888E+03  0.00000000000E+00 0.  1.
         22    1    1    2    0    0  0.26376669374E+03 -0.90543915933E+03 -0.42181729874E+02  0.94401919382E+03  0.00000000000E+00 0.  1.
<mgrwt>
<rscale>  0 0.19148985E+04</rscale>
<asrwt>0</asrwt>
<pdfrwt beam="1">  1        2 0.18082441E+00 0.19148985E+04</pdfrwt>
<pdfrwt beam="2">  1       -2 0.11999074E+00 0.19148985E+04</pdfrwt>
<totfact> 0.97379061E+00</totfact>
</mgrwt>
</event>
<event>
 6    1  0.1780144E-005  0.3076724E+04  0.7818608E-02  0.8222155E-01
         -1   -1    0    0    0  501 -0.00000000000E+00  0.00000000000E+00  0.69502894875E+03  0.69502894875E+03  0.00000000000E+00 0.  1.
          1   -1    0    0  501    0  0.00000000000E+00 -0.00000000000E+00 -0.34049777424E+04  0.34049777424E+04  0.00000000000E+00 0. -1.
         23    2    1    2    0    0  0.12369520890E+04 -0.79816494327E+03 -0.76910442147E+03  0.16640274991E+04  0.10172590346E+03 0.  0.
         13    1    3    3    0    0  0.58347998346E+03 -0.43241414976E+03 -0.40061713160E+03  0.82941242704E+03  0.00000000000E+00 0. -1.
        -13    1    3    3    0    0  0.65347210555E+03 -0.36575079351E+03 -0.36848728988E+03  0.83461507205E+03  0.00000000000E+00 0.  1.
         22    1    1    2    0    0 -0.12369520890E+04  0.79816494327E+03 -0.19408443722E+04  0.24359791920E+04  0.00000000000E+00 0. -1.
<mgrwt>
<rscale>  0 0.30767243E+04</rscale>
<asrwt>0</asrwt>
<pdfrwt beam="1">  1        1 0.52384273E+00 0.30767243E+04</pdfrwt>
<pdfrwt beam="2">  1       -1 0.10692753E+00 0.30767243E+04</pdfrwt>
<totfact> 0.20436083E-01</totfact>
</mgrwt>
</event>
<event>
 6    1  0.1780144E-005  0.1972766E+04  0.7818608E-02  0.8619460E-01
         -2   -1    0    0    0  501 -0.00000000000E+00  0.00000000000E+00  0.10494793018E+04  0.10494793018E+04  0.00000000000E+00 0.  1.
          2   -1    0    0  501    0  0.00000000000E+00 -0.00000000000E+00 -0.92708017325E+03  0.92708017325E+03  0.00000000000E+00 0. -1.
         23    2    1    2    0    0  0.16420992149E+03  0.92082214400E+03 -0.24571363266E+03  0.97138022529E+03  0.91247101907E+02 0.  0.
         13    1    3    3    0    0  0.82303464372E+02  0.53304308528E+03 -0.18623683665E+03  0.57060752741E+03  0.00000000000E+00 0.  1.
        -13    1    3    3    0    0  0.81906457119E+02  0.38777905872E+03 -0.59476796011E+02  0.40077269788E+03  0.00000000000E+00 0. -1.
         22    1    1    2    0    0 -0.16420992149E+03 -0.92082214400E+03  0.36811276122E+03  0.10051792498E+04  0.00000000000E+00 0. -1.
<mgrwt>
<rscale>  0 0.19727660E+04</rscale>
<asrwt>0</asrwt>
<pdfrwt beam="1">  1        2 0.14262772E+00 0.19727660E+04</pdfrwt>
<pdfrwt beam="2">  1       -2 0.16145835E+00 0.19727660E+04</pdfrwt>
<totfact> 0.64315757E+00</totfact>
</mgrwt>
</event>
<event>
 6    1  0.1780144E-005  0.1726800E+04  0.7818608E-02  0.8746225E-01
         -2   -1    0    0    0  501 -0.00000000000E+00  0.00000000000E+00  0.18391786699E+04  0.18391786699E+04  0.00000000000E+00 0.  1.
          2   -1    0    0  501    0  0.00000000000E+00 -0.00000000000E+00 -0.40532208647E+03  0.40532208647E+03  0.00000000000E+00 0. -1.
         23    2    1    2    0    0  0.19860535274E+03 -0.50624231857E+03  0.15866382096E+04  0.16796400686E+04  0.89691586104E+02 0.  0.
         11    1    3    3    0    0  0.14383648860E+03 -0.44330949207E+03  0.13893619650E+04  0.14654483651E+04  0.00000000000E+00 0. -1.
        -11    1    3    3    0    0  0.54768864137E+02 -0.62932826499E+02  0.19727624468E+03  0.21419170349E+03  0.00000000000E+00 0.  1.
         22    1    1    2    0    0 -0.19860535274E+03  0.50624231857E+03 -0.15278162622E+03  0.56486068774E+03  0.00000000000E+00 0. -1.
<mgrwt>
<rscale>  0 0.17268002E+04</rscale>
<asrwt>0</asrwt>
<pdfrwt beam="1">  1        2 0.62357245E-01 0.17268002E+04</pdfrwt>
<pdfrwt beam="2">  1       -2 0.28295056E+00 0.17268002E+04</pdfrwt>
<totfact> 0.30093952E+00</totfact>
</mgrwt>
</event>
<event>
 6    1  0.1780144E-005  0.1100376E+04  0.7818608E-02  0.9204826E-01
          1   -1    0    0  501    0  0.00000000000E+00  0.00000000000E+00  0.78943193308E+03  0.78943193308E+03  0.00000000000E+00 0. -1.
         -1   -1    0    0    0  501 -0.00000000000E+00 -0.00000000000E+00 -0.38344874701E+03  0.38344874701E+03  0.00000000000E+00 0.  1.
         23    2    1    2    0    0 -0.39649368043E+03  0.24544627455E+03  0.50822218601E+03  0.69548783827E+03  0.89232452130E+02 0.  0.
         11    1    3    3    0    0 -0.21783181294E+03  0.18585975877E+03  0.29978704058E+03  0.41456823125E+03  0.00000000000E+00 0. -1.
        -11    1    3    3    0    0 -0.17866186749E+03  0.59586515779E+02  0.20843514543E+03  0.28091960702E+03  0.00000000000E+00 0.  1.
         22    1    1    2    0    0  0.39649368043E+03 -0.24544627455E+03 -0.10223899994E+03  0.47739284182E+03  0.00000000000E+00 0.  1.
<mgrwt>
<rscale>  0 0.11003757E+04</rscale>
<asrwt>0</asrwt>
<pdfrwt beam="1">  1        1 0.12145107E+00 0.11003757E+04</pdfrwt>
<pdfrwt beam="2">  1       -1 0.58992115E-01 0.11003757E+04</pdfrwt>
<totfact> 0.65553388E+01</totfact>
</mgrwt>
</event>
<event>
 6    1  0.1780144E-005  0.1046201E+04  0.7818608E-02  0.9259275E-01
          2   -1    0    0  501    0  0.00000000000E+00  0.00000000000E+00  0.12200500341E+04  0.12200500341E+04  0.00000000000E+00 0. -1.
         -2   -1    0    0    0  501 -0.00000000000E+00 -0.00000000000E+00 -0.22428114342E+03  0.22428114342E+03  0.00000000000E+00 0.  1.
         23    2    1    2    0    0 -0.31915370403E+03  0.36061061658E+03  0.76930919184E+03  0.91218166962E+03  0.91321750709E+02 0.  0.
         11    1    3    3    0    0 -0.19772626254E+03  0.28540156554E+03  0.53635658760E+03  0.63892731791E+03  0.00000000000E+00 0. -1.
        -11    1    3    3    0    0 -0.12142744149E+03  0.75209051044E+02  0.23295260424E+03  0.27325435171E+03  0.00000000000E+00 0.  1.
         22    1    1    2    0    0  0.31915370403E+03 -0.36061061658E+03  0.22645969888E+03  0.53214950794E+03  0.00000000000E+00 0.  1.
<mgrwt>
<rscale>  0 0.10462012E+04</rscale>
<asrwt>0</asrwt>
<pdfrwt beam="1">  1        2 0.18770000E+00 0.10462012E+04</pdfrwt>
<pdfrwt beam="2">  1       -2 0.34504792E-01 0.10462012E+04</pdfrwt>
<totfact> 0.14429947E+02</totfact>
</mgrwt>
</event>
<event>
 6    1  0.1780144E-005  0.3164712E+04  0.7818608E-02  0.8198199E-01
         -2   -1    0    0    0  501 -0.00000000000E+00  0.00000000000E+00  0.76311047531E+03  0.76311047531E+03  0.00000000000E+00 0.  1.
          2   -1    0    0  501    0  0.00000000000E+00 -0.00000000000E+00 -0.32811123305E+04  0.32811123305E+04  0.00000000000E+00 0. -1.
         23    2    1    2    0    0  0.11098323371E+04  0.76270501049E+03 -0.23187252682E+04  0.26829153800E+04  0.90007318509E+02 0.  0.
         13    1    3    3    0    0  0.87017174925E+03  0.55212120070E+03 -0.17814334377E+04  0.20580431935E+04  0.00000000000E+00 0. -1.
        -13    1    3    3    0    0  0.23966058780E+03  0.21058380980E+03 -0.53729183047E+03  0.62487218644E+03  0.00000000000E+00 0.  1.
         22    1    1    2    0    0 -0.11098323371E+04 -0.76270501049E+03 -0.19927658698E+03  0.13613074258E+04  0.00000000000E+00 0.  1.
<mgrwt>
<rscale>  0 0.31647124E+04</rscale>
<asrwt>0</asrwt>
<pdfrwt beam="1">  1        2 0.50478651E+00 0.31647124E+04</pdfrwt>
<pdfrwt beam="2">  1       -2 0.11740161E+00 0.31647124E+04</pdfrwt>
<totfact> 0.54225025E-01</totfact>
</mgrwt>
</event>
<event>
 6    1  0.1780144E-005  0.1687694E+04  0.7818608E-02  0.8768414E-01
         -1   -1    0    0    0  501 -0.00000000000E+00  0.00000000000E+00  0.19057723011E+03  0.19057723011E+03  0.00000000000E+00 0.  1.
          1   -1    0    0  501    0  0.00000000000E+00 -0.00000000000E+00 -0.37364270133E+04  0.37364270133E+04  0.00000000000E+00 0. -1.
         23    2    1    2    0    0  0.30715515693E+03 -0.57832715099E+03 -0.55230307181E+03  0.86267258754E+03  0.10177782748E+03 0.  0.
         13    1    3    3    0    0  0.24104419861E+03 -0.49015809777E+03 -0.41153832631E+03  0.68390135291E+03  0.00000000000E+00 0. -1.
        -13    1    3    3    0    0  0.66110958321E+02 -0.88169053215E+02 -0.14076474550E+03  0.17877123463E+03  0.00000000000E+00 0.  1.
         22    1    1    2    0    0 -0.30715515693E+03  0.57832715099E+03 -0.29935467114E+04  0.30643316559E+04  0.00000000000E+00 0. -1.
<mgrwt>
<rscale>  0 0.16876942E+04</rscale>
<asrwt>0</asrwt>
<pdfrwt beam="1">  1        1 0.57483493E+00 0.16876942E+04</pdfrwt>
<pdfrwt beam="2">  1       -1 0.29319574E-01 0.16876942E+04</pdfrwt>
<totfact> 0.16469621E+00</totfact>
</mgrwt>
</event>
<event>
 6    1  0.1780144E-005  0.8935173E+03  0.7818608E-02  0.9433722E-01
         -2   -1    0    0    0  501 -0.00000000000E+00  0.00000000000E+00  0.10936688947E+03  0.10936688947E+03  0.00000000000E+00 0.  1.
          2   -1    0    0  501    0  0.00000000000E+00 -0.00000000000E+00 -0.18249882626E+04  0.18249882626E+04  0.00000000000E+00 0. -1.
         23    2    1    2    0    0  0.37523618783E+03 -0.22869161678E+03 -0.97112418739E+03  0.10698448214E+04  0.91562559614E+02 0.  0.
         11    1    3    3    0    0  0.15499397962E+03 -0.13642171741E+03 -0.38343519407E+03  0.43549577122E+03  0.00000000000E+00 0. -1.
        -11    1    3    3    0    0  0.22024220821E+03 -0.92269899367E+02 -0.58768899332E+03  0.63434905019E+03  0.00000000000E+00 0.  1.
         22    1    1    2    0    0 -0.37523618783E+03  0.22869161678E+03 -0.74449718571E+03  0.86451033063E+03  0.00000000000E+00 0. -1.
<mgrwt>
<rscale>  0 0.89351730E+03</rscale>
<asrwt>0</asrwt>
<pdfrwt beam="1">  1        2 0.28076741E+00 0.89351730E+03</pdfrwt>
<pdfrwt beam="2">  1       -2 0.16825676E-01 0.89351730E+03</pdfrwt>
<totfact> 0.24292439E+02</totfact>
</mgrwt>
</event>
<event>
 6    1  0.1780144E-005  0.1312725E+04  0.7818608E-02  0.9019535E-01
         -1   -1    0    0    0  501 -0.00000000000E+00  0.00000000000E+00  0.25621446252E+03  0.25621446252E+03  0.00000000000E+00 0.  1.
          1   -1    0    0  501    0  0.00000000000E+00 -0.00000000000E+00 -0.16814487863E+04  0.16814487863E+04  0.00000000000E+00 0. -1.
         23    2    1    2    0    0 -0.47115956477E+03 -0.44300855236E+03 -0.85108222240E+03  0.10728519697E+04  0.91774106822E+02 0.  0.
         13    1    3    3    0    0 -0.34091215904E+03 -0.26629642664E+03 -0.53492231200E+03  0.68795113700E+03  0.00000000000E+00 0.  1.
        -13    1    3    3    0    0 -0.13024740573E+03 -0.17671212572E+03 -0.31615991040E+03  0.38490083271E+03  0.00000000000E+00 0. -1.
         22    1    1    2    0    0  0.47115956477E+03  0.44300855236E+03 -0.57415210139E+03  0.86481127911E+03  0.00000000000E+00 0. -1.
<mgrwt>
<rscale>  0 0.13127246E+04</rscale>
<asrwt>0</asrwt>
<pdfrwt beam="1">  1        1 0.25868443E+00 0.13127246E+04</pdfrwt>
<pdfrwt beam="2">  1       -1 0.39417609E-01 0.13127246E+04</pdfrwt>
<totfact> 0.30141850E+01</totfact>
</mgrwt>
</event>
<event>
 6    1  0.1780144E-005  0.2068494E+04  0.7818608E-02  0.8575250E-01
         -2   -1    0    0    0  501 -0.00000000000E+00  0.00000000000E+00  0.17132264222E+04  0.17132264222E+04  0.00000000000E+00 0.  1.
          2   -1    0    0  501    0  0.00000000000E+00 -0.00000000000E+00 -0.62435832607E+03  0.62435832607E+03  0.00000000000E+00 0. -1.
         23    2    1    2    0    0 -0.37819742008E+03  0.28548312603E+03 -0.49084227237E+03  0.68833681295E+03  0.91364806780E+02 0.  0.
         11    1    3    3    0    0 -0.14415235453E+03  0.13040712582E+03 -0.14297042019E+03  0.24130159724E+03  0.00000000000E+00 0. -1.
        -11    1    3    3    0    0 -0.23404506555E+03  0.15507600021E+03 -0.34787185218E+03  0.44703521571E+03  0.00000000000E+00 0.  1.
         22    1    1    2    0    0  0.37819742008E+03 -0.28548312603E+03  0.15797103685E+04  0.16492479354E+04  0.00000000000E+00 0.  1.
<mgrwt>
<rscale>  0 0.20684943E+04</rscale>
<asrwt>0</asrwt>
<pdfrwt beam="1">  1        2 0.96055127E-01 0.20684943E+04</pdfrwt>
<pdfrwt beam="2">  1       -2 0.26357329E+00 0.20684943E+04</pdfrwt>
<totfact> 0.23160950E+00</totfact>
</mgrwt>
</event>
<event>
 6    1  0.1780144E-005  0.2540814E+04  0.7818608E-02  0.8388588E-01
          1   -1    0    0  501    0  0.00000000000E+00  0.00000000000E+00  0.32399738289E+04  0.32399738289E+04  0.00000000000E+00 0. -1.
         -1   -1    0    0    0  501 -0.00000000000E+00 -0.00000000000E+00 -0.49813167353E+03  0.49813167353E+03  0.00000000000E+00 0.  1.
         23    2    1    2    0    0  0.10528434503E+04  0.64531547895E+03  0.94380293253E+03  0.15568543832E+04  0.90112134960E+02 0.  0.
         11    1    3    3    0    0  0.37641406370E+03  0.19888239624E+03  0.36714313776E+03  0.56217064890E+03  0.00000000000E+00 0.  1.
        -11    1    3    3    0    0  0.67642938661E+03  0.44643308271E+03  0.57665979477E+03  0.99468373432E+03  0.00000000000E+00 0. -1.
         22    1    1    2    0    0 -0.10528434503E+04 -0.64531547895E+03  0.17980392229E+04  0.21812511193E+04  0.00000000000E+00 0. -1.
<mgrwt>
<rscale>  0 0.25408137E+04</rscale>
<asrwt>0</asrwt>
<pdfrwt beam="1">  1        1 0.49845750E+00 0.25408137E+04</pdfrwt>
<pdfrwt beam="2">  1       -1 0.76635644E-01 0.25408137E+04</pdfrwt>
<totfact> 0.60004697E-01</totfact>
</mgrwt>
</event>
<event>
 6    1  0.1780144E-005  0.9115362E+03  0.7818608E-02  0.9411274E-01
         -2   -1    0    0    0  501 -0.00000000000E+00  0.00000000000E+00  0.39806405526E+03  0.39806405526E+03  0.00000000000E+00 0. -1.
          2   -1    0    0  501    0  0.00000000000E+00 -0.00000000000E+00 -0.52183706679E+03  0.52183706679E+03  0.00000000000E+00 0.  1.
         23    2    1    2    0    0  0.33000288145E+03  0.22628407331E+03 -0.27318311159E+03  0.49278315053E+03  0.89999096602E+02 0.  0.
         11    1    3    3    0    0  0.21707438347E+03  0.12695784530E+03 -0.21726115803E+03  0.33232814089E+03  0.00000000000E+00 0.  1.
        -11    1    3    3    0    0  0.11292849798E+03  0.99326228017E+02 -0.55921953560E+02  0.16045500964E+03  0.00000000000E+00 0. -1.
         22    1    1    2    0    0 -0.33000288145E+03 -0.22628407331E+03  0.14941010006E+03  0.42711797152E+03  0.00000000000E+00 0. -1.
<mgrwt>
<rscale>  0 0.91153624E+03</rscale>
<asrwt>0</asrwt>
<pdfrwt beam="1">  1        2 0.80282626E-01 0.91153624E+03</pdfrwt>
<pdfrwt beam="2">  1       -2 0.61240624E-01 0.91153624E+03</pdfrwt>
<totfact> 0.14575711E+02</totfact>
</mgrwt>
</event>
<event>
 6    1  0.1780144E-005  0.1609564E+04  0.7818608E-02  0.8814694E-01
         -2   -1    0    0    0  501 -0.00000000000E+00  0.00000000000E+00  0.37654263564E+03  0.37654263564E+03  0.00000000000E+00 0. -1.
          2   -1    0    0  501    0  0.00000000000E+00 -0.00000000000E+00 -0.17200560282E+04  0.17200560282E+04  0.00000000000E+00 0.  1.
         23    2    1    2    0    0  0.47831005669E+03 -0.24414052849E+02  0.16436648710E+03  0.51448669315E+03  0.91124415195E+02 0.  0.
         11    1    3    3    0    0  0.35991573489E+03 -0.20357480562E+02  0.80579829221E+02  0.36938715748E+03  0.00000000000E+00 0.  1.
        -11    1    3    3    0    0  0.11839432180E+03 -0.40565722877E+01  0.83786657883E+02  0.14509953567E+03  0.00000000000E+00 0. -1.
         22    1    1    2    0    0 -0.47831005669E+03  0.24414052849E+02 -0.15078798796E+04  0.15821119707E+04  0.00000000000E+00 0.  1.
<mgrwt>
<rscale>  0 0.16095645E+04</rscale>
<asrwt>0</asrwt>
<pdfrwt beam="1">  1        2 0.26462401E+00 0.16095645E+04</pdfrwt>
<pdfrwt beam="2">  1       -2 0.57929635E-01 0.16095645E+04</pdfrwt>
<totfact> 0.25542118E+01</totfact>
</mgrwt>
</event>
<event>
 6    1  0.1780144E-005  0.3860414E+03  0.7818608E-02  0.1048723E+00
          2   -1    0    0  501    0  0.00000000000E+00  0.00000000000E+00  0.12587523222E+04  0.12587523222E+04  0.00000000000E+00 0. -1.
         -2   -1    0    0    0  501 -0.00000000000E+00 -0.00000000000E+00 -0.29598344943E+02  0.29598344943E+02  0.00000000000E+00 0.  1.
         23    2    1    2    0    0 -0.16062584916E+03 -0.61347883100E+01  0.94414297098E+03  0.96113579470E+03  0.80856460187E+02 0.  0.
         13    1    3    3    0    0 -0.11483265268E+03  0.25780152266E+02  0.50909164427E+03  0.52251837924E+03  0.00000000000E+00 0. -1.
        -13    1    3    3    0    0 -0.45793196475E+02 -0.31914940576E+02  0.43505132671E+03  0.43861741546E+03  0.00000000000E+00 0.  1.
         22    1    1    2    0    0  0.16062584916E+03  0.61347883100E+01  0.28501100623E+03  0.32721487240E+03  0.00000000000E+00 0.  1.
<mgrwt>
<rscale>  0 0.38604137E+03</rscale>
<asrwt>0</asrwt>
<pdfrwt beam="1">  1        2 0.19365416E+00 0.38604137E+03</pdfrwt>
<pdfrwt beam="2">  1       -2 0.45535925E-02 0.38604137E+03</pdfrwt>
<totfact> 0.41924921E+03</totfact>
</mgrwt>
</event>
<event>
 6    1  0.1780144E-005  0.3616807E+04  0.7818608E-02  0.8086653E-01
          2   -1    0    0  501    0  0.00000000000E+00  0.00000000000E+00  0.27996747920E+04  0.27996747920E+04  0.00000000000E+00 0. -1.
         -2   -1    0    0    0  501 -0.00000000000E+00 -0.00000000000E+00 -0.11681085608E+04  0.11681085608E+04  0.00000000000E+00 0.  1.
         23    2    1    2    0    0  0.12930286106E+04 -0.12557452040E+04  0.67092926283E+03  0.19253234657E+04  0.88912127353E+02 0.  0.
         11    1    3    3    0    0  0.60350505199E+03 -0.52777655166E+03  0.31323882903E+03  0.86074676896E+03  0.00000000000E+00 0.  1.
        -11    1    3    3    0    0  0.68952355864E+03 -0.72796865236E+03  0.35769043380E+03  0.10645766967E+04  0.00000000000E+00 0. -1.
         22    1    1    2    0    0 -0.12930286106E+04  0.12557452040E+04  0.96063696841E+03  0.20424598871E+04  0.00000000000E+00 0. -1.
<mgrwt>
<rscale>  0 0.36168075E+04</rscale>
<asrwt>0</asrwt>
<pdfrwt beam="1">  1        2 0.43071920E+00 0.36168075E+04</pdfrwt>
<pdfrwt beam="2">  1       -2 0.17970901E+00 0.36168075E+04</pdfrwt>
<totfact> 0.34288516E-01</totfact>
</mgrwt>
</event>
<event>
 6    1  0.1780144E-005  0.5698765E+04  0.7818608E-02  0.7728916E-01
          1   -1    0    0  501    0  0.00000000000E+00  0.00000000000E+00  0.34674375275E+04  0.34674375275E+04  0.00000000000E+00 0. -1.
         -1   -1    0    0    0  501 -0.00000000000E+00 -0.00000000000E+00 -0.23414929292E+04  0.23414929292E+04  0.00000000000E+00 0.  1.
         23    2    1    2    0    0 -0.25467531391E+04 -0.45607271471E+03  0.17781672057E+04  0.31407197825E+04  0.91039927911E+02 0.  0.
         13    1    3    3    0    0 -0.86999032816E+03 -0.12177513100E+03  0.57073949568E+03  0.10475953062E+04  0.00000000000E+00 0. -1.
        -13    1    3    3    0    0 -0.16767628109E+04 -0.33429758371E+03  0.12074277100E+04  0.20931244763E+04  0.00000000000E+00 0.  1.
         22    1    1    2    0    0  0.25467531391E+04  0.45607271471E+03 -0.65222260740E+03  0.26682106742E+04  0.00000000000E+00 0.  1.
<mgrwt>
<rscale>  0 0.56987649E+04</rscale>
<asrwt>0</asrwt>
<pdfrwt beam="1">  1        1 0.53345192E+00 0.56987649E+04</pdfrwt>
<pdfrwt beam="2">  1       -1 0.36022968E+00 0.56987649E+04</pdfrwt>
<totfact> 0.24047441E-03</totfact>
</mgrwt>
</event>
<event>
 6    1  0.1780144E-005  0.2905409E+04  0.7818608E-02  0.8271270E-01
          2   -1    0    0  501    0  0.00000000000E+00  0.00000000000E+00  0.22652440907E+04  0.22652440907E+04  0.00000000000E+00 0. -1.
         -2   -1    0    0    0  501 -0.00000000000E+00 -0.00000000000E+00 -0.93162150843E+03  0.93162150843E+03  0.00000000000E+00 0.  1.
         23    2    1    2    0    0  0.12430817499E+04  0.60589369721E+03  0.18226993950E+03  0.13974289325E+04  0.85005184358E+02 0.  0.
         11    1    3    3    0    0  0.52461798527E+03  0.28197518665E+03  0.43346586191E+02  0.59717079876E+03  0.00000000000E+00 0.  1.
        -11    1    3    3    0    0  0.71846376460E+03  0.32391851055E+03  0.13892335331E+03  0.80025813374E+03  0.00000000000E+00 0. -1.
         22    1    1    2    0    0 -0.12430817499E+04 -0.60589369721E+03  0.11513526428E+04  0.17994366666E+04  0.00000000000E+00 0. -1.
<mgrwt>
<rscale>  0 0.29054088E+04</rscale>
<asrwt>0</asrwt>
<pdfrwt beam="1">  1        2 0.34849909E+00 0.29054088E+04</pdfrwt>
<pdfrwt beam="2">  1       -2 0.14332639E+00 0.29054088E+04</pdfrwt>
<totfact> 0.13824091E+00</totfact>
</mgrwt>
</event>
<event>
 6    1  0.1780144E-005  0.7020842E+03  0.7818608E-02  0.9713675E-01
          2   -1    0    0  501    0  0.00000000000E+00  0.00000000000E+00  0.16349354397E+04  0.16349354397E+04  0.00000000000E+00 0. -1.
         -2   -1    0    0    0  501 -0.00000000000E+00 -0.00000000000E+00 -0.75373341736E+02  0.75373341736E+02  0.00000000000E+00 0.  1.
         23    2    1    2    0    0 -0.25942269394E+02  0.18831662500E+03  0.14928771327E+04  0.15088564616E+04  0.10876366927E+03 0.  0.
         11    1    3    3    0    0  0.14940887746E+02  0.66236058123E+02  0.87930610176E+03  0.88192384372E+03  0.00000000000E+00 0. -1.
        -11    1    3    3    0    0 -0.40883157140E+02  0.12208056687E+03  0.61357103091E+03  0.62693261784E+03  0.00000000000E+00 0.  1.
         22    1    1    2    0    0  0.25942269394E+02 -0.18831662500E+03  0.66684965308E+02  0.20145231989E+03  0.00000000000E+00 0.  1.
<mgrwt>
<rscale>  0 0.70208418E+03</rscale>
<asrwt>0</asrwt>
<pdfrwt beam="1">  1        2 0.25152850E+00 0.70208418E+03</pdfrwt>
<pdfrwt beam="2">  1       -2 0.11595900E-01 0.70208418E+03</pdfrwt>
<totfact> 0.58438133E+02</totfact>
</mgrwt>
</event>
<event>
 6    1  0.1780144E-005  0.3189373E+04  0.7818608E-02  0.8191629E-01
         -2   -1    0    0    0  501 -0.00000000000E+00  0.00000000000E+00  0.11613895975E+04  0.11613895975E+04  0.00000000000E+00 0.  1.
          2   -1    0    0  501    0  0.00000000000E+00 -0.00000000000E+00 -0.21896395774E+04  0.21896395774E+04  0.00000000000E+00 0. -1.
         23    2    1    2    0    0  0.15235540227E+04 -0.43269159694E+03 -0.33134851292E+03  0.16206793453E+04  0.91492213406E+02 0.  0.
         11    1    3    3    0    0  0.34958785324E+03 -0.13940693876E+03 -0.83529435577E+02  0.38551670303E+03  0.00000000000E+00 0. -1.
        -11    1    3    3    0    0  0.11739661694E+04 -0.29328465818E+03 -0.24781907734E+03  0.12351626422E+04  0.00000000000E+00 0.  1.
         22    1    1    2    0    0 -0.15235540227E+04  0.43269159694E+03 -0.69690146706E+03  0.17303498296E+04  0.00000000000E+00 0.  1.
<mgrwt>
<rscale>  0 0.31893727E+04</rscale>
<asrwt>0</asrwt>
<pdfrwt beam="1">  1        2 0.33686762E+00 0.31893727E+04</pdfrwt>
<pdfrwt beam="2">  1       -2 0.17867532E+00 0.31893727E+04</pdfrwt>
<totfact> 0.81690523E-01</totfact>
</mgrwt>
</event>
<event>
 6    1  0.1780144E-005  0.3082282E+04  0.7818608E-02  0.8220617E-01
         -1   -1    0    0    0  501 -0.00000000000E+00  0.00000000000E+00  0.96696052605E+03  0.96696052605E+03  0.00000000000E+00 0.  1.
          1   -1    0    0  501    0  0.00000000000E+00 -0.00000000000E+00 -0.24562698797E+04  0.24562698797E+04  0.00000000000E+00 0. -1.
         23    2    1    2    0    0  0.95085078210E+03  0.42287803227E+02  0.59897063861E+03  0.11282753312E+04  0.91290355207E+02 0.  0.
         13    1    3    3    0    0  0.37625391761E+03 -0.26851284579E+02  0.24783125054E+03  0.45134059284E+03  0.00000000000E+00 0.  1.
        -13    1    3    3    0    0  0.57459686449E+03  0.69139087805E+02  0.35113938808E+03  0.67693473836E+03  0.00000000000E+00 0. -1.
         22    1    1    2    0    0 -0.95085078210E+03 -0.42287803227E+02 -0.20882799923E+04  0.22949550746E+04  0.00000000000E+00 0. -1.
<mgrwt>
<rscale>  0 0.30822823E+04</rscale>
<asrwt>0</asrwt>
<pdfrwt beam="1">  1        1 0.37788767E+00 0.30822823E+04</pdfrwt>
<pdfrwt beam="2">  1       -1 0.14876316E+00 0.30822823E+04</pdfrwt>
<totfact> 0.43785170E-01</totfact>
</mgrwt>
</event>
<event>
 6    1  0.1780144E-005  0.1485739E+04  0.7818608E-02  0.8893992E-01
          2   -1    0    0  501    0  0.00000000000E+00  0.00000000000E+00  0.14268842571E+04  0.14268842571E+04  0.00000000000E+00 0. -1.
         -2   -1    0    0    0  501 -0.00000000000E+00 -0.00000000000E+00 -0.38675542639E+03  0.38675542639E+03  0.00000000000E+00 0.  1.
         23    2    1    2    0    0 -0.53996579324E+03 -0.49045202343E+03  0.37012642023E+03  0.82318045907E+03  0.92337728382E+02 0.  0.
         11    1    3    3    0    0 -0.46734898506E+03 -0.45278634804E+03  0.35027810852E+03  0.73900291211E+03  0.00000000000E+00 0. -1.
        -11    1    3    3    0    0 -0.72616808182E+02 -0.37665675390E+02  0.19848311708E+02  0.84177546952E+02  0.00000000000E+00 0.  1.
         22    1    1    2    0    0  0.53996579324E+03  0.49045202343E+03  0.67000241043E+03  0.99045922437E+03  0.00000000000E+00 0. -1.
<mgrwt>
<rscale>  0 0.14857392E+04</rscale>
<asrwt>0</asrwt>
<pdfrwt beam="1">  1        2 0.21952065E+00 0.14857392E+04</pdfrwt>
<pdfrwt beam="2">  1       -2 0.59500835E-01 0.14857392E+04</pdfrwt>
<totfact> 0.35608379E+01</totfact>
</mgrwt>
</event>
<event>
 6    1  0.1780144E-005  0.3108790E+04  0.7818608E-02  0.8213330E-01
          1   -1    0    0  501    0  0.00000000000E+00  0.00000000000E+00  0.21516770430E+04  0.21516770430E+04  0.00000000000E+00 0. -1.
         -1   -1    0    0    0  501 -0.00000000000E+00 -0.00000000000E+00 -0.11229117415E+04  0.11229117415E+04  0.00000000000E+00 0.  1.
         23    2    1    2    0    0  0.50616712464E+03  0.67377170898E+03 -0.85921393144E+03  0.12070687585E+04  0.92698079271E+02 0.  0.
         13    1    3    3    0    0  0.46729741103E+03  0.62081604537E+03 -0.82379428820E+03  0.11324382817E+04  0.00000000000E+00 0. -1.
        -13    1    3    3    0    0  0.38869713613E+02  0.52955663607E+02 -0.35419643240E+02  0.74630476829E+02  0.00000000000E+00 0.  1.
         22    1    1    2    0    0 -0.50616712464E+03 -0.67377170898E+03  0.18879792330E+04  0.20675200260E+04  0.00000000000E+00 0. -1.
<mgrwt>
<rscale>  0 0.31087897E+04</rscale>
<asrwt>0</asrwt>
<pdfrwt beam="1">  1        1 0.33102724E+00 0.31087897E+04</pdfrwt>
<pdfrwt beam="2">  1       -1 0.17275565E+00 0.31087897E+04</pdfrwt>
<totfact> 0.46542076E-01</totfact>
</mgrwt>
</event>
<event>
 6    1  0.1780144E-005  0.1829791E+04  0.7818608E-02  0.8690615E-01
          2   -1    0    0  501    0  0.00000000000E+00  0.00000000000E+00  0.20456813881E+04  0.20456813881E+04  0.00000000000E+00 0. -1.
         -2   -1    0    0    0  501 -0.00000000000E+00 -0.00000000000E+00 -0.40917130362E+03  0.40917130362E+03  0.00000000000E+00 0.  1.
         23    2    1    2    0    0 -0.38237088351E+03 -0.47404674875E+03 -0.91612791464E+02  0.62254909053E+03  0.90811089641E+02 0.  0.
         11    1    3    3    0    0 -0.30436290866E+03 -0.42248087978E+03 -0.93462357852E+02  0.52901992995E+03  0.00000000000E+00 0.  1.
        -11    1    3    3    0    0 -0.78007974848E+02 -0.51565868965E+02  0.18495663874E+01  0.93529160575E+02  0.00000000000E+00 0. -1.
         22    1    1    2    0    0  0.38237088351E+03  0.47404674875E+03  0.17281228759E+04  0.18323036012E+04  0.00000000000E+00 0. -1.
<mgrwt>
<rscale>  0 0.18297914E+04</rscale>
<asrwt>0</asrwt>
<pdfrwt beam="1">  1        2 0.31472021E+00 0.18297914E+04</pdfrwt>
<pdfrwt beam="2">  1       -2 0.62949433E-01 0.18297914E+04</pdfrwt>
<totfact> 0.13878103E+01</totfact>
</mgrwt>
</event>
<event>
 6    1  0.1780144E-005  0.2018317E+04  0.7818608E-02  0.8598104E-01
          1   -1    0    0  501    0  0.00000000000E+00  0.00000000000E+00  0.19565188339E+04  0.19565188339E+04  0.00000000000E+00 0. -1.
         -1   -1    0    0    0  501 -0.00000000000E+00 -0.00000000000E+00 -0.52051692453E+03  0.52051692453E+03  0.00000000000E+00 0.  1.
         23    2    1    2    0    0 -0.66794496875E+03  0.47889636662E+03  0.49240384518E+01  0.82674000194E+03  0.89345248413E+02 0.  0.
         11    1    3    3    0    0 -0.32987692215E+03  0.18635569805E+03  0.20159180854E+02  0.37941220662E+03  0.00000000000E+00 0. -1.
        -11    1    3    3    0    0 -0.33806804661E+03  0.29254066857E+03 -0.15235142402E+02  0.44732779532E+03  0.00000000000E+00 0.  1.
         22    1    1    2    0    0  0.66794496875E+03 -0.47889636662E+03  0.14310778709E+04  0.16502957565E+04  0.00000000000E+00 0. -1.
<mgrwt>
<rscale>  0 0.20183173E+04</rscale>
<asrwt>0</asrwt>
<pdfrwt beam="1">  1        1 0.30100289E+00 0.20183173E+04</pdfrwt>
<pdfrwt beam="2">  1       -1 0.80079528E-01 0.20183173E+04</pdfrwt>
<totfact> 0.45979388E+00</totfact>
</mgrwt>
</event>
<event>
 6    1  0.1780144E-005  0.1966275E+04  0.7818608E-02  0.8622553E-01
         -2   -1    0    0    0  501 -0.00000000000E+00  0.00000000000E+00  0.37081275267E+03  0.37081275267E+03  0.00000000000E+00 0.  1.
          2   -1    0    0  501    0  0.00000000000E+00 -0.00000000000E+00 -0.26065969135E+04  0.26065969135E+04  0.00000000000E+00 0. -1.
         23    2    1    2    0    0  0.35709454786E+03  0.89938447307E+03 -0.13669498197E+04  0.16769166601E+04  0.84194588956E+02 0.  0.
         11    1    3    3    0    0  0.10390247248E+03  0.29436534085E+03 -0.50716518426E+03  0.59553606256E+03  0.00000000000E+00 0. -1.
        -11    1    3    3    0    0  0.25319207538E+03  0.60501913222E+03 -0.85978463543E+03  0.10813805975E+04  0.00000000000E+00 0.  1.
         22    1    1    2    0    0 -0.35709454786E+03 -0.89938447307E+03 -0.86883434113E+03  0.13004930061E+04  0.00000000000E+00 0.  1.
<mgrwt>
<rscale>  0 0.19662750E+04</rscale>
<asrwt>0</asrwt>
<pdfrwt beam="1">  1        2 0.40101492E+00 0.19662750E+04</pdfrwt>
<pdfrwt beam="2">  1       -2 0.57048115E-01 0.19662750E+04</pdfrwt>
<totfact> 0.81010251E+00</totfact>
</mgrwt>
</event>
<event>
 6    1  0.2113866E-005  0.4997327E+04  0.7818608E-02  0.7828920E-01
         -1   -1    0    0    0  501 -0.00000000000E+00  0.00000000000E+00  0.19094838650E+04  0.19094838650E+04  0.00000000000E+00 0.  1.
          1   -1    0    0  501    0  0.00000000000E+00 -0.00000000000E+00 -0.32696375936E+04  0.32696375936E+04  0.00000000000E+00 0. -1.
         23    2    1    2    0    0 -0.86031187545E+03 -0.13659635459E+03  0.17458603345E+04  0.19532698737E+04  0.91868410164E+02 0.  0.
         13    1    3    3    0    0 -0.35722177219E+03 -0.31644714522E+02  0.80308953458E+03  0.87952349771E+03  0.00000000000E+00 0. -1.
        -13    1    3    3    0    0 -0.50309010326E+03 -0.10495164006E+03  0.94277079994E+03  0.10737463760E+04  0.00000000000E+00 0.  1.
         22    1    1    2    0    0  0.86031187545E+03  0.13659635459E+03 -0.31060140632E+04  0.32258515849E+04  0.00000000000E+00 0. -1.
<mgrwt>
<rscale>  0 0.49973274E+04</rscale>
<asrwt>0</asrwt>
<pdfrwt beam="1">  1        1 0.50302116E+00 0.49973274E+04</pdfrwt>
<pdfrwt beam="2">  1       -1 0.29376675E+00 0.49973274E+04</pdfrwt>
<totfact> 0.98522725E-03</totfact>
</mgrwt>
</event>
<event>
 6    1  0.1780144E-005  0.7601513E+03  0.7818608E-02  0.9619558E-01
         -1   -1    0    0    0  501 -0.00000000000E+00  0.00000000000E+00  0.17366535985E+03  0.17366535985E+03  0.00000000000E+00 0.  1.
          1   -1    0    0  501    0  0.00000000000E+00 -0.00000000000E+00 -0.83181523045E+03  0.83181523045E+03  0.00000000000E+00 0. -1.
         23    2    1    2    0    0 -0.29896183462E+03 -0.15586456960E+03 -0.54985247521E+03  0.65136158705E+03  0.90896809528E+02 0.  0.
         13    1    3    3    0    0 -0.24911851974E+03 -0.11394851070E+03 -0.37216922320E+03  0.46211928186E+03  0.00000000000E+00 0.  1.
        -13    1    3    3    0    0 -0.49843314878E+02 -0.41916058895E+02 -0.17768325200E+03  0.18924230519E+03  0.00000000000E+00 0. -1.
         22    1    1    2    0    0  0.29896183462E+03  0.15586456960E+03 -0.10829739539E+03  0.35411900325E+03  0.00000000000E+00 0.  1.
<mgrwt>
<rscale>  0 0.76015128E+03</rscale>
<asrwt>0</asrwt>
<pdfrwt beam="1">  1        1 0.12797157E+00 0.76015128E+03</pdfrwt>
<pdfrwt beam="2">  1       -1 0.26717748E-01 0.76015128E+03</pdfrwt>
<totfact> 0.26192512E+02</totfact>
</mgrwt>
</event>
<event>
 6    1  0.1780144E-005  0.2649120E+04  0.7818608E-02  0.8351705E-01
          2   -1    0    0  501    0  0.00000000000E+00  0.00000000000E+00  0.10999383137E+04  0.10999383137E+04  0.00000000000E+00 0. -1.
         -2   -1    0    0    0  501 -0.00000000000E+00 -0.00000000000E+00 -0.15950518565E+04  0.15950518565E+04  0.00000000000E+00 0.  1.
         23    2    1    2    0    0 -0.10862522957E+04 -0.30261106697E+03 -0.95164416904E+03  0.14784632612E+04  0.93324607510E+02 0.  0.
         11    1    3    3    0    0 -0.90468063003E+03 -0.23903390402E+03 -0.83043807758E+03  0.12510841899E+04  0.00000000000E+00 0. -1.
        -11    1    3    3    0    0 -0.18157166566E+03 -0.63577162948E+02 -0.12120609147E+03  0.22737907122E+03  0.00000000000E+00 0.  1.
         22    1    1    2    0    0  0.10862522957E+04  0.30261106697E+03  0.45653062622E+03  0.12165269090E+04  0.00000000000E+00 0. -1.
<mgrwt>
<rscale>  0 0.26491196E+04</rscale>
<asrwt>0</asrwt>
<pdfrwt beam="1">  1        2 0.16922128E+00 0.26491196E+04</pdfrwt>
<pdfrwt beam="2">  1       -2 0.24539259E+00 0.26491196E+04</pdfrwt>
<totfact> 0.13167435E+00</totfact>
</mgrwt>
</event>
<event>
 6    1  0.1780144E-005  0.3343306E+04  0.7818608E-02  0.8151963E-01
         -2   -1    0    0    0  501 -0.00000000000E+00  0.00000000000E+00  0.18187697285E+04  0.18187697285E+04  0.00000000000E+00 0. -1.
          2   -1    0    0  501    0  0.00000000000E+00 -0.00000000000E+00 -0.15364365532E+04  0.15364365532E+04  0.00000000000E+00 0.  1.
         23    2    1    2    0    0 -0.45092566340E+03  0.78189676423E+03  0.15518248795E+04  0.17975459559E+04  0.91183896157E+02 0.  0.
         11    1    3    3    0    0 -0.17164795094E+03  0.23538923413E+03  0.55850442747E+03  0.62991928539E+03  0.00000000000E+00 0. -1.
        -11    1    3    3    0    0 -0.27927771246E+03  0.54650753011E+03  0.99332045205E+03  0.11676266705E+04  0.00000000000E+00 0.  1.
         22    1    1    2    0    0  0.45092566340E+03 -0.78189676423E+03 -0.12694917042E+04  0.15576603259E+04  0.00000000000E+00 0.  1.
<mgrwt>
<rscale>  0 0.33433063E+04</rscale>
<asrwt>0</asrwt>
<pdfrwt beam="1">  1        2 0.23637485E+00 0.33433063E+04</pdfrwt>
<pdfrwt beam="2">  1       -2 0.27981073E+00 0.33433063E+04</pdfrwt>
<totfact> 0.42545257E-01</totfact>
</mgrwt>
</event>
<event>
 6    1  0.1780144E-005  0.2812952E+04  0.7818608E-02  0.8299258E-01
          2   -1    0    0  501    0  0.00000000000E+00  0.00000000000E+00  0.11941481056E+04  0.11941481056E+04  0.00000000000E+00 0. -1.
         -2   -1    0    0    0  501 -0.00000000000E+00 -0.00000000000E+00 -0.16565576068E+04  0.16565576068E+04  0.00000000000E+00 0.  1.
         23    2    1    2    0    0 -0.12745376002E+04 -0.52306928085E+03 -0.51052150852E+03  0.14721694118E+04  0.92752356183E+02 0.  0.
         11    1    3    3    0    0 -0.23513415757E+03 -0.60023690374E+02 -0.10069302287E+03  0.26273560915E+03  0.00000000000E+00 0. -1.
        -11    1    3    3    0    0 -0.10394034426E+04 -0.46304559048E+03 -0.40982848565E+03  0.12094338027E+04  0.00000000000E+00 0.  1.
         22    1    1    2    0    0  0.12745376002E+04  0.52306928085E+03  0.48112007388E+02  0.13785363006E+04  0.00000000000E+00 0.  1.
<mgrwt>
<rscale>  0 0.28129523E+04</rscale>
<asrwt>0</asrwt>
<pdfrwt beam="1">  1        2 0.18371509E+00 0.28129523E+04</pdfrwt>
<pdfrwt beam="2">  1       -2 0.25485502E+00 0.28129523E+04</pdfrwt>
<totfact> 0.99573698E-01</totfact>
</mgrwt>
</event>
<event>
 6    1  0.1780144E-005  0.1179246E+04  0.7818608E-02  0.9131219E-01
          2   -1    0    0  501    0  0.00000000000E+00  0.00000000000E+00  0.17228987467E+04  0.17228987467E+04  0.00000000000E+00 0. -1.
         -2   -1    0    0    0  501 -0.00000000000E+00 -0.00000000000E+00 -0.20178493654E+03  0.20178493654E+03  0.00000000000E+00 0.  1.
         23    2    1    2    0    0 -0.41709980365E+03 -0.36427474919E+03  0.10791654599E+04  0.12161734974E+04  0.88382956020E+02 0.  0.
         11    1    3    3    0    0 -0.21540196491E+03 -0.22467190295E+03  0.67666931693E+03  0.74482000170E+03  0.00000000000E+00 0. -1.
        -11    1    3    3    0    0 -0.20169783874E+03 -0.13960284624E+03  0.40249614295E+03  0.47135349572E+03  0.00000000000E+00 0.  1.
         22    1    1    2    0    0  0.41709980365E+03  0.36427474919E+03  0.44194835027E+03  0.70851018582E+03  0.00000000000E+00 0.  1.
<mgrwt>
<rscale>  0 0.11792455E+04</rscale>
<asrwt>0</asrwt>
<pdfrwt beam="1">  1        2 0.26506134E+00 0.11792455E+04</pdfrwt>
<pdfrwt beam="2">  1       -2 0.31043838E-01 0.11792455E+04</pdfrwt>
<totfact> 0.90497159E+01</totfact>
</mgrwt>
</event>
<event>
 6    1  0.1780144E-005  0.4792145E+04  0.7818608E-02  0.7861396E-01
          2   -1    0    0  501    0  0.00000000000E+00  0.00000000000E+00  0.25899220982E+04  0.25899220982E+04  0.00000000000E+00 0. -1.
         -2   -1    0    0    0  501 -0.00000000000E+00 -0.00000000000E+00 -0.22167320391E+04  0.22167320391E+04  0.00000000000E+00 0.  1.
         23    2    1    2    0    0  0.78712354118E+03 -0.91992558849E+03  0.22595775112E+04  0.25651626301E+04  0.92424199220E+02 0.  0.
         13    1    3    3    0    0  0.32925807543E+03 -0.40799979103E+03  0.88760305709E+03  0.10308801563E+04  0.00000000000E+00 0.  1.
        -13    1    3    3    0    0  0.45786546574E+03 -0.51192579746E+03  0.13719744541E+04  0.15342824738E+04  0.00000000000E+00 0. -1.
         22    1    1    2    0    0 -0.78712354118E+03  0.91992558849E+03 -0.18863874520E+04  0.22414915071E+04  0.00000000000E+00 0.  1.
<mgrwt>
<rscale>  0 0.47921449E+04</rscale>
<asrwt>0</asrwt>
<pdfrwt beam="1">  1        2 0.39844955E+00 0.47921449E+04</pdfrwt>
<pdfrwt beam="2">  1       -2 0.34103570E+00 0.47921449E+04</pdfrwt>
<totfact> 0.40446686E-02</totfact>
</mgrwt>
</event>
<event>
 6    1  0.1780144E-005  0.9264719E+03  0.7818608E-02  0.9393082E-01
          2   -1    0    0  501    0  0.00000000000E+00  0.00000000000E+00  0.10214063085E+04  0.10214063085E+04  0.00000000000E+00 0.  1.
         -2   -1    0    0    0  501 -0.00000000000E+00 -0.00000000000E+00 -0.21009029747E+03  0.21009029747E+03  0.00000000000E+00 0. -1.
         23    2    1    2    0    0 -0.15925728703E+03 -0.11165450432E+03  0.96183708048E+03  0.98555717412E+03  0.91448139672E+02 0.  0.
         13    1    3    3    0    0 -0.92341867318E+02 -0.14707663701E+02  0.51696652299E+03  0.52535485315E+03  0.00000000000E+00 0. -1.
        -13    1    3    3    0    0 -0.66915419716E+02 -0.96946840616E+02  0.44487055749E+03  0.46020232097E+03  0.00000000000E+00 0.  1.
         22    1    1    2    0    0  0.15925728703E+03  0.11165450432E+03 -0.15052106944E+03  0.24593943188E+03  0.00000000000E+00 0. -1.
<mgrwt>
<rscale>  0 0.92647192E+03</rscale>
<asrwt>0</asrwt>
<pdfrwt beam="1">  1        2 0.15713943E+00 0.92647192E+03</pdfrwt>
<pdfrwt beam="2">  1       -2 0.32321585E-01 0.92647192E+03</pdfrwt>
<totfact> 0.21760704E+02</totfact>
</mgrwt>
</event>
<event>
 6    1  0.1780144E-005  0.1745509E+04  0.7818608E-02  0.8735826E-01
         -2   -1    0    0    0  501 -0.00000000000E+00  0.00000000000E+00  0.45521413951E+03  0.45521413951E+03  0.00000000000E+00 0.  1.
          2   -1    0    0  501    0  0.00000000000E+00 -0.00000000000E+00 -0.16732790141E+04  0.16732790141E+04  0.00000000000E+00 0. -1.
         23    2    1    2    0    0  0.25069870115E+03 -0.19075212726E+03 -0.15999401989E+04  0.16334527754E+04  0.95515007024E+02 0.  0.
         11    1    3    3    0    0  0.18110861972E+03 -0.79167647675E+02 -0.96901883984E+03  0.98897187045E+03  0.00000000000E+00 0. -1.
        -11    1    3    3    0    0  0.69590081433E+02 -0.11158447959E+03 -0.63092135907E+03  0.64448090496E+03  0.00000000000E+00 0.  1.
         22    1    1    2    0    0 -0.25069870115E+03  0.19075212726E+03  0.38187532428E+03  0.49504037826E+03  0.00000000000E+00 0.  1.
<mgrwt>
<rscale>  0 0.17455088E+04</rscale>
<asrwt>0</asrwt>
<pdfrwt beam="1">  1        2 0.25742754E+00 0.17455088E+04</pdfrwt>
<pdfrwt beam="2">  1       -2 0.70032944E-01 0.17455088E+04</pdfrwt>
<totfact> 0.17867616E+01</totfact>
</mgrwt>
</event>
<event>
 6    1  0.1780144E-005  0.2018204E+04  0.7818608E-02  0.8598157E-01
         -1   -1    0    0    0  501 -0.00000000000E+00  0.00000000000E+00  0.44296267102E+03  0.44296267102E+03  0.00000000000E+00 0.  1.
          1   -1    0    0  501    0  0.00000000000E+00 -0.00000000000E+00 -0.22988105547E+04  0.22988105547E+04  0.00000000000E+00 0. -1.
         23    2    1    2    0    0  0.28027172283E+02  0.71980234647E+03  0.26274935680E+02  0.72650965797E+03  0.90691623191E+02 0.  0.
         11    1    3    3    0    0  0.51241852345E+02  0.23305531561E+03  0.26450947730E+01  0.23863676182E+03  0.00000000000E+00 0. -1.
        -11    1    3    3    0    0 -0.23214680063E+02  0.48674703086E+03  0.23629840907E+02  0.48787289615E+03  0.00000000000E+00 0.  1.
         22    1    1    2    0    0 -0.28027172283E+02 -0.71980234647E+03 -0.18821228194E+04  0.20152635678E+04  0.00000000000E+00 0. -1.
<mgrwt>
<rscale>  0 0.20182044E+04</rscale>
<asrwt>0</asrwt>
<pdfrwt beam="1">  1        1 0.35366316E+00 0.20182044E+04</pdfrwt>
<pdfrwt beam="2">  1       -1 0.68148104E-01 0.20182044E+04</pdfrwt>
<totfact> 0.37651922E+00</totfact>
</mgrwt>
</event>
<event>
 6    1  0.1780144E-005  0.2068444E+04  0.7818608E-02  0.8575273E-01
         -1   -1    0    0    0  501 -0.00000000000E+00  0.00000000000E+00  0.68291483797E+03  0.68291483797E+03  0.00000000000E+00 0.  1.
          1   -1    0    0  501    0  0.00000000000E+00 -0.00000000000E+00 -0.15662499761E+04  0.15662499761E+04  0.00000000000E+00 0. -1.
         23    2    1    2    0    0 -0.52118010579E+03 -0.90609233729E+02  0.52115575932E+03  0.74835389429E+03  0.92690289225E+02 0.  0.
         13    1    3    3    0    0 -0.24961328075E+03 -0.76781863957E+02  0.30087035454E+03  0.39840333181E+03  0.00000000000E+00 0.  1.
        -13    1    3    3    0    0 -0.27156682505E+03 -0.13827369772E+02  0.22028540478E+03  0.34995056248E+03  0.00000000000E+00 0. -1.
         22    1    1    2    0    0  0.52118010579E+03  0.90609233729E+02 -0.14044908975E+04  0.15008109198E+04  0.00000000000E+00 0. -1.
<mgrwt>
<rscale>  0 0.20684442E+04</rscale>
<asrwt>0</asrwt>
<pdfrwt beam="1">  1        1 0.24096153E+00 0.20684442E+04</pdfrwt>
<pdfrwt beam="2">  1       -1 0.10506382E+00 0.20684442E+04</pdfrwt>
<totfact> 0.46149771E+00</totfact>
</mgrwt>
</event>
<event>
 6    1  0.1780144E-005  0.5979917E+03  0.7818608E-02  0.9909581E-01
          2   -1    0    0  501    0  0.00000000000E+00  0.00000000000E+00  0.17745237960E+04  0.17745237960E+04  0.00000000000E+00 0.  1.
         -2   -1    0    0    0  501 -0.00000000000E+00 -0.00000000000E+00 -0.50378875207E+02  0.50378875207E+02  0.00000000000E+00 0. -1.
         23    2    1    2    0    0  0.15575928877E+03  0.23046396728E+03  0.11546352408E+04  0.11910920750E+04  0.90239656388E+02 0.  0.
         11    1    3    3    0    0  0.41413425940E+02  0.10230467490E+03  0.30715242856E+03  0.32638004340E+03  0.00000000000E+00 0. -1.
        -11    1    3    3    0    0  0.11434586283E+03  0.12815929238E+03  0.84748281228E+03  0.86471203165E+03  0.00000000000E+00 0.  1.
         22    1    1    2    0    0 -0.15575928877E+03 -0.23046396728E+03  0.56950967994E+03  0.63381059615E+03  0.00000000000E+00 0.  1.
<mgrwt>
<rscale>  0 0.59799168E+03</rscale>
<asrwt>0</asrwt>
<pdfrwt beam="1">  1        2 0.27300361E+00 0.59799168E+03</pdfrwt>
<pdfrwt beam="2">  1       -2 0.77505975E-02 0.59799168E+03</pdfrwt>
<totfact> 0.94698097E+02</totfact>
</mgrwt>
</event>
<event>
 6    1  0.1780144E-005  0.1315487E+04  0.7818608E-02  0.9017374E-01
         -2   -1    0    0    0  501 -0.00000000000E+00  0.00000000000E+00  0.15639025214E+03  0.15639025214E+03  0.00000000000E+00 0. -1.
          2   -1    0    0  501    0  0.00000000000E+00 -0.00000000000E+00 -0.27663246446E+04  0.27663246446E+04  0.00000000000E+00 0.  1.
         23    2    1    2    0    0 -0.18703560403E+03 -0.47269484588E+03 -0.39531731669E+03  0.65050198268E+03  0.91947344131E+02 0.  0.
         13    1    3    3    0    0 -0.55587170922E+02 -0.25839800760E+03 -0.22169193430E+03  0.34497358976E+03  0.00000000000E+00 0.  1.
        -13    1    3    3    0    0 -0.13144843311E+03 -0.21429683828E+03 -0.17362538239E+03  0.30552839291E+03  0.00000000000E+00 0. -1.
         22    1    1    2    0    0  0.18703560403E+03  0.47269484588E+03 -0.22146170758E+04  0.22722129141E+04  0.00000000000E+00 0.  1.
<mgrwt>
<rscale>  0 0.13154865E+04</rscale>
<asrwt>0</asrwt>
<pdfrwt beam="1">  1        2 0.42558834E+00 0.13154865E+04</pdfrwt>
<pdfrwt beam="2">  1       -2 0.24060042E-01 0.13154865E+04</pdfrwt>
<totfact> 0.36766577E+01</totfact>
</mgrwt>
</event>
<event>
 6    1  0.1780144E-005  0.3912884E+03  0.7818608E-02  0.1046839E+00
          2   -1    0    0  501    0  0.00000000000E+00  0.00000000000E+00  0.11341283531E+04  0.11341283531E+04  0.00000000000E+00 0. -1.
         -2   -1    0    0    0  501 -0.00000000000E+00 -0.00000000000E+00 -0.33749845001E+02  0.33749845001E+02  0.00000000000E+00 0.  1.
         23    2    1    2    0    0 -0.18372522686E+02 -0.13182531494E+03  0.96334656888E+03  0.97684622273E+03  0.92067735101E+02 0.  0.
         11    1    3    3    0    0 -0.30687998777E+02 -0.22985656523E+02  0.46630058268E+03  0.46787426418E+03  0.00000000000E+00 0. -1.
        -11    1    3    3    0    0  0.12315476091E+02 -0.10883965842E+03  0.49704598620E+03  0.50897195856E+03  0.00000000000E+00 0.  1.
         22    1    1    2    0    0  0.18372522686E+02  0.13182531494E+03  0.13703193924E+03  0.19103197539E+03  0.00000000000E+00 0.  1.
<mgrwt>
<rscale>  0 0.39128842E+03</rscale>
<asrwt>0</asrwt>
<pdfrwt beam="1">  1        2 0.17448126E+00 0.39128842E+03</pdfrwt>
<pdfrwt beam="2">  1       -2 0.51922847E-02 0.39128842E+03</pdfrwt>
<totfact> 0.40470317E+03</totfact>
</mgrwt>
</event>
<event>
 6    1  0.1780144E-005  0.2785786E+04  0.7818608E-02  0.8307695E-01
         -2   -1    0    0    0  501 -0.00000000000E+00  0.00000000000E+00  0.68677126393E+03  0.68677126393E+03  0.00000000000E+00 0. -1.
          2   -1    0    0  501    0  0.00000000000E+00 -0.00000000000E+00 -0.28250315092E+04  0.28250315092E+04  0.00000000000E+00 0.  1.
         23    2    1    2    0    0 -0.11015189325E+04  0.85943805852E+02 -0.42441441657E+01  0.11087307775E+04  0.92388461692E+02 0.  0.
         13    1    3    3    0    0 -0.51875577835E+03  0.75772926341E+02 -0.31834968610E+02  0.52522619809E+03  0.00000000000E+00 0.  1.
        -13    1    3    3    0    0 -0.58276315413E+03  0.10170879510E+02  0.27590824445E+02  0.58350457942E+03  0.00000000000E+00 0. -1.
         22    1    1    2    0    0  0.11015189325E+04 -0.85943805852E+02 -0.21340161011E+04  0.24030719956E+04  0.00000000000E+00 0.  1.
<mgrwt>
<rscale>  0 0.27857857E+04</rscale>
<asrwt>0</asrwt>
<pdfrwt beam="1">  1        2 0.43462023E+00 0.27857857E+04</pdfrwt>
<pdfrwt beam="2">  1       -2 0.10565712E+00 0.27857857E+04</pdfrwt>
<totfact> 0.14081059E+00</totfact>
</mgrwt>
</event>
<event>
 6    1  0.1780144E-005  0.2039228E+04  0.7818608E-02  0.8588497E-01
         -2   -1    0    0    0  501 -0.00000000000E+00  0.00000000000E+00  0.65063283549E+03  0.65063283549E+03  0.00000000000E+00 0. -1.
          2   -1    0    0  501    0  0.00000000000E+00 -0.00000000000E+00 -0.15978485962E+04  0.15978485962E+04  0.00000000000E+00 0.  1.
         23    2    1    2    0    0 -0.19005277471E+03  0.77690736972E+03 -0.11680930171E+04  0.14187273232E+04  0.92955917374E+02 0.  0.
         11    1    3    3    0    0 -0.99890813352E+02  0.47880538114E+03 -0.78639996957E+03  0.92609809401E+03  0.00000000000E+00 0. -1.
        -11    1    3    3    0    0 -0.90161961359E+02  0.29810198858E+03 -0.38169304753E+03  0.49262922914E+03  0.00000000000E+00 0.  1.
         22    1    1    2    0    0  0.19005277471E+03 -0.77690736972E+03  0.22087725637E+03  0.82975410856E+03  0.00000000000E+00 0. -1.
<mgrwt>
<rscale>  0 0.20392281E+04</rscale>
<asrwt>0</asrwt>
<pdfrwt beam="1">  1        2 0.24582286E+00 0.20392281E+04</pdfrwt>
<pdfrwt beam="2">  1       -2 0.10009736E+00 0.20392281E+04</pdfrwt>
<totfact> 0.85356654E+00</totfact>
</mgrwt>
</event>
<event>
 6    1  0.1780144E-005  0.2472682E+04  0.7818608E-02  0.8412783E-01
         -2   -1    0    0    0  501 -0.00000000000E+00  0.00000000000E+00  0.20208482606E+04  0.20208482606E+04  0.00000000000E+00 0.  1.
          2   -1    0    0  501    0  0.00000000000E+00 -0.00000000000E+00 -0.75638476720E+03  0.75638476720E+03  0.00000000000E+00 0. -1.
         23    2    1    2    0    0  0.12115994075E+04 -0.14967476485E+03  0.84014288345E+03  0.14847843288E+04  0.91481030261E+02 0.  0.
         13    1    3    3    0    0  0.92269869794E+03 -0.87392312061E+02  0.60124941655E+03  0.11047674707E+04  0.00000000000E+00 0. -1.
        -13    1    3    3    0    0  0.28890070958E+03 -0.62282452787E+02  0.23889346690E+03  0.38001685811E+03  0.00000000000E+00 0.  1.
         22    1    1    2    0    0 -0.12115994075E+04  0.14967476485E+03  0.42432060995E+03  0.12924486990E+04  0.00000000000E+00 0. -1.
<mgrwt>
<rscale>  0 0.24726818E+04</rscale>
<asrwt>0</asrwt>
<pdfrwt beam="1">  1        2 0.11636689E+00 0.24726818E+04</pdfrwt>
<pdfrwt beam="2">  1       -2 0.31089973E+00 0.24726818E+04</pdfrwt>
<totfact> 0.90354268E-01</totfact>
</mgrwt>
</event>
<event>
 6    1  0.1780144E-005  0.2419693E+04  0.7818608E-02  0.8432167E-01
         -2   -1    0    0    0  501 -0.00000000000E+00  0.00000000000E+00  0.87043963299E+03  0.87043963299E+03  0.00000000000E+00 0.  1.
          2   -1    0    0  501    0  0.00000000000E+00 -0.00000000000E+00 -0.16815965323E+04  0.16815965323E+04  0.00000000000E+00 0. -1.
         23    2    1    2    0    0  0.66023155390E+03 -0.58856010665E+03  0.46181803435E+03  0.10019478176E+04  0.91185681035E+02 0.  0.
         11    1    3    3    0    0  0.40427055248E+03 -0.35356344607E+03  0.23002311710E+03  0.58425373289E+03  0.00000000000E+00 0.  1.
        -11    1    3    3    0    0  0.25596100143E+03 -0.23499666058E+03  0.23179491725E+03  0.41769408471E+03  0.00000000000E+00 0. -1.
         22    1    1    2    0    0 -0.66023155390E+03  0.58856010665E+03 -0.12729749337E+04  0.15500883477E+04  0.00000000000E+00 0. -1.
<mgrwt>
<rscale>  0 0.24196928E+04</rscale>
<asrwt>0</asrwt>
<pdfrwt beam="1">  1        2 0.25870716E+00 0.24196928E+04</pdfrwt>
<pdfrwt beam="2">  1       -2 0.13391379E+00 0.24196928E+04</pdfrwt>
<totfact> 0.36311404E+00</totfact>
</mgrwt>
</event>
<event>
 6    1  0.1780144E-005  0.1662734E+04  0.7818608E-02  0.8782909E-01
          1   -1    0    0  501    0  0.00000000000E+00  0.00000000000E+00  0.25397737480E+04  0.25397737480E+04  0.00000000000E+00 0. -1.
         -1   -1    0    0    0  501 -0.00000000000E+00 -0.00000000000E+00 -0.27213870018E+03  0.27213870018E+03  0.00000000000E+00 0.  1.
         23    2    1    2    0    0  0.35586052335E+03  0.38315870041E+02  0.24015769563E+04  0.24297537733E+04  0.89591872172E+02 0.  0.
         13    1    3    3    0    0  0.21307105752E+03 -0.23769212882E+01  0.11684735953E+04  0.11877438563E+04  0.00000000000E+00 0.  1.
        -13    1    3    3    0    0  0.14278946583E+03  0.40692791329E+02  0.12331033611E+04  0.12420099170E+04  0.00000000000E+00 0. -1.
         22    1    1    2    0    0 -0.35586052335E+03 -0.38315870041E+02 -0.13394190849E+03  0.38215867493E+03  0.00000000000E+00 0.  1.
<mgrwt>
<rscale>  0 0.16627336E+04</rscale>
<asrwt>0</asrwt>
<pdfrwt beam="1">  1        1 0.39073441E+00 0.16627336E+04</pdfrwt>
<pdfrwt beam="2">  1       -1 0.41867494E-01 0.16627336E+04</pdfrwt>
<totfact> 0.68081933E+00</totfact>
</mgrwt>
</event>
<event>
 6    1  0.1780144E-005  0.4790518E+04  0.7818608E-02  0.7861660E-01
          2   -1    0    0  501    0  0.00000000000E+00  0.00000000000E+00  0.17427171290E+04  0.17427171290E+04  0.00000000000E+00 0. -1.
         -2   -1    0    0    0  501 -0.00000000000E+00 -0.00000000000E+00 -0.32921388151E+04  0.32921388151E+04  0.00000000000E+00 0.  1.
         23    2    1    2    0    0  0.12371431070E+04  0.16391078564E+04  0.51904233230E+03  0.21201104960E+04  0.90917218790E+02 0.  0.
         11    1    3    3    0    0  0.87720078481E+03  0.11581579925E+04  0.32440719618E+03  0.14886407160E+04  0.00000000000E+00 0. -1.
        -11    1    3    3    0    0  0.35994232216E+03  0.48094986387E+03  0.19463513611E+03  0.63146978000E+03  0.00000000000E+00 0.  1.
         22    1    1    2    0    0 -0.12371431070E+04 -0.16391078564E+04 -0.20684640183E+04  0.29147454481E+04  0.00000000000E+00 0.  1.
<mgrwt>
<rscale>  0 0.47905184E+04</rscale>
<asrwt>0</asrwt>
<pdfrwt beam="1">  1        2 0.26811033E+00 0.47905184E+04</pdfrwt>
<pdfrwt beam="2">  1       -2 0.50648289E+00 0.47905184E+04</pdfrwt>
<totfact> 0.10405137E-02</totfact>
</mgrwt>
</event>
<event>
 6    1  0.1780144E-005  0.1819162E+04  0.7818608E-02  0.8696175E-01
          1   -1    0    0  501    0  0.00000000000E+00  0.00000000000E+00  0.21683060775E+04  0.21683060775E+04  0.00000000000E+00 0. -1.
         -1   -1    0    0    0  501 -0.00000000000E+00 -0.00000000000E+00 -0.38155950090E+03  0.38155950090E+03  0.00000000000E+00 0.  1.
         23    2    1    2    0    0  0.49294596860E+03 -0.32374076497E+03  0.18620598419E+04  0.19553271870E+04  0.90739973111E+02 0.  0.
         11    1    3    3    0    0  0.31803039440E+03 -0.23525788261E+03  0.13597265316E+04  0.14161023423E+04  0.00000000000E+00 0. -1.
        -11    1    3    3    0    0  0.17491557420E+03 -0.88482882366E+02  0.50233331030E+03  0.53922484476E+03  0.00000000000E+00 0.  1.
         22    1    1    2    0    0 -0.49294596860E+03  0.32374076497E+03 -0.75313265302E+02  0.59453839135E+03  0.00000000000E+00 0. -1.
<mgrwt>
<rscale>  0 0.18191622E+04</rscale>
<asrwt>0</asrwt>
<pdfrwt beam="1">  1        1 0.33358554E+00 0.18191622E+04</pdfrwt>
<pdfrwt beam="2">  1       -1 0.58701463E-01 0.18191622E+04</pdfrwt>
<totfact> 0.63459583E+00</totfact>
</mgrwt>
</event>
<event>
 6    1  0.1780144E-005  0.2223853E+04  0.7818608E-02  0.8508565E-01
         -1   -1    0    0    0  501 -0.00000000000E+00  0.00000000000E+00  0.10714829159E+04  0.10714829159E+04  0.00000000000E+00 0.  1.
          1   -1    0    0  501    0  0.00000000000E+00 -0.00000000000E+00 -0.11538965904E+04  0.11538965904E+04  0.00000000000E+00 0. -1.
         23    2    1    2    0    0  0.57420270115E+03  0.70692929247E+03  0.59369229636E+03  0.10911057076E+04  0.92646402218E+02 0.  0.
         13    1    3    3    0    0  0.19003916704E+03  0.18550978709E+03  0.20772455515E+03  0.33716206330E+03  0.00000000000E+00 0.  1.
        -13    1    3    3    0    0  0.38416353410E+03  0.52141950538E+03  0.38596774121E+03  0.75394364431E+03  0.00000000000E+00 0. -1.
         22    1    1    2    0    0 -0.57420270115E+03 -0.70692929247E+03 -0.67610597089E+03  0.11342737987E+04  0.00000000000E+00 0. -1.
<mgrwt>
<rscale>  0 0.22238529E+04</rscale>
<asrwt>0</asrwt>
<pdfrwt beam="1">  1        1 0.17752255E+00 0.22238529E+04</pdfrwt>
<pdfrwt beam="2">  1       -1 0.16484353E+00 0.22238529E+04</pdfrwt>
<totfact> 0.28251772E+00</totfact>
</mgrwt>
</event>
<event>
 6    1  0.1780144E-005  0.4732212E+04  0.7818608E-02  0.7871198E-01
          2   -1    0    0  501    0  0.00000000000E+00  0.00000000000E+00  0.38039123870E+04  0.38039123870E+04  0.00000000000E+00 0. -1.
         -2   -1    0    0    0  501 -0.00000000000E+00 -0.00000000000E+00 -0.14717627707E+04  0.14717627707E+04  0.00000000000E+00 0.  1.
         23    2    1    2    0    0  0.17391318719E+04  0.67771898709E+03 -0.45240742581E+03  0.19234161263E+04  0.10475887721E+03 0.  0.
         13    1    3    3    0    0  0.35381835331E+03  0.16743863683E+03 -0.61559627631E+02  0.39624829589E+03  0.00000000000E+00 0. -1.
        -13    1    3    3    0    0  0.13853135186E+04  0.51028035026E+03 -0.39084779817E+03  0.15271678304E+04  0.00000000000E+00 0.  1.
         22    1    1    2    0    0 -0.17391318719E+04 -0.67771898709E+03  0.27845570421E+04  0.33522590315E+04  0.00000000000E+00 0. -1.
<mgrwt>
<rscale>  0 0.47322116E+04</rscale>
<asrwt>0</asrwt>
<pdfrwt beam="1">  1        2 0.58521729E+00 0.47322116E+04</pdfrwt>
<pdfrwt beam="2">  1       -2 0.22642504E+00 0.47322116E+04</pdfrwt>
<totfact> 0.32547563E-02</totfact>
</mgrwt>
</event>
<event>
 6    1  0.1780144E-005  0.1686272E+04  0.7818608E-02  0.8769233E-01
         -2   -1    0    0    0  501 -0.00000000000E+00  0.00000000000E+00  0.37553026070E+03  0.37553026070E+03  0.00000000000E+00 0.  1.
          2   -1    0    0  501    0  0.00000000000E+00 -0.00000000000E+00 -0.18929981606E+04  0.18929981606E+04  0.00000000000E+00 0. -1.
         23    2    1    2    0    0 -0.47384488252E+03  0.39783980105E+03  0.47208513329E+01  0.62540211017E+03  0.91104516781E+02 0.  0.
         13    1    3    3    0    0 -0.16454562797E+03  0.86458175139E+02 -0.11294381116E+02  0.18621987750E+03  0.00000000000E+00 0. -1.
        -13    1    3    3    0    0 -0.30929925455E+03  0.31138162591E+03  0.16015232449E+02  0.43918223266E+03  0.00000000000E+00 0.  1.
         22    1    1    2    0    0  0.47384488252E+03 -0.39783980105E+03 -0.15221887512E+04  0.16431263112E+04  0.00000000000E+00 0. -1.
<mgrwt>
<rscale>  0 0.16862717E+04</rscale>
<asrwt>0</asrwt>
<pdfrwt beam="1">  1        2 0.29123049E+00 0.16862717E+04</pdfrwt>
<pdfrwt beam="2">  1       -2 0.57773886E-01 0.16862717E+04</pdfrwt>
<totfact> 0.20470945E+01</totfact>
</mgrwt>
</event>
<event>
 6    1  0.1780144E-005  0.2365039E+04  0.7818608E-02  0.8452709E-01
         -2   -1    0    0    0  501 -0.00000000000E+00  0.00000000000E+00  0.12346145247E+04  0.12346145247E+04  0.00000000000E+00 0.  1.
          2   -1    0    0  501    0  0.00000000000E+00 -0.00000000000E+00 -0.11326230576E+04  0.11326230576E+04  0.00000000000E+00 0. -1.
         23    2    1    2    0    0  0.40893211939E+03 -0.75233576432E+03  0.86487345463E+03  0.12204056384E+04  0.90273192498E+02 0.  0.
         13    1    3    3    0    0  0.12305242398E+01 -0.30539550341E+02  0.45580002562E+02  0.54879094002E+02  0.00000000000E+00 0.  1.
        -13    1    3    3    0    0  0.40770159515E+03 -0.72179621398E+03  0.81929345207E+03  0.11655265444E+04  0.00000000000E+00 0. -1.
         22    1    1    2    0    0 -0.40893211939E+03  0.75233576432E+03 -0.76288198749E+03  0.11468319438E+04  0.00000000000E+00 0. -1.
<mgrwt>
<rscale>  0 0.23650394E+04</rscale>
<asrwt>0</asrwt>
<pdfrwt beam="1">  1        2 0.17424970E+00 0.23650394E+04</pdfrwt>
<pdfrwt beam="2">  1       -2 0.18994070E+00 0.23650394E+04</pdfrwt>
<totfact> 0.29103704E+00</totfact>
</mgrwt>
</event>
<event>
 6    1  0.1780144E-005  0.1280020E+04  0.7818608E-02  0.9045561E-01
          1   -1    0    0  501    0  0.00000000000E+00  0.00000000000E+00  0.90841378287E+03  0.90841378287E+03  0.00000000000E+00 0. -1.
         -1   -1    0    0    0  501 -0.00000000000E+00 -0.00000000000E+00 -0.45090997624E+03  0.45090997624E+03  0.00000000000E+00 0.  1.
         23    2    1    2    0    0  0.24551843658E+03 -0.35142860195E+01  0.85385224304E+03  0.89307947126E+03  0.90750405698E+02 0.  0.
         11    1    3    3    0    0  0.18596238385E+03 -0.38864821625E+02  0.67695699223E+03  0.70310970118E+03  0.00000000000E+00 0. -1.
        -11    1    3    3    0    0  0.59556052725E+02  0.35350535606E+02  0.17689525081E+03  0.18996977008E+03  0.00000000000E+00 0.  1.
         22    1    1    2    0    0 -0.24551843658E+03  0.35142860195E+01 -0.39634843642E+03  0.46624428785E+03  0.00000000000E+00 0.  1.
<mgrwt>
<rscale>  0 0.12800201E+04</rscale>
<asrwt>0</asrwt>
<pdfrwt beam="1">  1        1 0.13975597E+00 0.12800201E+04</pdfrwt>
<pdfrwt beam="2">  1       -1 0.69370766E-01 0.12800201E+04</pdfrwt>
<totfact> 0.37049815E+01</totfact>
</mgrwt>
</event>
<event>
 6    1  0.1780144E-005  0.2831498E+04  0.7818608E-02  0.8293556E-01
          1   -1    0    0  501    0  0.00000000000E+00  0.00000000000E+00  0.22896652386E+04  0.22896652386E+04  0.00000000000E+00 0. -1.
         -1   -1    0    0    0  501 -0.00000000000E+00 -0.00000000000E+00 -0.87538814798E+03  0.87538814798E+03  0.00000000000E+00 0.  1.
         23    2    1    2    0    0 -0.67517203667E+03 -0.99112957561E+03 -0.13018560642E+03  0.12096608078E+04  0.90199018611E+02 0.  0.
         13    1    3    3    0    0 -0.58522756836E+03 -0.82558221168E+03 -0.13661857441E+03  0.10211473595E+04  0.00000000000E+00 0.  1.
        -13    1    3    3    0    0 -0.89944468306E+02 -0.16554736393E+03  0.64329679938E+01  0.18851344822E+03  0.00000000000E+00 0. -1.
         22    1    1    2    0    0  0.67517203667E+03  0.99112957561E+03  0.15444626970E+04  0.19553925788E+04  0.00000000000E+00 0. -1.
<mgrwt>
<rscale>  0 0.28314984E+04</rscale>
<asrwt>0</asrwt>
<pdfrwt beam="1">  1        1 0.35225619E+00 0.28314984E+04</pdfrwt>
<pdfrwt beam="2">  1       -1 0.13467510E+00 0.28314984E+04</pdfrwt>
<totfact> 0.75683743E-01</totfact>
</mgrwt>
</event>
<event>
 6    1  0.1780144E-005  0.2791649E+04  0.7818608E-02  0.8305866E-01
          1   -1    0    0  501    0  0.00000000000E+00  0.00000000000E+00  0.79050217252E+03  0.79050217252E+03  0.00000000000E+00 0. -1.
         -1   -1    0    0    0  501 -0.00000000000E+00 -0.00000000000E+00 -0.24646691597E+04  0.24646691597E+04  0.00000000000E+00 0.  1.
         23    2    1    2    0    0 -0.60757863521E+03  0.53319702022E+02  0.62284329088E+03  0.87856639952E+03  0.10931772397E+03 0.  0.
         13    1    3    3    0    0 -0.35200453860E+03  0.32067670373E+02  0.43593769495E+03  0.56122829986E+03  0.00000000000E+00 0.  1.
        -13    1    3    3    0    0 -0.25557409661E+03  0.21252031649E+02  0.18690559593E+03  0.31733809966E+03  0.00000000000E+00 0. -1.
         22    1    1    2    0    0  0.60757863521E+03 -0.53319702022E+02 -0.22970102780E+04  0.23766049327E+04  0.00000000000E+00 0.  1.
<mgrwt>
<rscale>  0 0.27916492E+04</rscale>
<asrwt>0</asrwt>
<pdfrwt beam="1">  1        1 0.12161572E+00 0.27916492E+04</pdfrwt>
<pdfrwt beam="2">  1       -1 0.37917987E+00 0.27916492E+04</pdfrwt>
<totfact> 0.19343495E-01</totfact>
</mgrwt>
</event>
<event>
 6    1  0.1780144E-005  0.2037747E+04  0.7818608E-02  0.8589173E-01
         -2   -1    0    0    0  501 -0.00000000000E+00  0.00000000000E+00  0.13287159126E+04  0.13287159126E+04  0.00000000000E+00 0. -1.
          2   -1    0    0  501    0  0.00000000000E+00 -0.00000000000E+00 -0.78128317060E+03  0.78128317060E+03  0.00000000000E+00 0.  1.
         23    2    1    2    0    0 -0.43700309726E+03  0.35027808167E+02  0.12242500030E+04  0.13035995177E+04  0.91569528297E+02 0.  0.
         13    1    3    3    0    0 -0.23436516614E+03 -0.27056710990E+02  0.64890094728E+03  0.69045748319E+03  0.00000000000E+00 0. -1.
        -13    1    3    3    0    0 -0.20263793112E+03  0.62084519157E+02  0.57534905568E+03  0.61314203454E+03  0.00000000000E+00 0.  1.
         22    1    1    2    0    0  0.43700309726E+03 -0.35027808167E+02 -0.67681726099E+03  0.80639956544E+03  0.00000000000E+00 0.  1.
<mgrwt>
<rscale>  0 0.20377472E+04</rscale>
<asrwt>0</asrwt>
<pdfrwt beam="1">  1        2 0.12019741E+00 0.20377472E+04</pdfrwt>
<pdfrwt beam="2">  1       -2 0.20441783E+00 0.20377472E+04</pdfrwt>
<totfact> 0.40948117E+00</totfact>
</mgrwt>
</event>
<event>
 6    1  0.1780144E-005  0.1447010E+04  0.7818608E-02  0.8920476E-01
         -2   -1    0    0    0  501 -0.00000000000E+00  0.00000000000E+00  0.35869539445E+03  0.35869539445E+03  0.00000000000E+00 0. -1.
          2   -1    0    0  501    0  0.00000000000E+00 -0.00000000000E+00 -0.14593417099E+04  0.14593417099E+04  0.00000000000E+00 0.  1.
         23    2    1    2    0    0  0.70551219188E+03 -0.12911358369E+03 -0.46441193932E+03  0.85928168625E+03  0.90932923443E+02 0.  0.
         11    1    3    3    0    0  0.23453964043E+03 -0.27404678963E+02 -0.10637251029E+03  0.25898835940E+03  0.00000000000E+00 0. -1.
        -11    1    3    3    0    0  0.47097255145E+03 -0.10170890473E+03 -0.35803942903E+03  0.60029332685E+03  0.00000000000E+00 0.  1.
         22    1    1    2    0    0 -0.70551219188E+03  0.12911358369E+03 -0.63623437614E+03  0.95875541811E+03  0.00000000000E+00 0.  1.
<mgrwt>
<rscale>  0 0.14470095E+04</rscale>
<asrwt>0</asrwt>
<pdfrwt beam="1">  1        2 0.22451411E+00 0.14470095E+04</pdfrwt>
<pdfrwt beam="2">  1       -2 0.55183908E-01 0.14470095E+04</pdfrwt>
<totfact> 0.40079755E+01</totfact>
</mgrwt>
</event>
<event>
 6    1  0.1780144E-005  0.3317731E+04  0.7818608E-02  0.8158398E-01
         -2   -1    0    0    0  501 -0.00000000000E+00  0.00000000000E+00  0.12021511835E+04  0.12021511835E+04  0.00000000000E+00 0.  1.
          2   -1    0    0  501    0  0.00000000000E+00 -0.00000000000E+00 -0.22890919484E+04  0.22890919484E+04  0.00000000000E+00 0. -1.
         23    2    1    2    0    0 -0.60444513522E+03 -0.15398600739E+04 -0.65516596932E+03  0.17815787079E+04  0.90869557201E+02 0.  0.
         13    1    3    3    0    0 -0.14690635023E+03 -0.32798466702E+03 -0.10675835062E+03  0.37490367158E+03  0.00000000000E+00 0.  1.
        -13    1    3    3    0    0 -0.45753878499E+03 -0.12118754069E+04 -0.54840761869E+03  0.14066750363E+04  0.00000000000E+00 0. -1.
         22    1    1    2    0    0  0.60444513522E+03  0.15398600739E+04 -0.43177479560E+03  0.17096644240E+04  0.00000000000E+00 0. -1.
<mgrwt>
<rscale>  0 0.33177309E+04</rscale>
<asrwt>0</asrwt>
<pdfrwt beam="1">  1        2 0.35216799E+00 0.33177309E+04</pdfrwt>
<pdfrwt beam="2">  1       -2 0.18494634E+00 0.33177309E+04</pdfrwt>
<totfact> 0.64313962E-01</totfact>
</mgrwt>
</event>
<event>
 6    1  0.1780144E-005  0.1392031E+04  0.7818608E-02  0.8959608E-01
          2   -1    0    0  501    0  0.00000000000E+00  0.00000000000E+00  0.19063032267E+04  0.19063032267E+04  0.00000000000E+00 0. -1.
         -2   -1    0    0    0  501 -0.00000000000E+00 -0.00000000000E+00 -0.25412392282E+03  0.25412392282E+03  0.00000000000E+00 0.  1.
         23    2    1    2    0    0  0.19536350171E+03 -0.44416265573E+03  0.15977044828E+04  0.16721496990E+04  0.89317629673E+02 0.  0.
         13    1    3    3    0    0  0.98278532618E+02 -0.17943789465E+03  0.81218602591E+03  0.83755762112E+03  0.00000000000E+00 0. -1.
        -13    1    3    3    0    0  0.97084969094E+02 -0.26472476108E+03  0.78551845687E+03  0.83459207787E+03  0.00000000000E+00 0.  1.
         22    1    1    2    0    0 -0.19536350171E+03  0.44416265573E+03  0.54474821071E+02  0.48827745051E+03  0.00000000000E+00 0.  1.
<mgrwt>
<rscale>  0 0.13920305E+04</rscale>
<asrwt>0</asrwt>
<pdfrwt beam="1">  1        2 0.29327741E+00 0.13920305E+04</pdfrwt>
<pdfrwt beam="2">  1       -2 0.39095989E-01 0.13920305E+04</pdfrwt>
<totfact> 0.45383408E+01</totfact>
</mgrwt>
</event>
<event>
 6    1  0.1780144E-005  0.3142286E+04  0.7818608E-02  0.8204228E-01
         -1   -1    0    0    0  501 -0.00000000000E+00  0.00000000000E+00  0.11163588166E+04  0.11163588166E+04  0.00000000000E+00 0.  1.
          1   -1    0    0  501    0  0.00000000000E+00 -0.00000000000E+00 -0.22111975006E+04  0.22111975006E+04  0.00000000000E+00 0. -1.
         23    2    1    2    0    0 -0.42999469392E+03 -0.12071489378E+04 -0.15081447476E+04  0.19811069505E+04  0.90444320563E+02 0.  0.
         13    1    3    3    0    0 -0.39676746545E+03 -0.10560935397E+04 -0.12904932285E+04  0.17140976515E+04  0.00000000000E+00 0.  1.
        -13    1    3    3    0    0 -0.33227228471E+02 -0.15105539809E+03 -0.21765151910E+03  0.26700929904E+03  0.00000000000E+00 0. -1.
         22    1    1    2    0    0  0.42999469392E+03  0.12071489378E+04  0.41330606355E+03  0.13464493667E+04  0.00000000000E+00 0.  1.
<mgrwt>
<rscale>  0 0.31422857E+04</rscale>
<asrwt>0</asrwt>
<pdfrwt beam="1">  1        1 0.34018423E+00 0.31422857E+04</pdfrwt>
<pdfrwt beam="2">  1       -1 0.17174751E+00 0.31422857E+04</pdfrwt>
<totfact> 0.42991420E-01</totfact>
</mgrwt>
</event>
<event>
 6    1  0.1780144E-005  0.8091141E+03  0.7818608E-02  0.9546918E-01
          2   -1    0    0  501    0  0.00000000000E+00  0.00000000000E+00  0.57197323872E+03  0.57197323872E+03  0.00000000000E+00 0. -1.
         -2   -1    0    0    0  501 -0.00000000000E+00 -0.00000000000E+00 -0.28614347898E+03  0.28614347898E+03  0.00000000000E+00 0.  1.
         23    2    1    2    0    0 -0.32556034765E+03  0.16818877013E+03 -0.23477803840E+02  0.37858760362E+03  0.92197418547E+02 0.  0.
         13    1    3    3    0    0 -0.78182230067E+02  0.38006207110E+02 -0.45613859856E+02  0.98171060339E+02  0.00000000000E+00 0. -1.
        -13    1    3    3    0    0 -0.24737811758E+03  0.13018256302E+03  0.22136056016E+02  0.28041654328E+03  0.00000000000E+00 0.  1.
         22    1    1    2    0    0  0.32556034765E+03 -0.16818877013E+03  0.30930756358E+03  0.47952911407E+03  0.00000000000E+00 0. -1.
<mgrwt>
<rscale>  0 0.80911411E+03</rscale>
<asrwt>0</asrwt>
<pdfrwt beam="1">  1        2 0.87995883E-01 0.80911411E+03</pdfrwt>
<pdfrwt beam="2">  1       -2 0.44022074E-01 0.80911411E+03</pdfrwt>
<totfact> 0.25868653E+02</totfact>
</mgrwt>
</event>
<event>
 6    1  0.1780144E-005  0.3052573E+04  0.7818608E-02  0.8228876E-01
         -2   -1    0    0    0  501 -0.00000000000E+00  0.00000000000E+00  0.13505906122E+04  0.13505906122E+04  0.00000000000E+00 0.  1.
          2   -1    0    0  501    0  0.00000000000E+00 -0.00000000000E+00 -0.17248388454E+04  0.17248388454E+04  0.00000000000E+00 0. -1.
         23    2    1    2    0    0  0.58472044928E+03 -0.14072865130E+04 -0.12899592470E+03  0.15318938966E+04  0.87781707604E+02 0.  0.
         11    1    3    3    0    0  0.14646768347E+03 -0.28638710249E+03 -0.52628037252E+02  0.32594488043E+03  0.00000000000E+00 0. -1.
        -11    1    3    3    0    0  0.43825276580E+03 -0.11208994105E+04 -0.76367887450E+02  0.12059490161E+04  0.00000000000E+00 0.  1.
         22    1    1    2    0    0 -0.58472044928E+03  0.14072865130E+04 -0.24525230849E+03  0.15435355611E+04  0.00000000000E+00 0. -1.
<mgrwt>
<rscale>  0 0.30525734E+04</rscale>
<asrwt>0</asrwt>
<pdfrwt beam="1">  1        2 0.26535982E+00 0.30525734E+04</pdfrwt>
<pdfrwt beam="2">  1       -2 0.20778317E+00 0.30525734E+04</pdfrwt>
<totfact> 0.95829752E-01</totfact>
</mgrwt>
</event>
<event>
 6    1  0.1780144E-005  0.5233457E+03  0.7818608E-02  0.1007859E+00
          2   -1    0    0  501    0  0.00000000000E+00  0.00000000000E+00  0.14718407895E+04  0.14718407895E+04  0.00000000000E+00 0. -1.
         -2   -1    0    0    0  501 -0.00000000000E+00 -0.00000000000E+00 -0.46521801800E+02  0.46521801800E+02  0.00000000000E+00 0.  1.
         23    2    1    2    0    0  0.95727597162E+02 -0.19504516514E+03  0.35938956272E+03  0.43051520846E+03  0.94742269483E+02 0.  0.
         13    1    3    3    0    0 -0.16629616919E+02 -0.23507314619E+02  0.24381522964E+02  0.37730579926E+02  0.00000000000E+00 0.  1.
        -13    1    3    3    0    0  0.11235721408E+03 -0.17153785052E+03  0.33500803975E+03  0.39278462854E+03  0.00000000000E+00 0. -1.
         22    1    1    2    0    0 -0.95727597162E+02  0.19504516514E+03  0.10659294250E+04  0.10878473829E+04  0.00000000000E+00 0. -1.
<mgrwt>
<rscale>  0 0.52334572E+03</rscale>
<asrwt>0</asrwt>
<pdfrwt beam="1">  1        2 0.22643701E+00 0.52334572E+03</pdfrwt>
<pdfrwt beam="2">  1       -2 0.71572014E-02 0.52334572E+03</pdfrwt>
<totfact> 0.15765018E+03</totfact>
</mgrwt>
</event>
<event>
 6    1  0.1780144E-005  0.1162746E+04  0.7818608E-02  0.9146105E-01
         -2   -1    0    0    0  501 -0.00000000000E+00  0.00000000000E+00  0.12286232935E+03  0.12286232935E+03  0.00000000000E+00 0.  1.
          2   -1    0    0  501    0  0.00000000000E+00 -0.00000000000E+00 -0.27510014362E+04  0.27510014362E+04  0.00000000000E+00 0. -1.
         23    2    1    2    0    0  0.15534844891E+03 -0.42521707445E+03 -0.43483647481E+03  0.63432829213E+03  0.91361487464E+02 0.  0.
         11    1    3    3    0    0  0.51856616125E+02 -0.19183632426E+03 -0.13357858300E+03  0.23944419345E+03  0.00000000000E+00 0. -1.
        -11    1    3    3    0    0  0.10349183278E+03 -0.23338075019E+03 -0.30125789181E+03  0.39488409868E+03  0.00000000000E+00 0.  1.
         22    1    1    2    0    0 -0.15534844891E+03  0.42521707445E+03 -0.21933026320E+04  0.22395354734E+04  0.00000000000E+00 0. -1.
<mgrwt>
<rscale>  0 0.11627458E+04</rscale>
<asrwt>0</asrwt>
<pdfrwt beam="1">  1        2 0.42323090E+00 0.11627458E+04</pdfrwt>
<pdfrwt beam="2">  1       -2 0.18901901E-01 0.11627458E+04</pdfrwt>
<totfact> 0.58426879E+01</totfact>
</mgrwt>
</event>
<event>
 6    1  0.1780144E-005  0.1443295E+04  0.7818608E-02  0.8923062E-01
         -2   -1    0    0    0  501 -0.00000000000E+00  0.00000000000E+00  0.53071672740E+03  0.53071672740E+03  0.00000000000E+00 0.  1.
          2   -1    0    0  501    0  0.00000000000E+00 -0.00000000000E+00 -0.98126756971E+03  0.98126756971E+03  0.00000000000E+00 0. -1.
         23    2    1    2    0    0 -0.35142304363E+03  0.62616816502E+03 -0.18723138843E+03  0.74718245267E+03  0.87414519867E+02 0.  0.
         11    1    3    3    0    0 -0.13326436746E+03  0.32187851616E+03 -0.10487339633E+03  0.36381808649E+03  0.00000000000E+00 0. -1.
        -11    1    3    3    0    0 -0.21815867617E+03  0.30428964885E+03 -0.82357992104E+02  0.38336436617E+03  0.00000000000E+00 0.  1.
         22    1    1    2    0    0  0.35142304363E+03 -0.62616816502E+03 -0.26331945389E+03  0.76480184445E+03  0.00000000000E+00 0. -1.
<mgrwt>
<rscale>  0 0.14432950E+04</rscale>
<asrwt>0</asrwt>
<pdfrwt beam="1">  1        2 0.15096424E+00 0.14432950E+04</pdfrwt>
<pdfrwt beam="2">  1       -2 0.81648728E-01 0.14432950E+04</pdfrwt>
<totfact> 0.33183704E+01</totfact>
</mgrwt>
</event>
<event>
 6    1  0.1780144E-005  0.2819740E+04  0.7818608E-02  0.8297166E-01
          2   -1    0    0  501    0  0.00000000000E+00  0.00000000000E+00  0.35268761914E+04  0.35268761914E+04  0.00000000000E+00 0. -1.
         -2   -1    0    0    0  501 -0.00000000000E+00 -0.00000000000E+00 -0.56359615754E+03  0.56359615754E+03  0.00000000000E+00 0.  1.
         23    2    1    2    0    0  0.53803115395E+01 -0.51440670761E+03  0.33850948276E+04  0.34252123029E+04  0.92569536998E+02 0.  0.
         11    1    3    3    0    0  0.44412069207E+02 -0.17973278092E+03  0.12811255199E+04  0.12944338153E+04  0.00000000000E+00 0.  1.
        -11    1    3    3    0    0 -0.39031757667E+02 -0.33467392669E+03  0.21039693077E+04  0.21307784876E+04  0.00000000000E+00 0. -1.
         22    1    1    2    0    0 -0.53803115395E+01  0.51440670761E+03 -0.42181479380E+03  0.66526004604E+03  0.00000000000E+00 0.  1.
<mgrwt>
<rscale>  0 0.28197403E+04</rscale>
<asrwt>0</asrwt>
<pdfrwt beam="1">  1        2 0.54259632E+00 0.28197403E+04</pdfrwt>
<pdfrwt beam="2">  1       -2 0.86707103E-01 0.28197403E+04</pdfrwt>
<totfact> 0.77841690E-01</totfact>
</mgrwt>
</event>
<event>
 6    1  0.1780144E-005  0.4348774E+04  0.7818608E-02  0.7937660E-01
         -2   -1    0    0    0  501 -0.00000000000E+00  0.00000000000E+00  0.31587250105E+04  0.31587250105E+04  0.00000000000E+00 0.  1.
          2   -1    0    0  501    0  0.00000000000E+00 -0.00000000000E+00 -0.14967932418E+04  0.14967932418E+04  0.00000000000E+00 0. -1.
         23    2    1    2    0    0  0.19893343774E+04 -0.31189030939E+03  0.17069514468E+04  0.26413798257E+04  0.92072316604E+02 0.  0.
         13    1    3    3    0    0  0.13340690537E+04 -0.25164722621E+03  0.11364610160E+04  0.17704830435E+04  0.00000000000E+00 0. -1.
        -13    1    3    3    0    0  0.65526532378E+03 -0.60243083178E+02  0.57049043073E+03  0.87089678216E+03  0.00000000000E+00 0.  1.
         22    1    1    2    0    0 -0.19893343774E+04  0.31189030939E+03 -0.45019678057E+02  0.20141384267E+04  0.00000000000E+00 0. -1.
<mgrwt>
<rscale>  0 0.43487737E+04</rscale>
<asrwt>0</asrwt>
<pdfrwt beam="1">  1        2 0.23027588E+00 0.43487737E+04</pdfrwt>
<pdfrwt beam="2">  1       -2 0.48595769E+00 0.43487737E+04</pdfrwt>
<totfact> 0.19819790E-02</totfact>
</mgrwt>
</event>
<event>
 6    1  0.1780144E-005  0.1850706E+04  0.7818608E-02  0.8679790E-01
         -2   -1    0    0    0  501 -0.00000000000E+00  0.00000000000E+00  0.14264041593E+04  0.14264041593E+04  0.00000000000E+00 0.  1.
          2   -1    0    0  501    0  0.00000000000E+00 -0.00000000000E+00 -0.60030573303E+03  0.60030573303E+03  0.00000000000E+00 0. -1.
         23    2    1    2    0    0  0.84328870821E+03 -0.24884550553E+03  0.10724183545E+03  0.89100978701E+03  0.96631766220E+02 0.  0.
         13    1    3    3    0    0  0.13174904511E+03 -0.45322698109E+02  0.52584489293E+02  0.14891973128E+03  0.00000000000E+00 0. -1.
        -13    1    3    3    0    0  0.71153966311E+03 -0.20352280742E+03  0.54657346154E+02  0.74209005572E+03  0.00000000000E+00 0.  1.
         22    1    1    2    0    0 -0.84328870821E+03  0.24884550553E+03  0.71885659078E+03  0.11357001053E+04  0.00000000000E+00 0.  1.
<mgrwt>
<rscale>  0 0.18507065E+04</rscale>
<asrwt>0</asrwt>
<pdfrwt beam="1">  1        2 0.92354729E-01 0.18507065E+04</pdfrwt>
<pdfrwt beam="2">  1       -2 0.21944679E+00 0.18507065E+04</pdfrwt>
<totfact> 0.46404547E+00</totfact>
</mgrwt>
</event>
<event>
 6    1  0.1780144E-005  0.1187003E+04  0.7818608E-02  0.9124309E-01
          3   -1    0    0  501    0  0.00000000000E+00  0.00000000000E+00  0.64574697354E+03  0.64574697354E+03  0.00000000000E+00 0. -1.
         -3   -1    0    0    0  501 -0.00000000000E+00 -0.00000000000E+00 -0.54548320228E+03  0.54548320228E+03  0.00000000000E+00 0.  1.
         23    2    1    2    0    0 -0.46771446564E+03  0.18753197985E+03 -0.25527275432E+03  0.57452012575E+03  0.10480520480E+03 0.  0.
         13    1    3    3    0    0 -0.21803744846E+03  0.12869765554E+03 -0.16672752444E+03  0.30315257359E+03  0.00000000000E+00 0.  1.
        -13    1    3    3    0    0 -0.24967701718E+03  0.58834324308E+02 -0.88545229886E+02  0.27136755215E+03  0.00000000000E+00 0. -1.
         22    1    1    2    0    0  0.46771446564E+03 -0.18753197985E+03  0.35553652559E+03  0.61671005008E+03  0.00000000000E+00 0. -1.
<mgrwt>
<rscale>  0 0.11870032E+04</rscale>
<asrwt>0</asrwt>
<pdfrwt beam="1">  1        3 0.99345689E-01 0.11870032E+04</pdfrwt>
<pdfrwt beam="2">  1       -3 0.83920492E-01 0.11870032E+04</pdfrwt>
<totfact> 0.30045581E+00</totfact>
</mgrwt>
</event>
<event>
 6    1  0.1780144E-005  0.2841483E+04  0.7818608E-02  0.8290504E-01
          2   -1    0    0  501    0  0.00000000000E+00  0.00000000000E+00  0.22773557316E+04  0.22773557316E+04  0.00000000000E+00 0. -1.
         -2   -1    0    0    0  501 -0.00000000000E+00 -0.00000000000E+00 -0.88633747316E+03  0.88633747316E+03  0.00000000000E+00 0.  1.
         23    2    1    2    0    0 -0.12728592097E+04  0.62496214316E+03  0.62926768792E+03  0.15540310726E+04  0.91030233946E+02 0.  0.
         13    1    3    3    0    0 -0.10117166468E+04  0.47812887257E+03  0.53209971525E+03  0.12390754211E+04  0.00000000000E+00 0.  1.
        -13    1    3    3    0    0 -0.26114256291E+03  0.14683327060E+03  0.97167972669E+02  0.31495565153E+03  0.00000000000E+00 0. -1.
         22    1    1    2    0    0  0.12728592097E+04 -0.62496214316E+03  0.76175057052E+03  0.16096621322E+04  0.00000000000E+00 0.  1.
<mgrwt>
<rscale>  0 0.28414825E+04</rscale>
<asrwt>0</asrwt>
<pdfrwt beam="1">  1        2 0.35036242E+00 0.28414825E+04</pdfrwt>
<pdfrwt beam="2">  1       -2 0.13635961E+00 0.28414825E+04</pdfrwt>
<totfact> 0.15570017E+00</totfact>
</mgrwt>
</event>
<event>
 6    1  0.1780144E-005  0.2835947E+04  0.7818608E-02  0.8292194E-01
          1   -1    0    0  501    0  0.00000000000E+00  0.00000000000E+00  0.30387668705E+04  0.30387668705E+04  0.00000000000E+00 0. -1.
         -1   -1    0    0    0  501 -0.00000000000E+00 -0.00000000000E+00 -0.66166590971E+03  0.66166590971E+03  0.00000000000E+00 0.  1.
         23    2    1    2    0    0  0.39637158258E+03 -0.64515397585E+03 -0.37247000119E+03  0.84850806889E+03  0.88870451558E+02 0.  0.
         13    1    3    3    0    0  0.21403249695E+03 -0.33174370092E+03 -0.24250183850E+03  0.46332594847E+03  0.00000000000E+00 0. -1.
        -13    1    3    3    0    0  0.18233908563E+03 -0.31341027493E+03 -0.12996816269E+03  0.38518212042E+03  0.00000000000E+00 0.  1.
         22    1    1    2    0    0 -0.39637158258E+03  0.64515397585E+03  0.27495709620E+04  0.28519247113E+04  0.00000000000E+00 0. -1.
<mgrwt>
<rscale>  0 0.28359467E+04</rscale>
<asrwt>0</asrwt>
<pdfrwt beam="1">  1        1 0.46750259E+00 0.28359467E+04</pdfrwt>
<pdfrwt beam="2">  1       -1 0.10179476E+00 0.28359467E+04</pdfrwt>
<totfact> 0.44184505E-01</totfact>
</mgrwt>
</event>
<event>
 6    1  0.1780144E-005  0.2550613E+04  0.7818608E-02  0.8385173E-01
          2   -1    0    0  501    0  0.00000000000E+00  0.00000000000E+00  0.14948144545E+04  0.14948144545E+04  0.00000000000E+00 0.  1.
         -2   -1    0    0    0  501 -0.00000000000E+00 -0.00000000000E+00 -0.10880323835E+04  0.10880323835E+04  0.00000000000E+00 0. -1.
         23    2    1    2    0    0  0.51810874836E+03 -0.85420265578E+02 -0.97141014894E+03  0.11080088496E+04  0.91173660530E+02 0.  0.
         11    1    3    3    0    0  0.60303515532E+02  0.19074825138E+02 -0.10752245877E+03  0.12474550926E+03  0.00000000000E+00 0. -1.
        -11    1    3    3    0    0  0.45780523283E+03 -0.10449509072E+03 -0.86388769017E+03  0.98326334032E+03  0.00000000000E+00 0.  1.
         22    1    1    2    0    0 -0.51810874836E+03  0.85420265578E+02  0.13781922199E+04  0.14748379884E+04  0.00000000000E+00 0.  1.
<mgrwt>
<rscale>  0 0.25506129E+04</rscale>
<asrwt>0</asrwt>
<pdfrwt beam="1">  1        2 0.22997145E+00 0.25506129E+04</pdfrwt>
<pdfrwt beam="2">  1       -2 0.16738960E+00 0.25506129E+04</pdfrwt>
<totfact> 0.25258938E+00</totfact>
</mgrwt>
</event>
<event>
 6    1  0.1780144E-005  0.2107325E+04  0.7818608E-02  0.8558024E-01
          1   -1    0    0  501    0  0.00000000000E+00  0.00000000000E+00  0.12710970809E+04  0.12710970809E+04  0.00000000000E+00 0. -1.
         -1   -1    0    0    0  501 -0.00000000000E+00 -0.00000000000E+00 -0.87342235991E+03  0.87342235991E+03  0.00000000000E+00 0.  1.
         23    2    1    2    0    0  0.84808419488E+02  0.96430635241E+03 -0.21955550015E+03  0.99645482801E+03  0.87397925036E+02 0.  0.
         13    1    3    3    0    0  0.93510464293E+01  0.57887582397E+03 -0.11933907869E+03  0.59112306447E+03  0.00000000000E+00 0. -1.
        -13    1    3    3    0    0  0.75457373059E+02  0.38543052845E+03 -0.10021642147E+03  0.40533176354E+03  0.00000000000E+00 0.  1.
         22    1    1    2    0    0 -0.84808419488E+02 -0.96430635241E+03  0.61723022118E+03  0.11480646128E+04  0.00000000000E+00 0. -1.
<mgrwt>
<rscale>  0 0.21073250E+04</rscale>
<asrwt>0</asrwt>
<pdfrwt beam="1">  1        1 0.19555340E+00 0.21073250E+04</pdfrwt>
<pdfrwt beam="2">  1       -1 0.13437267E+00 0.21073250E+04</pdfrwt>
<totfact> 0.40656711E+00</totfact>
</mgrwt>
</event>
<event>
 6    1  0.1780144E-005  0.2988618E+04  0.7818608E-02  0.8246989E-01
         -2   -1    0    0    0  501 -0.00000000000E+00  0.00000000000E+00  0.19349121136E+04  0.19349121136E+04  0.00000000000E+00 0.  1.
          2   -1    0    0  501    0  0.00000000000E+00 -0.00000000000E+00 -0.11540363797E+04  0.11540363797E+04  0.00000000000E+00 0. -1.
         23    2    1    2    0    0 -0.63066283979E+03  0.11722385974E+04  0.10893746496E+04  0.17225479197E+04  0.92494657563E+02 0.  0.
         11    1    3    3    0    0 -0.22518304618E+03  0.38977348845E+03  0.42275920563E+03  0.61754038130E+03  0.00000000000E+00 0. -1.
        -11    1    3    3    0    0 -0.40547979360E+03  0.78246510893E+03  0.66661544397E+03  0.11050075384E+04  0.00000000000E+00 0.  1.
         22    1    1    2    0    0  0.63066283979E+03 -0.11722385974E+04 -0.30849891563E+03  0.13664005736E+04  0.00000000000E+00 0.  1.
<mgrwt>
<rscale>  0 0.29886177E+04</rscale>
<asrwt>0</asrwt>
<pdfrwt beam="1">  1        2 0.17754406E+00 0.29886177E+04</pdfrwt>
<pdfrwt beam="2">  1       -2 0.29767879E+00 0.29886177E+04</pdfrwt>
<totfact> 0.56802549E-01</totfact>
</mgrwt>
</event>
<event>
 6    1  0.1780144E-005  0.4160078E+04  0.7818608E-02  0.7973010E-01
         -2   -1    0    0    0  501 -0.00000000000E+00  0.00000000000E+00  0.20433367908E+04  0.20433367908E+04  0.00000000000E+00 0.  1.
          2   -1    0    0  501    0  0.00000000000E+00 -0.00000000000E+00 -0.21174002739E+04  0.21174002739E+04  0.00000000000E+00 0. -1.
         23    2    1    2    0    0 -0.12581750040E+04 -0.10183309228E+04  0.12682496710E+04  0.20579277978E+04  0.81285817432E+02 0.  0.
         13    1    3    3    0    0 -0.51015328963E+03 -0.36675796456E+03  0.47053076208E+03  0.78496304470E+03  0.00000000000E+00 0. -1.
        -13    1    3    3    0    0 -0.74802171435E+03 -0.65157295826E+03  0.79771890889E+03  0.12729647531E+04  0.00000000000E+00 0.  1.
         22    1    1    2    0    0  0.12581750040E+04  0.10183309228E+04 -0.13423131541E+04  0.21028092669E+04  0.00000000000E+00 0. -1.
<mgrwt>
<rscale>  0 0.41600778E+04</rscale>
<asrwt>0</asrwt>
<pdfrwt beam="1">  1        2 0.32575389E+00 0.41600778E+04</pdfrwt>
<pdfrwt beam="2">  1       -2 0.31435951E+00 0.41600778E+04</pdfrwt>
<totfact> 0.11607587E-01</totfact>
</mgrwt>
</event>
<event>
 6    1  0.1780144E-005  0.2709175E+04  0.7818608E-02  0.8332034E-01
         -2   -1    0    0    0  501 -0.00000000000E+00  0.00000000000E+00  0.19285629507E+04  0.19285629507E+04  0.00000000000E+00 0.  1.
          2   -1    0    0  501    0  0.00000000000E+00 -0.00000000000E+00 -0.95143742879E+03  0.95143742879E+03  0.00000000000E+00 0. -1.
         23    2    1    2    0    0 -0.86118567020E+03 -0.45256325690E+03 -0.51054107351E+03  0.11024722759E+04  0.91316325442E+02 0.  0.
         13    1    3    3    0    0 -0.20773417323E+03 -0.14635432559E+03 -0.15905658903E+03  0.29978671395E+03  0.00000000000E+00 0. -1.
        -13    1    3    3    0    0 -0.65345149696E+03 -0.30620893132E+03 -0.35148448448E+03  0.80268556193E+03  0.00000000000E+00 0.  1.
         22    1    1    2    0    0  0.86118567020E+03  0.45256325690E+03  0.14876665954E+04  0.17775281036E+04  0.00000000000E+00 0.  1.
<mgrwt>
<rscale>  0 0.27091748E+04</rscale>
<asrwt>0</asrwt>
<pdfrwt beam="1">  1        2 0.14637499E+00 0.27091748E+04</pdfrwt>
<pdfrwt beam="2">  1       -2 0.29670199E+00 0.27091748E+04</pdfrwt>
<totfact> 0.79074496E-01</totfact>
</mgrwt>
</event>
<event>
 6    1  0.1780144E-005  0.3257980E+04  0.7818608E-02  0.8173670E-01
          2   -1    0    0  501    0  0.00000000000E+00  0.00000000000E+00  0.24221546376E+04  0.24221546376E+04  0.00000000000E+00 0.  1.
         -2   -1    0    0    0  501 -0.00000000000E+00 -0.00000000000E+00 -0.10955573111E+04  0.10955573111E+04  0.00000000000E+00 0. -1.
         23    2    1    2    0    0 -0.11306385283E+04 -0.11254263366E+04  0.10130513288E+04  0.18919078357E+04  0.90079649663E+02 0.  0.
         13    1    3    3    0    0 -0.25849757386E+03 -0.30148355540E+03  0.22482182492E+03  0.45635313390E+03  0.00000000000E+00 0.  1.
        -13    1    3    3    0    0 -0.87214095449E+03 -0.82394278121E+03  0.78822950385E+03  0.14355547018E+04  0.00000000000E+00 0. -1.
         22    1    1    2    0    0  0.11306385283E+04  0.11254263366E+04  0.31354599770E+03  0.16258041129E+04  0.00000000000E+00 0. -1.
<mgrwt>
<rscale>  0 0.32579805E+04</rscale>
<asrwt>0</asrwt>
<pdfrwt beam="1">  1        2 0.37263917E+00 0.32579805E+04</pdfrwt>
<pdfrwt beam="2">  1       -2 0.16854728E+00 0.32579805E+04</pdfrwt>
<totfact> 0.70618730E-01</totfact>
</mgrwt>
</event>
<event>
 6    1  0.1780144E-005  0.4319028E+04  0.7818608E-02  0.7943109E-01
          1   -1    0    0  501    0  0.00000000000E+00  0.00000000000E+00  0.46654292407E+04  0.46654292407E+04  0.00000000000E+00 0. -1.
         -1   -1    0    0    0  501 -0.00000000000E+00 -0.00000000000E+00 -0.99958679687E+03  0.99958679687E+03  0.00000000000E+00 0.  1.
         23    2    1    2    0    0  0.77096955693E+03  0.92546115024E+03  0.41831859596E+04  0.43540939531E+04  0.90647570696E+02 0.  0.
         11    1    3    3    0    0  0.10643315479E+02  0.35862483292E+02  0.11446511036E+03  0.12042283572E+03  0.00000000000E+00 0. -1.
        -11    1    3    3    0    0  0.76032624145E+03  0.88959866695E+03  0.40687208492E+04  0.42336711174E+04  0.00000000000E+00 0.  1.
         22    1    1    2    0    0 -0.77096955693E+03 -0.92546115024E+03 -0.51734351570E+03  0.13109220845E+04  0.00000000000E+00 0.  1.
<mgrwt>
<rscale>  0 0.43190283E+04</rscale>
<asrwt>0</asrwt>
<pdfrwt beam="1">  1        1 0.71775833E+00 0.43190283E+04</pdfrwt>
<pdfrwt beam="2">  1       -1 0.15378259E+00 0.43190283E+04</pdfrwt>
<totfact> 0.53043092E-03</totfact>
</mgrwt>
</event>
<event>
 6    1  0.1780144E-005  0.1768649E+04  0.7818608E-02  0.8723152E-01
         -2   -1    0    0    0  501 -0.00000000000E+00  0.00000000000E+00  0.32315142662E+03  0.32315142662E+03  0.00000000000E+00 0. -1.
          2   -1    0    0  501    0  0.00000000000E+00 -0.00000000000E+00 -0.24200094436E+04  0.24200094436E+04  0.00000000000E+00 0.  1.
         23    2    1    2    0    0 -0.66172122009E+01 -0.47565513934E+03 -0.22030746369E+04  0.22557456782E+04  0.92515456491E+02 0.  0.
         13    1    3    3    0    0  0.31006128176E+02 -0.63333583032E+02 -0.33367778440E+03  0.34104748427E+03  0.00000000000E+00 0. -1.
        -13    1    3    3    0    0 -0.37623340377E+02 -0.41232155631E+03 -0.18693968525E+04  0.19146981939E+04  0.00000000000E+00 0.  1.
         22    1    1    2    0    0  0.66172122009E+01  0.47565513934E+03  0.10621661994E+03  0.48741519204E+03  0.00000000000E+00 0. -1.
<mgrwt>
<rscale>  0 0.17686486E+04</rscale>
<asrwt>0</asrwt>
<pdfrwt beam="1">  1        2 0.37230914E+00 0.17686486E+04</pdfrwt>
<pdfrwt beam="2">  1       -2 0.49715605E-01 0.17686486E+04</pdfrwt>
<totfact> 0.14043173E+01</totfact>
</mgrwt>
</event>
<event>
 6    1  0.1780144E-005  0.2230705E+04  0.7818608E-02  0.8505756E-01
          1   -1    0    0  501    0  0.00000000000E+00  0.00000000000E+00  0.18253849346E+04  0.18253849346E+04  0.00000000000E+00 0. -1.
         -1   -1    0    0    0  501 -0.00000000000E+00 -0.00000000000E+00 -0.68150618318E+03  0.68150618318E+03  0.00000000000E+00 0.  1.
         23    2    1    2    0    0 -0.26975998097E+03 -0.97086668001E+03  0.40417525512E+02  0.10125754768E+04  0.91230270413E+02 0.  0.
         13    1    3    3    0    0 -0.16718348896E+03 -0.73577631282E+03  0.47035206609E+02  0.75599564294E+03  0.00000000000E+00 0.  1.
        -13    1    3    3    0    0 -0.10257649201E+03 -0.23509036719E+03 -0.66176810971E+01  0.25657983390E+03  0.00000000000E+00 0. -1.
         22    1    1    2    0    0  0.26975998097E+03  0.97086668001E+03  0.11034612259E+04  0.14943156409E+04  0.00000000000E+00 0. -1.
<mgrwt>
<rscale>  0 0.22307049E+04</rscale>
<asrwt>0</asrwt>
<pdfrwt beam="1">  1        1 0.28082845E+00 0.22307049E+04</pdfrwt>
<pdfrwt beam="2">  1       -1 0.10484711E+00 0.22307049E+04</pdfrwt>
<totfact> 0.30408717E+00</totfact>
</mgrwt>
</event>
<event>
 6    1  0.1780144E-005  0.2407074E+04  0.7818608E-02  0.8436860E-01
         -2   -1    0    0    0  501 -0.00000000000E+00  0.00000000000E+00  0.49862533319E+03  0.49862533319E+03  0.00000000000E+00 0.  1.
          2   -1    0    0  501    0  0.00000000000E+00 -0.00000000000E+00 -0.29049897643E+04  0.29049897643E+04  0.00000000000E+00 0. -1.
         23    2    1    2    0    0  0.39728746201E+03  0.74039415592E+03  0.10125886998E+02  0.84520811441E+03  0.90848167218E+02 0.  0.
         11    1    3    3    0    0  0.18245379849E+03  0.43364115919E+03 -0.31484765765E+01  0.47047205701E+03  0.00000000000E+00 0. -1.
        -11    1    3    3    0    0  0.21483366352E+03  0.30675299674E+03  0.13274363575E+02  0.37473605740E+03  0.00000000000E+00 0.  1.
         22    1    1    2    0    0 -0.39728746201E+03 -0.74039415592E+03 -0.24164903181E+04  0.25584069831E+04  0.00000000000E+00 0. -1.
<mgrwt>
<rscale>  0 0.24070741E+04</rscale>
<asrwt>0</asrwt>
<pdfrwt beam="1">  1        2 0.44692150E+00 0.24070741E+04</pdfrwt>
<pdfrwt beam="2">  1       -2 0.76711590E-01 0.24070741E+04</pdfrwt>
<totfact> 0.27233629E+00</totfact>
</mgrwt>
</event>
<event>
 6    1  0.1780144E-005  0.1685022E+04  0.7818608E-02  0.8769953E-01
         -1   -1    0    0    0  501 -0.00000000000E+00  0.00000000000E+00  0.17684283034E+04  0.17684283034E+04  0.00000000000E+00 0.  1.
          1   -1    0    0  501    0  0.00000000000E+00 -0.00000000000E+00 -0.40138724392E+03  0.40138724392E+03  0.00000000000E+00 0. -1.
         23    2    1    2    0    0 -0.74540597917E+03 -0.28169757570E+03  0.10275891451E+04  0.13036682157E+04  0.92885776350E+02 0.  0.
         11    1    3    3    0    0 -0.46637450789E+03 -0.21956706493E+03  0.63088020009E+03  0.81469301242E+03  0.00000000000E+00 0. -1.
        -11    1    3    3    0    0 -0.27903147128E+03 -0.62130510768E+02  0.39670894505E+03  0.48897520327E+03  0.00000000000E+00 0.  1.
         22    1    1    2    0    0  0.74540597917E+03  0.28169757570E+03  0.33945191433E+03  0.86614733162E+03  0.00000000000E+00 0. -1.
<mgrwt>
<rscale>  0 0.16850217E+04</rscale>
<asrwt>0</asrwt>
<pdfrwt beam="1">  1        1 0.61751885E-01 0.16850217E+04</pdfrwt>
<pdfrwt beam="2">  1       -1 0.27206589E+00 0.16850217E+04</pdfrwt>
<totfact> 0.28528473E+00</totfact>
</mgrwt>
</event>
<event>
 6    1  0.1780144E-005  0.1909365E+04  0.7818608E-02  0.8650209E-01
         -1   -1    0    0    0  501 -0.00000000000E+00  0.00000000000E+00  0.77429219591E+03  0.77429219591E+03  0.00000000000E+00 0.  1.
          1   -1    0    0  501    0  0.00000000000E+00 -0.00000000000E+00 -0.11770994310E+04  0.11770994310E+04  0.00000000000E+00 0. -1.
         23    2    1    2    0    0  0.54796842000E+03 -0.28543505603E+02 -0.99751310293E+03  0.11422197106E+04  0.92462726166E+02 0.  0.
         11    1    3    3    0    0  0.47986460712E+03  0.23739233679E+01 -0.82934784567E+03  0.95817197089E+03  0.00000000000E+00 0.  1.
        -11    1    3    3    0    0  0.68103812886E+02 -0.30917428971E+02 -0.16816525725E+03  0.18404773971E+03  0.00000000000E+00 0. -1.
         22    1    1    2    0    0 -0.54796842000E+03  0.28543505603E+02  0.59470586779E+03  0.80917191636E+03  0.00000000000E+00 0.  1.
<mgrwt>
<rscale>  0 0.19093652E+04</rscale>
<asrwt>0</asrwt>
<pdfrwt beam="1">  1        1 0.18109222E+00 0.19093652E+04</pdfrwt>
<pdfrwt beam="2">  1       -1 0.11912188E+00 0.19093652E+04</pdfrwt>
<totfact> 0.65461732E+00</totfact>
</mgrwt>
</event>
<event>
 6    1  0.1780144E-005  0.1443611E+04  0.7818608E-02  0.8922842E-01
          1   -1    0    0  501    0  0.00000000000E+00  0.00000000000E+00  0.26573115106E+03  0.26573115106E+03  0.00000000000E+00 0. -1.
         -1   -1    0    0    0  501 -0.00000000000E+00 -0.00000000000E+00 -0.19606403016E+04  0.19606403016E+04  0.00000000000E+00 0.  1.
         23    2    1    2    0    0 -0.28933731373E+03  0.62337100872E+03 -0.11753945690E+04  0.13648594701E+04  0.94770695833E+02 0.  0.
         11    1    3    3    0    0 -0.12131508664E+03  0.36969099210E+03 -0.63694132973E+03  0.74637995512E+03  0.00000000000E+00 0. -1.
        -11    1    3    3    0    0 -0.16802222709E+03  0.25368001661E+03 -0.53845323924E+03  0.61847951500E+03  0.00000000000E+00 0.  1.
         22    1    1    2    0    0  0.28933731373E+03 -0.62337100872E+03 -0.51951458161E+03  0.86151198258E+03  0.00000000000E+00 0. -1.
<mgrwt>
<rscale>  0 0.14436110E+04</rscale>
<asrwt>0</asrwt>
<pdfrwt beam="1">  1        1 0.40881716E-01 0.14436110E+04</pdfrwt>
<pdfrwt beam="2">  1       -1 0.30163697E+00 0.14436110E+04</pdfrwt>
<totfact> 0.32266262E+00</totfact>
</mgrwt>
</event>
<event>
 6    1  0.1780144E-005  0.5796727E+03  0.7818608E-02  0.9948500E-01
         -2   -1    0    0    0  501 -0.00000000000E+00  0.00000000000E+00  0.32412136076E+03  0.32412136076E+03  0.00000000000E+00 0.  1.
          2   -1    0    0  501    0  0.00000000000E+00 -0.00000000000E+00 -0.25917793068E+03  0.25917793068E+03  0.00000000000E+00 0. -1.
         23    2    1    2    0    0  0.26878865915E+03 -0.49742638513E+01 -0.54908729147E+02  0.28895828741E+03  0.90608149401E+02 0.  0.
         13    1    3    3    0    0  0.96669048477E+02 -0.39723241459E+02 -0.42839833019E+02  0.11295172482E+03  0.00000000000E+00 0. -1.
        -13    1    3    3    0    0  0.17211961067E+03  0.34748977608E+02 -0.12068896128E+02  0.17600656259E+03  0.00000000000E+00 0.  1.
         22    1    1    2    0    0 -0.26878865915E+03  0.49742638513E+01  0.11985215922E+03  0.29434100404E+03  0.00000000000E+00 0.  1.
<mgrwt>
<rscale>  0 0.57967268E+03</rscale>
<asrwt>0</asrwt>
<pdfrwt beam="1">  1        2 0.39873528E-01 0.57967268E+03</pdfrwt>
<pdfrwt beam="2">  1       -2 0.49864825E-01 0.57967268E+03</pdfrwt>
<totfact> 0.49599248E+02</totfact>
</mgrwt>
</event>
<event>
 6    1  0.1780144E-005  0.7817397E+03  0.7818608E-02  0.9586831E-01
         -1   -1    0    0    0  501 -0.00000000000E+00  0.00000000000E+00  0.16444623456E+03  0.16444623456E+03  0.00000000000E+00 0.  1.
          1   -1    0    0  501    0  0.00000000000E+00 -0.00000000000E+00 -0.92905281070E+03  0.92905281070E+03  0.00000000000E+00 0. -1.
         23    2    1    2    0    0  0.18855721842E+03  0.70363093387E+01  0.84455099377E+02  0.22372375066E+03  0.85535481133E+02 0.  0.
         11    1    3    3    0    0  0.94614703453E+02 -0.33466403583E+02  0.65052073316E+02  0.11959813762E+03  0.00000000000E+00 0. -1.
        -11    1    3    3    0    0  0.93942514968E+02  0.40502712922E+02  0.19403026061E+02  0.10412561305E+03  0.00000000000E+00 0.  1.
         22    1    1    2    0    0 -0.18855721842E+03 -0.70363093387E+01 -0.84906167551E+03  0.86977529460E+03  0.00000000000E+00 0. -1.
<mgrwt>
<rscale>  0 0.78173969E+03</rscale>
<asrwt>0</asrwt>
<pdfrwt beam="1">  1        1 0.14293120E+00 0.78173969E+03</pdfrwt>
<pdfrwt beam="2">  1       -1 0.25299421E-01 0.78173969E+03</pdfrwt>
<totfact> 0.23885436E+02</totfact>
</mgrwt>
</event>
<event>
 6    1  0.1780144E-005  0.2574789E+04  0.7818608E-02  0.8376815E-01
          2   -1    0    0  501    0  0.00000000000E+00  0.00000000000E+00  0.36996778696E+04  0.36996778696E+04  0.00000000000E+00 0. -1.
         -2   -1    0    0    0  501 -0.00000000000E+00 -0.00000000000E+00 -0.44798090021E+03  0.44798090021E+03  0.00000000000E+00 0.  1.
         23    2    1    2    0    0  0.80217897940E+03 -0.15267834483E+02  0.94903084937E+01  0.80765454021E+03  0.92149707583E+02 0.  0.
         11    1    3    3    0    0  0.34510963386E+03 -0.50683067139E+02 -0.76425036066E+01  0.34889517127E+03  0.00000000000E+00 0.  1.
        -11    1    3    3    0    0  0.45706934555E+03  0.35415232656E+02  0.17132812100E+02  0.45875936894E+03  0.00000000000E+00 0. -1.
         22    1    1    2    0    0 -0.80217897940E+03  0.15267834483E+02  0.32422066608E+04  0.33400042295E+04  0.00000000000E+00 0. -1.
<mgrwt>
<rscale>  0 0.25747893E+04</rscale>
<asrwt>0</asrwt>
<pdfrwt beam="1">  1        2 0.56918119E+00 0.25747893E+04</pdfrwt>
<pdfrwt beam="2">  1       -2 0.68920141E-01 0.25747893E+04</pdfrwt>
<totfact> 0.99699890E-01</totfact>
</mgrwt>
</event>
<event>
 6    1  0.1780144E-005  0.3236893E+04  0.7818608E-02  0.8179141E-01
          2   -1    0    0  501    0  0.00000000000E+00  0.00000000000E+00  0.17336359606E+04  0.17336359606E+04  0.00000000000E+00 0. -1.
         -2   -1    0    0    0  501 -0.00000000000E+00 -0.00000000000E+00 -0.15109110428E+04  0.15109110428E+04  0.00000000000E+00 0.  1.
         23    2    1    2    0    0  0.67928944856E+03  0.14673508331E+04  0.13253645572E+03  0.16250759228E+04  0.93558647416E+02 0.  0.
         11    1    3    3    0    0  0.16719471775E+03  0.41098385768E+03  0.72672779212E+02  0.44960331155E+03  0.00000000000E+00 0. -1.
        -11    1    3    3    0    0  0.51209473081E+03  0.10563669754E+04  0.59863676509E+02  0.11754726112E+04  0.00000000000E+00 0.  1.
         22    1    1    2    0    0 -0.67928944856E+03 -0.14673508331E+04  0.90188462090E+02  0.16194710806E+04  0.00000000000E+00 0.  1.
<mgrwt>
<rscale>  0 0.32368934E+04</rscale>
<asrwt>0</asrwt>
<pdfrwt beam="1">  1        2 0.26671323E+00 0.32368934E+04</pdfrwt>
<pdfrwt beam="2">  1       -2 0.23244785E+00 0.32368934E+04</pdfrwt>
<totfact> 0.65091224E-01</totfact>
</mgrwt>
</event>
<event>
 6    1  0.1780144E-005  0.7358388E+03  0.7818608E-02  0.9657833E-01
          3   -1    0    0  501    0  0.00000000000E+00  0.00000000000E+00  0.19553668881E+03  0.19553668881E+03  0.00000000000E+00 0. -1.
         -3   -1    0    0    0  501 -0.00000000000E+00 -0.00000000000E+00 -0.69227250375E+03  0.69227250375E+03  0.00000000000E+00 0.  1.
         23    2    1    2    0    0  0.35595733129E+03  0.68522516026E+02 -0.25539041251E+03  0.45232261392E+03  0.89277810010E+02 0.  0.
         13    1    3    3    0    0  0.22605076861E+03  0.79872949975E+01 -0.12430951793E+03  0.25809998667E+03  0.00000000000E+00 0.  1.
        -13    1    3    3    0    0  0.12990656268E+03  0.60535221029E+02 -0.13108089459E+03  0.19422262726E+03  0.00000000000E+00 0. -1.
         22    1    1    2    0    0 -0.35595733129E+03 -0.68522516026E+02 -0.24134540243E+03  0.43548657864E+03  0.00000000000E+00 0. -1.
<mgrwt>
<rscale>  0 0.73583877E+03</rscale>
<asrwt>0</asrwt>
<pdfrwt beam="1">  1        3 0.30082567E-01 0.73583877E+03</pdfrwt>
<pdfrwt beam="2">  1       -3 0.10650346E+00 0.73583877E+03</pdfrwt>
<totfact> 0.21414692E+01</totfact>
</mgrwt>
</event>
<event>
 6    1  0.1780144E-005  0.4803308E+04  0.7818608E-02  0.7859586E-01
          1   -1    0    0  501    0  0.00000000000E+00  0.00000000000E+00  0.37924933848E+04  0.37924933848E+04  0.00000000000E+00 0. -1.
         -1   -1    0    0    0  501 -0.00000000000E+00 -0.00000000000E+00 -0.15208841153E+04  0.15208841153E+04  0.00000000000E+00 0.  1.
         23    2    1    2    0    0  0.21971309689E+04 -0.95469198483E+03  0.96031052627E+03  0.25823839675E+04  0.87689043929E+02 0.  0.
         13    1    3    3    0    0  0.97931812544E+03 -0.42002919854E+03  0.38059948874E+03  0.11315230838E+04  0.00000000000E+00 0.  1.
        -13    1    3    3    0    0  0.12178128435E+04 -0.53466278629E+03  0.57971103753E+03  0.14508608837E+04  0.00000000000E+00 0. -1.
         22    1    1    2    0    0 -0.21971309689E+04  0.95469198483E+03  0.13112987432E+04  0.27309935325E+04  0.00000000000E+00 0. -1.
<mgrwt>
<rscale>  0 0.48033084E+04</rscale>
<asrwt>0</asrwt>
<pdfrwt beam="1">  1        1 0.58346052E+00 0.48033084E+04</pdfrwt>
<pdfrwt beam="2">  1       -1 0.23398217E+00 0.48033084E+04</pdfrwt>
<totfact> 0.93969039E-03</totfact>
</mgrwt>
</event>
<event>
 6    1  0.1780144E-005  0.1207112E+04  0.7818608E-02  0.9106655E-01
          2   -1    0    0  501    0  0.00000000000E+00  0.00000000000E+00  0.17079820490E+04  0.17079820490E+04  0.00000000000E+00 0. -1.
         -2   -1    0    0    0  501 -0.00000000000E+00 -0.00000000000E+00 -0.21328067433E+03  0.21328067433E+03  0.00000000000E+00 0.  1.
         23    2    1    2    0    0  0.41749305112E+03  0.70754321014E+02  0.74812401086E+02  0.43957742644E+03  0.91240324437E+02 0.  0.
         13    1    3    3    0    0  0.26735730139E+03  0.71177242455E+02  0.12288794090E+02  0.27694248665E+03  0.00000000000E+00 0. -1.
        -13    1    3    3    0    0  0.15013574973E+03 -0.42292144093E+00  0.62523606996E+02  0.16263493979E+03  0.00000000000E+00 0.  1.
         22    1    1    2    0    0 -0.41749305112E+03 -0.70754321014E+02  0.14198889736E+04  0.14816852969E+04  0.00000000000E+00 0. -1.
<mgrwt>
<rscale>  0 0.12071115E+04</rscale>
<asrwt>0</asrwt>
<pdfrwt beam="1">  1        2 0.26276646E+00 0.12071115E+04</pdfrwt>
<pdfrwt beam="2">  1       -2 0.32812413E-01 0.12071115E+04</pdfrwt>
<totfact> 0.82931830E+01</totfact>
</mgrwt>
</event>
<event>
 6    1  0.1780144E-005  0.2749785E+04  0.7818608E-02  0.8319030E-01
         -2   -1    0    0    0  501 -0.00000000000E+00  0.00000000000E+00  0.64537867131E+03  0.64537867131E+03  0.00000000000E+00 0.  1.
          2   -1    0    0  501    0  0.00000000000E+00 -0.00000000000E+00 -0.29290234438E+04  0.29290234438E+04  0.00000000000E+00 0. -1.
         23    2    1    2    0    0 -0.13448788247E+04 -0.85993801863E+02 -0.79901858198E+03  0.15693562521E+04  0.91402214296E+02 0.  0.
         11    1    3    3    0    0 -0.84756856200E+03 -0.42004801176E+02 -0.55192646488E+03  0.10123041506E+04  0.00000000000E+00 0.  1.
        -11    1    3    3    0    0 -0.49731026268E+03 -0.43989000687E+02 -0.24709211710E+03  0.55705210158E+03  0.00000000000E+00 0. -1.
         22    1    1    2    0    0  0.13448788247E+04  0.85993801863E+02 -0.14846261905E+04  0.20050458630E+04  0.00000000000E+00 0. -1.
<mgrwt>
<rscale>  0 0.27497849E+04</rscale>
<asrwt>0</asrwt>
<pdfrwt beam="1">  1        2 0.45061899E+00 0.27497849E+04</pdfrwt>
<pdfrwt beam="2">  1       -2 0.99289026E-01 0.27497849E+04</pdfrwt>
<totfact> 0.14145480E+00</totfact>
</mgrwt>
</event>
<event>
 6    1  0.1780144E-005  0.3859008E+04  0.7818608E-02  0.8033609E-01
         -2   -1    0    0    0  501 -0.00000000000E+00  0.00000000000E+00  0.30618472516E+04  0.30618472516E+04  0.00000000000E+00 0.  1.
          2   -1    0    0  501    0  0.00000000000E+00 -0.00000000000E+00 -0.12159280753E+04  0.12159280753E+04  0.00000000000E+00 0. -1.
         23    2    1    2    0    0 -0.39169970769E+03  0.70700330305E+03  0.28643678530E+04  0.29775753274E+04  0.89829290869E+02 0.  0.
         11    1    3    3    0    0 -0.26533129479E+03  0.53149794223E+03  0.19834196602E+04  0.20704695861E+04  0.00000000000E+00 0. -1.
        -11    1    3    3    0    0 -0.12636841290E+03  0.17550536081E+03  0.88094819283E+03  0.90710574130E+03  0.00000000000E+00 0.  1.
         22    1    1    2    0    0  0.39169970769E+03 -0.70700330305E+03 -0.10184486767E+04  0.13001999995E+04  0.00000000000E+00 0. -1.
<mgrwt>
<rscale>  0 0.38590082E+04</rscale>
<asrwt>0</asrwt>
<pdfrwt beam="1">  1        2 0.18706586E+00 0.38590082E+04</pdfrwt>
<pdfrwt beam="2">  1       -2 0.47105342E+00 0.38590082E+04</pdfrwt>
<totfact> 0.37316299E-02</totfact>
</mgrwt>
</event>
<event>
 6    1  0.1780144E-005  0.2444411E+04  0.7818608E-02  0.8423061E-01
          2   -1    0    0  501    0  0.00000000000E+00  0.00000000000E+00  0.19620268074E+04  0.19620268074E+04  0.00000000000E+00 0. -1.
         -2   -1    0    0    0  501 -0.00000000000E+00 -0.00000000000E+00 -0.76134873742E+03  0.76134873742E+03  0.00000000000E+00 0.  1.
         23    2    1    2    0    0  0.47364501473E+02 -0.11989952397E+04  0.35582575001E+03  0.12558577687E+04  0.10360400539E+03 0.  0.
         13    1    3    3    0    0  0.75954122434E+02 -0.83577270474E+03  0.22656799301E+03  0.86926296261E+03  0.00000000000E+00 0.  1.
        -13    1    3    3    0    0 -0.28589620961E+02 -0.36322253495E+03  0.12925775700E+03  0.38659480605E+03  0.00000000000E+00 0. -1.
         22    1    1    2    0    0 -0.47364501473E+02  0.11989952397E+04  0.84485231998E+03  0.14675177762E+04  0.00000000000E+00 0.  1.
<mgrwt>
<rscale>  0 0.24444113E+04</rscale>
<asrwt>0</asrwt>
<pdfrwt beam="1">  1        2 0.30185028E+00 0.24444113E+04</pdfrwt>
<pdfrwt beam="2">  1       -2 0.11713058E+00 0.24444113E+04</pdfrwt>
<totfact> 0.35428015E+00</totfact>
</mgrwt>
</event>
<event>
 6    1  0.1780144E-005  0.1259670E+04  0.7818608E-02  0.9062173E-01
         -2   -1    0    0    0  501 -0.00000000000E+00  0.00000000000E+00  0.15385980071E+03  0.15385980071E+03  0.00000000000E+00 0. -1.
          2   -1    0    0  501    0  0.00000000000E+00 -0.00000000000E+00 -0.25782691978E+04  0.25782691978E+04  0.00000000000E+00 0.  1.
         23    2    1    2    0    0  0.29892053096E+03  0.45499749865E+03 -0.54752306522E+03  0.77788272171E+03  0.94571740895E+02 0.  0.
         13    1    3    3    0    0  0.18363959568E+03  0.20147579259E+03 -0.29897650323E+03  0.40460220661E+03  0.00000000000E+00 0. -1.
        -13    1    3    3    0    0  0.11528093528E+03  0.25352170605E+03 -0.24854656199E+03  0.37328051510E+03  0.00000000000E+00 0.  1.
         22    1    1    2    0    0 -0.29892053096E+03 -0.45499749865E+03 -0.18768863319E+04  0.19542462768E+04  0.00000000000E+00 0.  1.
<mgrwt>
<rscale>  0 0.12596698E+04</rscale>
<asrwt>0</asrwt>
<pdfrwt beam="1">  1        2 0.39665681E+00 0.12596698E+04</pdfrwt>
<pdfrwt beam="2">  1       -2 0.23670738E-01 0.12596698E+04</pdfrwt>
<totfact> 0.49085359E+01</totfact>
</mgrwt>
</event>
<event>
 6    1  0.1780144E-005  0.3336434E+04  0.7818608E-02  0.8153686E-01
         -1   -1    0    0    0  501 -0.00000000000E+00  0.00000000000E+00  0.17234399756E+04  0.17234399756E+04  0.00000000000E+00 0.  1.
          1   -1    0    0  501    0  0.00000000000E+00 -0.00000000000E+00 -0.16147633113E+04  0.16147633113E+04  0.00000000000E+00 0. -1.
         23    2    1    2    0    0  0.44374456407E+03  0.42483428990E+03  0.16048735145E+04  0.17207984438E+04  0.90193539103E+02 0.  0.
         13    1    3    3    0    0  0.21889793459E+03  0.15234612879E+03  0.73748773291E+03  0.78422815871E+03  0.00000000000E+00 0.  1.
        -13    1    3    3    0    0  0.22484662948E+03  0.27248816112E+03  0.86738578163E+03  0.93657028509E+03  0.00000000000E+00 0. -1.
         22    1    1    2    0    0 -0.44374456407E+03 -0.42483428990E+03 -0.14961968502E+04  0.16174048431E+04  0.00000000000E+00 0. -1.
<mgrwt>
<rscale>  0 0.33364338E+04</rscale>
<asrwt>0</asrwt>
<pdfrwt beam="1">  1        1 0.24842512E+00 0.33364338E+04</pdfrwt>
<pdfrwt beam="2">  1       -1 0.26514461E+00 0.33364338E+04</pdfrwt>
<totfact> 0.25049414E-01</totfact>
</mgrwt>
</event>
<event>
 6    1  0.1780144E-005  0.1975419E+04  0.7818608E-02  0.8618200E-01
          1   -1    0    0  501    0  0.00000000000E+00  0.00000000000E+00  0.12942849491E+04  0.12942849491E+04  0.00000000000E+00 0. -1.
         -1   -1    0    0    0  501 -0.00000000000E+00 -0.00000000000E+00 -0.75375227930E+03  0.75375227930E+03  0.00000000000E+00 0.  1.
         23    2    1    2    0    0  0.67176373623E+03  0.42475548752E+03  0.87591922132E+03  0.11853855719E+04  0.78871606173E+02 0.  0.
         13    1    3    3    0    0  0.26849468196E+03  0.12507304292E+03  0.33205186875E+03  0.44496191280E+03  0.00000000000E+00 0.  1.
        -13    1    3    3    0    0  0.40326905427E+03  0.29968244460E+03  0.54386735257E+03  0.74042365908E+03  0.00000000000E+00 0. -1.
         22    1    1    2    0    0 -0.67176373623E+03 -0.42475548752E+03 -0.33538655154E+03  0.86265165650E+03  0.00000000000E+00 0.  1.
<mgrwt>
<rscale>  0 0.19754192E+04</rscale>
<asrwt>0</asrwt>
<pdfrwt beam="1">  1        1 0.19912076E+00 0.19754192E+04</pdfrwt>
<pdfrwt beam="2">  1       -1 0.11596189E+00 0.19754192E+04</pdfrwt>
<totfact> 0.57112823E+00</totfact>
</mgrwt>
</event>
<event>
 6    1  0.1780144E-005  0.2937592E+04  0.7818608E-02  0.8261780E-01
         -1   -1    0    0    0  501 -0.00000000000E+00  0.00000000000E+00  0.17312724631E+04  0.17312724631E+04  0.00000000000E+00 0.  1.
          1   -1    0    0  501    0  0.00000000000E+00 -0.00000000000E+00 -0.12461131164E+04  0.12461131164E+04  0.00000000000E+00 0. -1.
         23    2    1    2    0    0  0.30608963804E+03  0.11614604563E+04  0.10972789483E+04  0.16292863009E+04  0.88721484910E+02 0.  0.
         11    1    3    3    0    0  0.23319792768E+03  0.98686119350E+03  0.89813859832E+03  0.13545955967E+04  0.00000000000E+00 0. -1.
        -11    1    3    3    0    0  0.72891710364E+02  0.17459926283E+03  0.19914034999E+03  0.27469070427E+03  0.00000000000E+00 0.  1.
         22    1    1    2    0    0 -0.30608963804E+03 -0.11614604563E+04 -0.61211960163E+03  0.13480992786E+04  0.00000000000E+00 0. -1.
<mgrwt>
<rscale>  0 0.29375918E+04</rscale>
<asrwt>0</asrwt>
<pdfrwt beam="1">  1        1 0.19170971E+00 0.29375918E+04</pdfrwt>
<pdfrwt beam="2">  1       -1 0.26634961E+00 0.29375918E+04</pdfrwt>
<totfact> 0.46174285E-01</totfact>
</mgrwt>
</event>
<event>
 6    1  0.1780144E-005  0.2706036E+04  0.7818608E-02  0.8333049E-01
         -2   -1    0    0    0  501 -0.00000000000E+00  0.00000000000E+00  0.32316364971E+04  0.32316364971E+04  0.00000000000E+00 0.  1.
          2   -1    0    0  501    0  0.00000000000E+00 -0.00000000000E+00 -0.56648022315E+03  0.56648022315E+03  0.00000000000E+00 0. -1.
         23    2    1    2    0    0 -0.18274410027E+03 -0.62710237879E+03 -0.32632981846E+03  0.73614973142E+03  0.93661502151E+02 0.  0.
         11    1    3    3    0    0 -0.11311011952E+03 -0.34380176667E+03 -0.23042910235E+03  0.42905841690E+03  0.00000000000E+00 0.  1.
        -11    1    3    3    0    0 -0.69633980750E+02 -0.28330061212E+03 -0.95900716108E+02  0.30709131452E+03  0.00000000000E+00 0. -1.
         22    1    1    2    0    0  0.18274410027E+03  0.62710237879E+03  0.29914860924E+04  0.30619669889E+04  0.00000000000E+00 0.  1.
<mgrwt>
<rscale>  0 0.27060363E+04</rscale>
<asrwt>0</asrwt>
<pdfrwt beam="1">  1        2 0.87150805E-01 0.27060363E+04</pdfrwt>
<pdfrwt beam="2">  1       -2 0.49717483E+00 0.27060363E+04</pdfrwt>
<totfact> 0.79755820E-02</totfact>
</mgrwt>
</event>
<event>
 6    1  0.1780144E-005  0.4295020E+04  0.7818608E-02  0.7947540E-01
         -2   -1    0    0    0  501 -0.00000000000E+00  0.00000000000E+00  0.32975249198E+04  0.32975249198E+04  0.00000000000E+00 0.  1.
          2   -1    0    0  501    0  0.00000000000E+00 -0.00000000000E+00 -0.13985637225E+04  0.13985637225E+04  0.00000000000E+00 0. -1.
         23    2    1    2    0    0  0.10146335628E+04  0.17343115672E+04  0.12411705683E+03  0.20151579081E+04  0.90213478823E+02 0.  0.
         11    1    3    3    0    0  0.66856457341E+03  0.12194180062E+04  0.10127470739E+03  0.13943512574E+04  0.00000000000E+00 0.  1.
        -11    1    3    3    0    0  0.34606898942E+03  0.51489356098E+03  0.22842349434E+02  0.62080665066E+03  0.00000000000E+00 0. -1.
         22    1    1    2    0    0 -0.10146335628E+04 -0.17343115672E+04  0.17748441404E+04  0.26809307342E+04  0.00000000000E+00 0.  1.
<mgrwt>
<rscale>  0 0.42950198E+04</rscale>
<asrwt>0</asrwt>
<pdfrwt beam="1">  1        2 0.21516365E+00 0.42950198E+04</pdfrwt>
<pdfrwt beam="2">  1       -2 0.50731152E+00 0.42950198E+04</pdfrwt>
<totfact> 0.16663343E-02</totfact>
</mgrwt>
</event>
<event>
 6    1  0.1780144E-005  0.3127085E+04  0.7818608E-02  0.8208344E-01
         -2   -1    0    0    0  501 -0.00000000000E+00  0.00000000000E+00  0.66044935604E+03  0.66044935604E+03  0.00000000000E+00 0.  1.
          2   -1    0    0  501    0  0.00000000000E+00 -0.00000000000E+00 -0.37015178702E+04  0.37015178702E+04  0.00000000000E+00 0. -1.
         23    2    1    2    0    0  0.19948463703E+03  0.82580386811E+03  0.30688420680E+03  0.90790677935E+03  0.91491281592E+02 0.  0.
         13    1    3    3    0    0  0.13299910967E+03  0.37908627125E+03  0.12160496372E+03  0.41974150548E+03  0.00000000000E+00 0.  1.
        -13    1    3    3    0    0  0.66485527364E+02  0.44671759686E+03  0.18527924308E+03  0.48816527386E+03  0.00000000000E+00 0. -1.
         22    1    1    2    0    0 -0.19948463703E+03 -0.82580386811E+03 -0.33479527209E+04  0.34540604468E+04  0.00000000000E+00 0. -1.
<mgrwt>
<rscale>  0 0.31270850E+04</rscale>
<asrwt>0</asrwt>
<pdfrwt beam="1">  1        2 0.56946428E+00 0.31270850E+04</pdfrwt>
<pdfrwt beam="2">  1       -2 0.10160760E+00 0.31270850E+04</pdfrwt>
<totfact> 0.39172114E-01</totfact>
</mgrwt>
</event>
<event>
 6    1  0.1780144E-005  0.2357844E+04  0.7818608E-02  0.8455457E-01
         -2   -1    0    0    0  501 -0.00000000000E+00  0.00000000000E+00  0.44265847474E+03  0.44265847474E+03  0.00000000000E+00 0.  1.
          2   -1    0    0  501    0  0.00000000000E+00 -0.00000000000E+00 -0.31397962334E+04  0.31397962334E+04  0.00000000000E+00 0. -1.
         23    2    1    2    0    0 -0.98739726234E+03 -0.62568328450E+03 -0.15624615529E+04  0.19533681487E+04  0.89039844958E+02 0.  0.
         13    1    3    3    0    0 -0.21383665037E+03 -0.12314205899E+03 -0.27407735479E+03  0.36879327020E+03  0.00000000000E+00 0.  1.
        -13    1    3    3    0    0 -0.77356061196E+03 -0.50254122551E+03 -0.12883841981E+04  0.15845748785E+04  0.00000000000E+00 0. -1.
         22    1    1    2    0    0  0.98739726234E+03  0.62568328450E+03 -0.11346762058E+04  0.16290865595E+04  0.00000000000E+00 0. -1.
<mgrwt>
<rscale>  0 0.23578443E+04</rscale>
<asrwt>0</asrwt>
<pdfrwt beam="1">  1        2 0.48304556E+00 0.23578443E+04</pdfrwt>
<pdfrwt beam="2">  1       -2 0.68101305E-01 0.23578443E+04</pdfrwt>
<totfact> 0.25293991E+00</totfact>
</mgrwt>
</event>
<event>
 6    1  0.1780144E-005  0.1704507E+04  0.7818608E-02  0.8758798E-01
         -2   -1    0    0    0  501 -0.00000000000E+00  0.00000000000E+00  0.76354667135E+03  0.76354667135E+03  0.00000000000E+00 0.  1.
          2   -1    0    0  501    0  0.00000000000E+00 -0.00000000000E+00 -0.95126576415E+03  0.95126576415E+03  0.00000000000E+00 0. -1.
         23    2    1    2    0    0  0.13234274395E+03 -0.40780653514E+03  0.64403297563E+03  0.77906018447E+03  0.91299098307E+02 0.  0.
         13    1    3    3    0    0  0.22301069697E+02 -0.16818754419E+03  0.31114429963E+03  0.35439407857E+03  0.00000000000E+00 0. -1.
        -13    1    3    3    0    0  0.11004167425E+03 -0.23961899095E+03  0.33288867599E+03  0.42466610590E+03  0.00000000000E+00 0.  1.
         22    1    1    2    0    0 -0.13234274395E+03  0.40780653514E+03 -0.83175206843E+03  0.93575225103E+03  0.00000000000E+00 0. -1.
<mgrwt>
<rscale>  0 0.17045067E+04</rscale>
<asrwt>0</asrwt>
<pdfrwt beam="1">  1        2 0.14634858E+00 0.17045067E+04</pdfrwt>
<pdfrwt beam="2">  1       -2 0.11746872E+00 0.17045067E+04</pdfrwt>
<totfact> 0.14429096E+01</totfact>
</mgrwt>
</event>
<event>
 6    1  0.2848284E-005  0.2840635E+04  0.7818608E-02  0.8290763E-01
         -2   -1    0    0    0  501 -0.00000000000E+00  0.00000000000E+00  0.85305492083E+03  0.85305492083E+03  0.00000000000E+00 0.  1.
          2   -1    0    0  501    0  0.00000000000E+00 -0.00000000000E+00 -0.23647978812E+04  0.23647978812E+04  0.00000000000E+00 0. -1.
         23    2    1    2    0    0  0.26267381792E+03  0.68188556687E+03  0.62106121854E+03  0.96334196229E+03  0.91352275308E+02 0.  0.
         13    1    3    3    0    0  0.13465781514E+03  0.41784929193E+03  0.42056516688E+03  0.60795215070E+03  0.00000000000E+00 0.  1.
        -13    1    3    3    0    0  0.12801600277E+03  0.26403627494E+03  0.20049605166E+03  0.35538981159E+03  0.00000000000E+00 0. -1.
         22    1    1    2    0    0 -0.26267381792E+03 -0.68188556687E+03 -0.21328041789E+04  0.22545108398E+04  0.00000000000E+00 0. -1.
<mgrwt>
<rscale>  0 0.28406355E+04</rscale>
<asrwt>0</asrwt>
<pdfrwt beam="1">  1        2 0.36381506E+00 0.28406355E+04</pdfrwt>
<pdfrwt beam="2">  1       -2 0.13123922E+00 0.28406355E+04</pdfrwt>
<totfact> 0.15309749E+00</totfact>
</mgrwt>
</event>
<event>
 6    1  0.1780144E-005  0.1002424E+04  0.7818608E-02  0.9305890E-01
          1   -1    0    0  501    0  0.00000000000E+00  0.00000000000E+00  0.10099726737E+04  0.10099726737E+04  0.00000000000E+00 0. -1.
         -1   -1    0    0    0  501 -0.00000000000E+00 -0.00000000000E+00 -0.24873296133E+03  0.24873296133E+03  0.00000000000E+00 0.  1.
         23    2    1    2    0    0 -0.89226522395E+02 -0.38382715653E+03  0.32937906692E+01  0.40444181242E+03  0.90981713490E+02 0.  0.
         11    1    3    3    0    0  0.16249102599E+01 -0.13024766366E+03 -0.28103180123E+02  0.13325495472E+03  0.00000000000E+00 0.  1.
        -11    1    3    3    0    0 -0.90851432654E+02 -0.25357949287E+03  0.31396970792E+02  0.27118685771E+03  0.00000000000E+00 0. -1.
         22    1    1    2    0    0  0.89226522395E+02  0.38382715653E+03  0.75794592168E+03  0.85426382258E+03  0.00000000000E+00 0. -1.
<mgrwt>
<rscale>  0 0.10024240E+04</rscale>
<asrwt>0</asrwt>
<pdfrwt beam="1">  1        1 0.15538041E+00 0.10024240E+04</pdfrwt>
<pdfrwt beam="2">  1       -1 0.38266610E-01 0.10024240E+04</pdfrwt>
<totfact> 0.98293214E+01</totfact>
</mgrwt>
</event>
<event>
 6    1  0.1780144E-005  0.2726093E+04  0.7818608E-02  0.8326588E-01
         -2   -1    0    0    0  501 -0.00000000000E+00  0.00000000000E+00  0.53724635417E+03  0.53724635417E+03  0.00000000000E+00 0.  1.
          2   -1    0    0  501    0  0.00000000000E+00 -0.00000000000E+00 -0.34581821822E+04  0.34581821822E+04  0.00000000000E+00 0. -1.
         23    2    1    2    0    0  0.12102671420E+04  0.19500305414E+03 -0.23304014683E+04  0.26347288722E+04  0.90843162910E+02 0.  0.
         11    1    3    3    0    0  0.60813035209E+03  0.52225756840E+02 -0.11672661099E+04  0.13172168486E+04  0.00000000000E+00 0. -1.
        -11    1    3    3    0    0  0.60213678989E+03  0.14277729730E+03 -0.11631353584E+04  0.13175120236E+04  0.00000000000E+00 0.  1.
         22    1    1    2    0    0 -0.12102671420E+04 -0.19500305414E+03 -0.59053435965E+03  0.13606996641E+04  0.00000000000E+00 0.  1.
<mgrwt>
<rscale>  0 0.27260930E+04</rscale>
<asrwt>0</asrwt>
<pdfrwt beam="1">  1        2 0.53202806E+00 0.27260930E+04</pdfrwt>
<pdfrwt beam="2">  1       -2 0.82653281E-01 0.27260930E+04</pdfrwt>
<totfact> 0.97735805E-01</totfact>
</mgrwt>
</event>
<event>
 6    1  0.1780144E-005  0.2626529E+04  0.7818608E-02  0.8359245E-01
         -1   -1    0    0    0  501 -0.00000000000E+00  0.00000000000E+00  0.12793879096E+04  0.12793879096E+04  0.00000000000E+00 0.  1.
          1   -1    0    0  501    0  0.00000000000E+00 -0.00000000000E+00 -0.13480382435E+04  0.13480382435E+04  0.00000000000E+00 0. -1.
         23    2    1    2    0    0 -0.23961625780E+02  0.82365061013E+03 -0.10548733914E+04  0.13422761984E+04  0.99865077943E+02 0.  0.
         11    1    3    3    0    0 -0.57773390339E+02  0.65571141412E+03 -0.81844030377E+03  0.10503046006E+04  0.00000000000E+00 0. -1.
        -11    1    3    3    0    0  0.33811764559E+02  0.16793919601E+03 -0.23643308760E+03  0.29197159775E+03  0.00000000000E+00 0.  1.
         22    1    1    2    0    0  0.23961625780E+02 -0.82365061013E+03  0.98622305746E+03  0.12851499547E+04  0.00000000000E+00 0.  1.
<mgrwt>
<rscale>  0 0.26265291E+04</rscale>
<asrwt>0</asrwt>
<pdfrwt beam="1">  1        1 0.20739050E+00 0.26265291E+04</pdfrwt>
<pdfrwt beam="2">  1       -1 0.19682891E+00 0.26265291E+04</pdfrwt>
<totfact> 0.11630381E+00</totfact>
</mgrwt>
</event>
<event>
 6    1  0.1780144E-005  0.1279195E+04  0.7818608E-02  0.9046228E-01
          1   -1    0    0  501    0  0.00000000000E+00  0.00000000000E+00  0.11756219277E+04  0.11756219277E+04  0.00000000000E+00 0. -1.
         -1   -1    0    0    0  501 -0.00000000000E+00 -0.00000000000E+00 -0.34797328269E+03  0.34797328269E+03  0.00000000000E+00 0.  1.
         23    2    1    2    0    0 -0.27314640123E+03  0.15189542737E+03 -0.24461969913E+03  0.40670641593E+03  0.88826427346E+02 0.  0.
         11    1    3    3    0    0 -0.46950244130E+02  0.37991594901E+02 -0.94947300944E+02  0.11252855932E+03  0.00000000000E+00 0.  1.
        -11    1    3    3    0    0 -0.22619615710E+03  0.11390383247E+03 -0.14967239818E+03  0.29417785660E+03  0.00000000000E+00 0. -1.
         22    1    1    2    0    0  0.27314640123E+03 -0.15189542737E+03  0.10722683442E+04  0.11168887945E+04  0.00000000000E+00 0. -1.
<mgrwt>
<rscale>  0 0.12791951E+04</rscale>
<asrwt>0</asrwt>
<pdfrwt beam="1">  1        1 0.18086491E+00 0.12791951E+04</pdfrwt>
<pdfrwt beam="2">  1       -1 0.53534352E-01 0.12791951E+04</pdfrwt>
<totfact> 0.38572229E+01</totfact>
</mgrwt>
</event>
<event>
 6    1  0.1780144E-005  0.9196648E+03  0.7818608E-02  0.9401328E-01
          2   -1    0    0  501    0  0.00000000000E+00  0.00000000000E+00  0.20884147796E+04  0.20884147796E+04  0.00000000000E+00 0. -1.
         -2   -1    0    0    0  501 -0.00000000000E+00 -0.00000000000E+00 -0.10124705509E+03  0.10124705509E+03  0.00000000000E+00 0.  1.
         23    2    1    2    0    0  0.17277352721E+03  0.41910582989E+03  0.11067220210E+04  0.11993664115E+04  0.90253913558E+02 0.  0.
         13    1    3    3    0    0  0.15835400370E+03  0.30935015797E+03  0.76687167404E+03  0.84194161031E+03  0.00000000000E+00 0. -1.
        -13    1    3    3    0    0  0.14419523503E+02  0.10975567192E+03  0.33985034694E+03  0.35742480117E+03  0.00000000000E+00 0.  1.
         22    1    1    2    0    0 -0.17277352721E+03 -0.41910582989E+03  0.88044570350E+03  0.99029542317E+03  0.00000000000E+00 0.  1.
<mgrwt>
<rscale>  0 0.91966482E+03</rscale>
<asrwt>0</asrwt>
<pdfrwt beam="1">  1        2 0.32129455E+00 0.91966482E+03</pdfrwt>
<pdfrwt beam="2">  1       -2 0.15576472E-01 0.91966482E+03</pdfrwt>
<totfact> 0.19832637E+02</totfact>
</mgrwt>
</event>
<event>
 6    1  0.1780144E-005  0.1155374E+04  0.7818608E-02  0.9152840E-01
         -2   -1    0    0    0  501 -0.00000000000E+00  0.00000000000E+00  0.95725478508E+02  0.95725478508E+02  0.00000000000E+00 0. -1.
          2   -1    0    0  501    0  0.00000000000E+00 -0.00000000000E+00 -0.34862429267E+04  0.34862429267E+04  0.00000000000E+00 0.  1.
         23    2    1    2    0    0  0.55013401191E+02  0.55713589397E+03 -0.21005612143E+04  0.21757628854E+04  0.90331830940E+02 0.  0.
         11    1    3    3    0    0  0.25400715207E+02  0.30416169935E+03 -0.97097122336E+03  0.10178136628E+04  0.00000000000E+00 0. -1.
        -11    1    3    3    0    0  0.29612685984E+02  0.25297419462E+03 -0.11295899909E+04  0.11579492225E+04  0.00000000000E+00 0.  1.
         22    1    1    2    0    0 -0.55013401191E+02 -0.55713589397E+03 -0.12899562339E+04  0.14062055198E+04  0.00000000000E+00 0. -1.
<mgrwt>
<rscale>  0 0.11553740E+04</rscale>
<asrwt>0</asrwt>
<pdfrwt beam="1">  1        2 0.53634508E+00 0.11553740E+04</pdfrwt>
<pdfrwt beam="2">  1       -2 0.14726996E-01 0.11553740E+04</pdfrwt>
<totfact> 0.30638673E+01</totfact>
</mgrwt>
</event>
<event>
 6    1  0.1780144E-005  0.4025668E+04  0.7818608E-02  0.7999388E-01
         -2   -1    0    0    0  501 -0.00000000000E+00  0.00000000000E+00  0.13424696847E+04  0.13424696847E+04  0.00000000000E+00 0.  1.
          2   -1    0    0  501    0  0.00000000000E+00 -0.00000000000E+00 -0.30179455585E+04  0.30179455585E+04  0.00000000000E+00 0. -1.
         23    2    1    2    0    0  0.62748567622E+03 -0.17454314533E+04  0.57687829434E+01  0.18570469468E+04  0.91218702449E+02 0.  0.
         13    1    3    3    0    0  0.21654481724E+03 -0.48289444041E+03  0.94945480132E+01  0.52930978160E+03  0.00000000000E+00 0. -1.
        -13    1    3    3    0    0  0.41094085898E+03 -0.12625370129E+04 -0.37257650698E+01  0.13277371652E+04  0.00000000000E+00 0.  1.
         22    1    1    2    0    0 -0.62748567622E+03  0.17454314533E+04 -0.16812446567E+04  0.25033682965E+04  0.00000000000E+00 0.  1.
<mgrwt>
<rscale>  0 0.40256679E+04</rscale>
<asrwt>0</asrwt>
<pdfrwt beam="1">  1        2 0.46429932E+00 0.40256679E+04</pdfrwt>
<pdfrwt beam="2">  1       -2 0.20653380E+00 0.40256679E+04</pdfrwt>
<totfact> 0.16092428E-01</totfact>
</mgrwt>
</event>
<event>
 6    1  0.1780144E-005  0.2078338E+04  0.7818608E-02  0.8570846E-01
         -2   -1    0    0    0  501 -0.00000000000E+00  0.00000000000E+00  0.50593347705E+03  0.50593347705E+03  0.00000000000E+00 0.  1.
          2   -1    0    0  501    0  0.00000000000E+00 -0.00000000000E+00 -0.21344145385E+04  0.21344145385E+04  0.00000000000E+00 0. -1.
         23    2    1    2    0    0 -0.25974613580E+03  0.92605924311E+03 -0.13090700542E+04  0.16268998579E+04  0.89916426932E+02 0.  0.
         13    1    3    3    0    0 -0.17642000904E+03  0.46261187996E+03 -0.66908128481E+03  0.83234820643E+03  0.00000000000E+00 0.  1.
        -13    1    3    3    0    0 -0.83326126758E+02  0.46344736314E+03 -0.63998876941E+03  0.79455165142E+03  0.00000000000E+00 0. -1.
         22    1    1    2    0    0  0.25974613580E+03 -0.92605924311E+03 -0.31941100723E+03  0.10134481577E+04  0.00000000000E+00 0.  1.
<mgrwt>
<rscale>  0 0.20783376E+04</rscale>
<asrwt>0</asrwt>
<pdfrwt beam="1">  1        2 0.32837146E+00 0.20783376E+04</pdfrwt>
<pdfrwt beam="2">  1       -2 0.77835920E-01 0.20783376E+04</pdfrwt>
<totfact> 0.76276618E+00</totfact>
</mgrwt>
</event>
<event>
 6    1  0.1780144E-005  0.6851944E+03  0.7818608E-02  0.9742892E-01
          2   -1    0    0  501    0  0.00000000000E+00  0.00000000000E+00  0.29790878880E+03  0.29790878880E+03  0.00000000000E+00 0. -1.
         -2   -1    0    0    0  501 -0.00000000000E+00 -0.00000000000E+00 -0.39398923860E+03  0.39398923860E+03  0.00000000000E+00 0.  1.
         23    2    1    2    0    0  0.92205698969E+02  0.74450931573E+02 -0.36699433471E+03  0.39619688575E+03  0.90787105003E+02 0.  0.
         11    1    3    3    0    0  0.20928481762E+02  0.73349270218E+02 -0.15953756605E+03  0.17683424943E+03  0.00000000000E+00 0.  1.
        -11    1    3    3    0    0  0.71277217208E+02  0.11016613554E+01 -0.20745676866E+03  0.21936263632E+03  0.00000000000E+00 0. -1.
         22    1    1    2    0    0 -0.92205698969E+02 -0.74450931573E+02  0.27091388491E+03  0.29570114164E+03  0.00000000000E+00 0. -1.
<mgrwt>
<rscale>  0 0.68519445E+03</rscale>
<asrwt>0</asrwt>
<pdfrwt beam="1">  1        2 0.45832122E-01 0.68519445E+03</pdfrwt>
<pdfrwt beam="2">  1       -2 0.60613728E-01 0.68519445E+03</pdfrwt>
<totfact> 0.28323128E+02</totfact>
</mgrwt>
</event>
<event>
 6    1  0.1780144E-005  0.2755008E+04  0.7818608E-02  0.8317374E-01
         -1   -1    0    0    0  501 -0.00000000000E+00  0.00000000000E+00  0.16786538482E+04  0.16786538482E+04  0.00000000000E+00 0.  1.
          1   -1    0    0  501    0  0.00000000000E+00 -0.00000000000E+00 -0.11303801792E+04  0.11303801792E+04  0.00000000000E+00 0. -1.
         23    2    1    2    0    0 -0.19900990850E+03 -0.60761232040E+03  0.15166962334E+04  0.16485858644E+04  0.93113975164E+02 0.  0.
         11    1    3    3    0    0 -0.65811828409E+02 -0.99278218317E+02  0.23868144737E+03  0.26675118502E+03  0.00000000000E+00 0.  1.
        -11    1    3    3    0    0 -0.13319808009E+03 -0.50833410209E+03  0.12780147860E+04  0.13818346794E+04  0.00000000000E+00 0. -1.
         22    1    1    2    0    0  0.19900990850E+03  0.60761232040E+03 -0.96842256446E+03  0.11604481630E+04  0.00000000000E+00 0. -1.
<mgrwt>
<rscale>  0 0.27550078E+04</rscale>
<asrwt>0</asrwt>
<pdfrwt beam="1">  1        1 0.17390464E+00 0.27550078E+04</pdfrwt>
<pdfrwt beam="2">  1       -1 0.25825444E+00 0.27550078E+04</pdfrwt>
<totfact> 0.64390574E-01</totfact>
</mgrwt>
</event>
<event>
 6    1  0.1780144E-005  0.2253592E+04  0.7818608E-02  0.8496447E-01
         -1   -1    0    0    0  501 -0.00000000000E+00  0.00000000000E+00  0.57711781792E+03  0.57711781792E+03  0.00000000000E+00 0.  1.
          1   -1    0    0  501    0  0.00000000000E+00 -0.00000000000E+00 -0.22000167002E+04  0.22000167002E+04  0.00000000000E+00 0. -1.
         23    2    1    2    0    0 -0.32257200348E+03 -0.18543110709E+03  0.49546432746E+03  0.62634394689E+03  0.91566626639E+02 0.  0.
         13    1    3    3    0    0 -0.52379900235E+02 -0.51493814561E+02  0.15502003412E+03  0.17154147564E+03  0.00000000000E+00 0. -1.
        -13    1    3    3    0    0 -0.27019210324E+03 -0.13393729253E+03  0.34044429334E+03  0.45480247125E+03  0.00000000000E+00 0.  1.
         22    1    1    2    0    0  0.32257200348E+03  0.18543110709E+03 -0.21183632098E+04  0.21507905713E+04  0.00000000000E+00 0. -1.
<mgrwt>
<rscale>  0 0.22535917E+04</rscale>
<asrwt>0</asrwt>
<pdfrwt beam="1">  1        1 0.33846411E+00 0.22535917E+04</pdfrwt>
<pdfrwt beam="2">  1       -1 0.88787356E-01 0.22535917E+04</pdfrwt>
<totfact> 0.24601498E+00</totfact>
</mgrwt>
</event>
<event>
 6    1  0.1780144E-005  0.1291673E+04  0.7818608E-02  0.9036195E-01
         -1   -1    0    0    0  501 -0.00000000000E+00  0.00000000000E+00  0.33879440877E+03  0.33879440877E+03  0.00000000000E+00 0.  1.
          1   -1    0    0  501    0  0.00000000000E+00 -0.00000000000E+00 -0.12311446271E+04  0.12311446271E+04  0.00000000000E+00 0. -1.
         23    2    1    2    0    0  0.19280829427E+03 -0.40962628554E+02 -0.11919112596E+04  0.12113448464E+04  0.88605365881E+02 0.  0.
         11    1    3    3    0    0  0.13260955398E+03 -0.53607094022E+02 -0.62771223098E+03  0.64380250020E+03  0.00000000000E+00 0. -1.
        -11    1    3    3    0    0  0.60198740285E+02  0.12644465468E+02 -0.56419902864E+03  0.56754234622E+03  0.00000000000E+00 0.  1.
         22    1    1    2    0    0 -0.19280829427E+03  0.40962628554E+02  0.29956104126E+03  0.35859418947E+03  0.00000000000E+00 0.  1.
<mgrwt>
<rscale>  0 0.12916732E+04</rscale>
<asrwt>0</asrwt>
<pdfrwt beam="1">  1        1 0.18940686E+00 0.12916732E+04</pdfrwt>
<pdfrwt beam="2">  1       -1 0.52122218E-01 0.12916732E+04</pdfrwt>
<totfact> 0.36950077E+01</totfact>
</mgrwt>
</event>
<event>
 6    1  0.1780144E-005  0.2037392E+04  0.7818608E-02  0.8589336E-01
          2   -1    0    0  501    0  0.00000000000E+00  0.00000000000E+00  0.19619096485E+04  0.19619096485E+04  0.00000000000E+00 0. -1.
         -2   -1    0    0    0  501 -0.00000000000E+00 -0.00000000000E+00 -0.52894442796E+03  0.52894442796E+03  0.00000000000E+00 0.  1.
         23    2    1    2    0    0 -0.66807242038E+03 -0.45741355876E+03  0.14695531215E+04  0.16803686681E+04  0.92220177798E+02 0.  0.
         13    1    3    3    0    0 -0.34609970743E+03 -0.21941450453E+03  0.83346949967E+03  0.92876215425E+03  0.00000000000E+00 0. -1.
        -13    1    3    3    0    0 -0.32197271295E+03 -0.23799905423E+03  0.63608362187E+03  0.75160651388E+03  0.00000000000E+00 0.  1.
         22    1    1    2    0    0  0.66807242038E+03  0.45741355876E+03 -0.36587901002E+02  0.81048540833E+03  0.00000000000E+00 0.  1.
<mgrwt>
<rscale>  0 0.20373916E+04</rscale>
<asrwt>0</asrwt>
<pdfrwt beam="1">  1        2 0.30183225E+00 0.20373916E+04</pdfrwt>
<pdfrwt beam="2">  1       -2 0.81376067E-01 0.20373916E+04</pdfrwt>
<totfact> 0.86423573E+00</totfact>
</mgrwt>
</event>
<event>
 6    1  0.1780144E-005  0.5742527E+04  0.7818608E-02  0.7723171E-01
          2   -1    0    0  501    0  0.00000000000E+00  0.00000000000E+00  0.29187760920E+04  0.29187760920E+04  0.00000000000E+00 0.  1.
         -2   -1    0    0    0  501 -0.00000000000E+00 -0.00000000000E+00 -0.28245240522E+04  0.28245240522E+04  0.00000000000E+00 0. -1.
         23    2    1    2    0    0  0.58597818995E+03  0.83134322199E+02 -0.27620486093E+04  0.28263265151E+04  0.94484363205E+02 0.  0.
         13    1    3    3    0    0  0.54178451013E+03  0.56930826816E+02 -0.24291213292E+04  0.24894581753E+04  0.00000000000E+00 0. -1.
        -13    1    3    3    0    0  0.44193679817E+02  0.26203495383E+02 -0.33292728011E+03  0.33686833978E+03  0.00000000000E+00 0.  1.
         22    1    1    2    0    0 -0.58597818995E+03 -0.83134322199E+02  0.28563006491E+04  0.29169736291E+04  0.00000000000E+00 0.  1.
<mgrwt>
<rscale>  0 0.57425267E+04</rscale>
<asrwt>0</asrwt>
<pdfrwt beam="1">  1        2 0.44904248E+00 0.57425267E+04</pdfrwt>
<pdfrwt beam="2">  1       -2 0.43454216E+00 0.57425267E+04</pdfrwt>
<totfact> 0.59171018E-03</totfact>
</mgrwt>
</event>
<event>
 6    1  0.1780144E-005  0.1825025E+04  0.7818608E-02  0.8693104E-01
         -2   -1    0    0    0  501 -0.00000000000E+00  0.00000000000E+00  0.93987340790E+03  0.93987340790E+03  0.00000000000E+00 0.  1.
          2   -1    0    0  501    0  0.00000000000E+00 -0.00000000000E+00 -0.88594783866E+03  0.88594783866E+03  0.00000000000E+00 0. -1.
         23    2    1    2    0    0  0.77138524013E+03  0.69919596631E+02  0.50527459526E+03  0.92936160889E+03  0.92122987224E+02 0.  0.
         13    1    3    3    0    0  0.27876435109E+03  0.65994995163E+02  0.16440998523E+03  0.33029614904E+03  0.00000000000E+00 0. -1.
        -13    1    3    3    0    0  0.49262088904E+03  0.39246014681E+01  0.34086461003E+03  0.59906545985E+03  0.00000000000E+00 0.  1.
         22    1    1    2    0    0 -0.77138524013E+03 -0.69919596631E+02 -0.45134902603E+03  0.89645963767E+03  0.00000000000E+00 0. -1.
<mgrwt>
<rscale>  0 0.18250247E+04</rscale>
<asrwt>0</asrwt>
<pdfrwt beam="1">  1        2 0.13629967E+00 0.18250247E+04</pdfrwt>
<pdfrwt beam="2">  1       -2 0.14459591E+00 0.18250247E+04</pdfrwt>
<totfact> 0.93201090E+00</totfact>
</mgrwt>
</event>
<event>
 6    1  0.1780144E-005  0.3560877E+04  0.7818608E-02  0.8099513E-01
         -2   -1    0    0    0  501 -0.00000000000E+00  0.00000000000E+00  0.11921016985E+04  0.11921016985E+04  0.00000000000E+00 0.  1.
          2   -1    0    0  501    0  0.00000000000E+00 -0.00000000000E+00 -0.26591366305E+04  0.26591366305E+04  0.00000000000E+00 0. -1.
         23    2    1    2    0    0  0.69030905658E+03  0.63955233680E+03  0.89925788333E+03  0.13046925366E+04  0.89465575806E+02 0.  0.
         11    1    3    3    0    0  0.18552952178E+03  0.16539329758E+03  0.18526255264E+03  0.30999735442E+03  0.00000000000E+00 0.  1.
        -11    1    3    3    0    0  0.50477953480E+03  0.47415903922E+03  0.71399533069E+03  0.99469518219E+03  0.00000000000E+00 0. -1.
         22    1    1    2    0    0 -0.69030905658E+03 -0.63955233680E+03 -0.23662928153E+04  0.25465457924E+04  0.00000000000E+00 0. -1.
<mgrwt>
<rscale>  0 0.35608770E+04</rscale>
<asrwt>0</asrwt>
<pdfrwt beam="1">  1        2 0.40909794E+00 0.35608770E+04</pdfrwt>
<pdfrwt beam="2">  1       -2 0.18340026E+00 0.35608770E+04</pdfrwt>
<totfact> 0.39442641E-01</totfact>
</mgrwt>
</event>
<event>
 6    1  0.1780144E-005  0.1576709E+04  0.7818608E-02  0.8834985E-01
         -1   -1    0    0    0  501 -0.00000000000E+00  0.00000000000E+00  0.51508367904E+03  0.51508367904E+03  0.00000000000E+00 0.  1.
          1   -1    0    0  501    0  0.00000000000E+00 -0.00000000000E+00 -0.12066059983E+04  0.12066059983E+04  0.00000000000E+00 0. -1.
         23    2    1    2    0    0 -0.19271717396E+03 -0.66612021791E+03  0.57238072852E+02  0.70115149646E+03  0.86493757888E+02 0.  0.
         11    1    3    3    0    0 -0.39834812579E+02 -0.25147464309E+03 -0.62232029883E+01  0.25468615327E+03  0.00000000000E+00 0.  1.
        -11    1    3    3    0    0 -0.15288236138E+03 -0.41464557482E+03  0.63461275841E+02  0.44646534319E+03  0.00000000000E+00 0. -1.
         22    1    1    2    0    0  0.19271717396E+03  0.66612021791E+03 -0.74876039210E+03  0.10205381809E+04  0.00000000000E+00 0. -1.
<mgrwt>
<rscale>  0 0.15767093E+04</rscale>
<asrwt>0</asrwt>
<pdfrwt beam="1">  1        1 0.18563169E+00 0.15767093E+04</pdfrwt>
<pdfrwt beam="2">  1       -1 0.79243643E-01 0.15767093E+04</pdfrwt>
<totfact> 0.16172427E+01</totfact>
</mgrwt>
</event>
<event>
 6    1  0.1780144E-005  0.1416520E+04  0.7818608E-02  0.8941946E-01
          1   -1    0    0  501    0  0.00000000000E+00  0.00000000000E+00  0.14258025798E+04  0.14258025798E+04  0.00000000000E+00 0. -1.
         -1   -1    0    0    0  501 -0.00000000000E+00 -0.00000000000E+00 -0.35182464973E+03  0.35182464973E+03  0.00000000000E+00 0.  1.
         23    2    1    2    0    0 -0.50890305858E+03 -0.47062402130E+03  0.70247386523E+03  0.99118933453E+03  0.92290157160E+02 0.  0.
         13    1    3    3    0    0 -0.14223112151E+03 -0.19079366305E+03  0.23351582964E+03  0.33340899280E+03  0.00000000000E+00 0. -1.
        -13    1    3    3    0    0 -0.36667193706E+03 -0.27983035826E+03  0.46895803559E+03  0.65778034174E+03  0.00000000000E+00 0.  1.
         22    1    1    2    0    0  0.50890305858E+03  0.47062402130E+03  0.37150406479E+03  0.78643789495E+03  0.00000000000E+00 0. -1.
<mgrwt>
<rscale>  0 0.14165204E+04</rscale>
<asrwt>0</asrwt>
<pdfrwt beam="1">  1        1 0.21935424E+00 0.14165204E+04</pdfrwt>
<pdfrwt beam="2">  1       -1 0.54126870E-01 0.14165204E+04</pdfrwt>
<totfact> 0.24729527E+01</totfact>
</mgrwt>
</event>
<event>
 6    1  0.1780144E-005  0.2304383E+04  0.7818608E-02  0.8476195E-01
          1   -1    0    0  501    0  0.00000000000E+00  0.00000000000E+00  0.20667096293E+04  0.20667096293E+04  0.00000000000E+00 0. -1.
         -1   -1    0    0    0  501 -0.00000000000E+00 -0.00000000000E+00 -0.64234740010E+03  0.64234740010E+03  0.00000000000E+00 0.  1.
         23    2    1    2    0    0 -0.91782624149E+03 -0.48616219425E+03  0.13208685535E+03  0.10511262918E+04  0.93063716617E+02 0.  0.
         13    1    3    3    0    0 -0.43844190167E+03 -0.21326384506E+03  0.18342586820E+02  0.48790287890E+03  0.00000000000E+00 0. -1.
        -13    1    3    3    0    0 -0.47938433982E+03 -0.27289834919E+03  0.11374426853E+03  0.56322341294E+03  0.00000000000E+00 0.  1.
         22    1    1    2    0    0  0.91782624149E+03  0.48616219425E+03  0.12922753738E+04  0.16579307376E+04  0.00000000000E+00 0. -1.
<mgrwt>
<rscale>  0 0.23043833E+04</rscale>
<asrwt>0</asrwt>
<pdfrwt beam="1">  1        1 0.31795533E+00 0.23043833E+04</pdfrwt>
<pdfrwt beam="2">  1       -1 0.98822678E-01 0.23043833E+04</pdfrwt>
<totfact> 0.23750362E+00</totfact>
</mgrwt>
</event>
<event>
 6    1  0.1780144E-005  0.2361227E+04  0.7818608E-02  0.8454164E-01
         -2   -1    0    0    0  501 -0.00000000000E+00  0.00000000000E+00  0.81461040652E+03  0.81461040652E+03  0.00000000000E+00 0.  1.
          2   -1    0    0  501    0  0.00000000000E+00 -0.00000000000E+00 -0.17110607126E+04  0.17110607126E+04  0.00000000000E+00 0. -1.
         23    2    1    2    0    0 -0.26185831494E+03  0.22859025096E+03 -0.16537594090E+04  0.16924002404E+04  0.92060364855E+02 0.  0.
         13    1    3    3    0    0 -0.12644954106E+03  0.53576769287E+02 -0.57400707976E+03  0.59020681482E+03  0.00000000000E+00 0.  1.
        -13    1    3    3    0    0 -0.13540877388E+03  0.17501348167E+03 -0.10797523292E+04  0.11021934256E+04  0.00000000000E+00 0. -1.
         22    1    1    2    0    0  0.26185831494E+03 -0.22859025096E+03  0.75730910295E+03  0.83327087874E+03  0.00000000000E+00 0.  1.
<mgrwt>
<rscale>  0 0.23612267E+04</rscale>
<asrwt>0</asrwt>
<pdfrwt beam="1">  1        2 0.26324011E+00 0.23612267E+04</pdfrwt>
<pdfrwt beam="2">  1       -2 0.12532468E+00 0.23612267E+04</pdfrwt>
<totfact> 0.41554668E+00</totfact>
</mgrwt>
</event>
<event>
 6    1  0.1780144E-005  0.2131575E+04  0.7818608E-02  0.8547460E-01
         -1   -1    0    0    0  501 -0.00000000000E+00  0.00000000000E+00  0.62889618998E+03  0.62889618998E+03  0.00000000000E+00 0.  1.
          1   -1    0    0  501    0  0.00000000000E+00 -0.00000000000E+00 -0.18061855172E+04  0.18061855172E+04  0.00000000000E+00 0. -1.
         23    2    1    2    0    0 -0.16057251074E+03 -0.24903685813E+03 -0.17568676335E+04  0.17841486068E+04  0.93805552594E+02 0.  0.
         11    1    3    3    0    0 -0.97429715551E+01 -0.54698116121E+02 -0.18550750559E+03  0.19364876460E+03  0.00000000000E+00 0.  1.
        -11    1    3    3    0    0 -0.15082953918E+03 -0.19433874200E+03 -0.15713601279E+04  0.15904998422E+04  0.00000000000E+00 0. -1.
         22    1    1    2    0    0  0.16057251074E+03  0.24903685813E+03  0.57957830633E+03  0.65093310031E+03  0.00000000000E+00 0.  1.
<mgrwt>
<rscale>  0 0.21315752E+04</rscale>
<asrwt>0</asrwt>
<pdfrwt beam="1">  1        1 0.27787470E+00 0.21315752E+04</pdfrwt>
<pdfrwt beam="2">  1       -1 0.96753260E-01 0.21315752E+04</pdfrwt>
<totfact> 0.38017354E+00</totfact>
</mgrwt>
</event>
<event>
 6    1  0.1780144E-005  0.3057020E+04  0.7818608E-02  0.8227633E-01
         -2   -1    0    0    0  501 -0.00000000000E+00  0.00000000000E+00  0.11451637654E+04  0.11451637654E+04  0.00000000000E+00 0.  1.
          2   -1    0    0  501    0  0.00000000000E+00 -0.00000000000E+00 -0.20401827599E+04  0.20401827599E+04  0.00000000000E+00 0. -1.
         23    2    1    2    0    0 -0.63789436297E+03 -0.13041038793E+04 -0.94175622679E+03  0.17328381725E+04  0.90703886269E+02 0.  0.
         11    1    3    3    0    0 -0.99366146933E+02 -0.24028688340E+03 -0.20613589267E+03  0.33181835956E+03  0.00000000000E+00 0. -1.
        -11    1    3    3    0    0 -0.53852821604E+03 -0.10638169959E+04 -0.73562033412E+03  0.14010198129E+04  0.00000000000E+00 0.  1.
         22    1    1    2    0    0  0.63789436297E+03  0.13041038793E+04  0.46737232364E+02  0.14525083529E+04  0.00000000000E+00 0. -1.
<mgrwt>
<rscale>  0 0.30570204E+04</rscale>
<asrwt>0</asrwt>
<pdfrwt beam="1">  1        2 0.31387427E+00 0.30570204E+04</pdfrwt>
<pdfrwt beam="2">  1       -2 0.17617904E+00 0.30570204E+04</pdfrwt>
<totfact> 0.10423130E+00</totfact>
</mgrwt>
</event>
<event>
 6    1  0.1780144E-005  0.1696195E+04  0.7818608E-02  0.8763538E-01
          2   -1    0    0  501    0  0.00000000000E+00  0.00000000000E+00  0.96328702575E+03  0.96328702575E+03  0.00000000000E+00 0. -1.
         -2   -1    0    0    0  501 -0.00000000000E+00 -0.00000000000E+00 -0.74668220077E+03  0.74668220077E+03  0.00000000000E+00 0.  1.
         23    2    1    2    0    0  0.53837389788E+03 -0.62204261940E+03 -0.87878396501E+02  0.83276143675E+03  0.94792002252E+02 0.  0.
         11    1    3    3    0    0  0.35582719472E+03 -0.41759466757E+03 -0.13647522894E+02  0.54880283688E+03  0.00000000000E+00 0. -1.
        -11    1    3    3    0    0  0.18254670316E+03 -0.20444795183E+03 -0.74230873606E+02  0.28395859987E+03  0.00000000000E+00 0.  1.
         22    1    1    2    0    0 -0.53837389788E+03  0.62204261940E+03  0.30448322148E+03  0.87720778977E+03  0.00000000000E+00 0. -1.
<mgrwt>
<rscale>  0 0.16961949E+04</rscale>
<asrwt>0</asrwt>
<pdfrwt beam="1">  1        2 0.14819800E+00 0.16961949E+04</pdfrwt>
<pdfrwt beam="2">  1       -2 0.11487419E+00 0.16961949E+04</pdfrwt>
<totfact> 0.14975754E+01</totfact>
</mgrwt>
</event>
<event>
 6    1  0.1780144E-005  0.2064893E+04  0.7818608E-02  0.8576868E-01
          1   -1    0    0  501    0  0.00000000000E+00  0.00000000000E+00  0.14123931721E+04  0.14123931721E+04  0.00000000000E+00 0. -1.
         -1   -1    0    0    0  501 -0.00000000000E+00 -0.00000000000E+00 -0.75470893162E+03  0.75470893162E+03  0.00000000000E+00 0.  1.
         23    2    1    2    0    0  0.45286965594E+03 -0.88320847807E+03  0.38279312531E+02  0.99714030701E+03  0.87609046807E+02 0.  0.
         13    1    3    3    0    0  0.15205911176E+03 -0.38628576874E+03  0.21959241265E+01  0.41514273532E+03  0.00000000000E+00 0. -1.
        -13    1    3    3    0    0  0.30081054418E+03 -0.49692270933E+03  0.36083388405E+02  0.58199757169E+03  0.00000000000E+00 0.  1.
         22    1    1    2    0    0 -0.45286965594E+03  0.88320847807E+03  0.61940492795E+03  0.11699617967E+04  0.00000000000E+00 0. -1.
<mgrwt>
<rscale>  0 0.20648930E+04</rscale>
<asrwt>0</asrwt>
<pdfrwt beam="1">  1        1 0.21729126E+00 0.20648930E+04</pdfrwt>
<pdfrwt beam="2">  1       -1 0.11610907E+00 0.20648930E+04</pdfrwt>
<totfact> 0.46593621E+00</totfact>
</mgrwt>
</event>
<event>
 6    1  0.1780144E-005  0.2661632E+04  0.7818608E-02  0.8347562E-01
          2   -1    0    0  501    0  0.00000000000E+00  0.00000000000E+00  0.86733336477E+03  0.86733336477E+03  0.00000000000E+00 0. -1.
         -2   -1    0    0    0  501 -0.00000000000E+00 -0.00000000000E+00 -0.20419734062E+04  0.20419734062E+04  0.00000000000E+00 0.  1.
         23    2    1    2    0    0  0.64873025924E+03 -0.10954719329E+04 -0.17090925182E+03  0.12880772366E+04  0.94990999534E+02 0.  0.
         13    1    3    3    0    0  0.30687187575E+03 -0.56652182041E+03 -0.12739490956E+03  0.65676996285E+03  0.00000000000E+00 0.  1.
        -13    1    3    3    0    0  0.34185838349E+03 -0.52895011254E+03 -0.43514342257E+02  0.63130727376E+03  0.00000000000E+00 0. -1.
         22    1    1    2    0    0 -0.64873025924E+03  0.10954719329E+04 -0.10037307897E+04  0.16212295344E+04  0.00000000000E+00 0.  1.
<mgrwt>
<rscale>  0 0.26616323E+04</rscale>
<asrwt>0</asrwt>
<pdfrwt beam="1">  1        2 0.13343590E+00 0.26616323E+04</pdfrwt>
<pdfrwt beam="2">  1       -2 0.31414975E+00 0.26616323E+04</pdfrwt>
<totfact> 0.70695750E-01</totfact>
</mgrwt>
</event>
<event>
 6    1  0.1780144E-005  0.2921425E+04  0.7818608E-02  0.8266531E-01
         -2   -1    0    0    0  501 -0.00000000000E+00  0.00000000000E+00  0.87319913670E+03  0.87319913670E+03  0.00000000000E+00 0.  1.
          2   -1    0    0  501    0  0.00000000000E+00 -0.00000000000E+00 -0.24435214541E+04  0.24435214541E+04  0.00000000000E+00 0. -1.
         23    2    1    2    0    0 -0.91832659461E+03  0.10955988722E+04 -0.45329178660E+03  0.15024940807E+04  0.91402383686E+02 0.  0.
         11    1    3    3    0    0 -0.43457535465E+03  0.58639443469E+03 -0.21678357808E+03  0.76138642727E+03  0.00000000000E+00 0. -1.
        -11    1    3    3    0    0 -0.48375123996E+03  0.50920443748E+03 -0.23650820852E+03  0.74110765346E+03  0.00000000000E+00 0.  1.
         22    1    1    2    0    0  0.91832659461E+03 -0.10955988722E+04 -0.11170305308E+04  0.18142265100E+04  0.00000000000E+00 0. -1.
<mgrwt>
<rscale>  0 0.29214249E+04</rscale>
<asrwt>0</asrwt>
<pdfrwt beam="1">  1        2 0.37592637E+00 0.29214249E+04</pdfrwt>
<pdfrwt beam="2">  1       -2 0.13433833E+00 0.29214249E+04</pdfrwt>
<totfact> 0.12914893E+00</totfact>
</mgrwt>
</event>
<event>
 6    1  0.1780144E-005  0.5054296E+04  0.7818608E-02  0.7820186E-01
          1   -1    0    0  501    0  0.00000000000E+00  0.00000000000E+00  0.24244584523E+04  0.24244584523E+04  0.00000000000E+00 0. -1.
         -1   -1    0    0    0  501 -0.00000000000E+00 -0.00000000000E+00 -0.26341866165E+04  0.26341866165E+04  0.00000000000E+00 0.  1.
         23    2    1    2    0    0  0.22063211151E+04 -0.83613954646E+01  0.11268405092E+04  0.24790445969E+04  0.89273761643E+02 0.  0.
         13    1    3    3    0    0  0.34960912991E+03 -0.34612806758E+01  0.21573750243E+03  0.41082988466E+03  0.00000000000E+00 0. -1.
        -13    1    3    3    0    0  0.18567119852E+04 -0.49001147888E+01  0.91110300677E+03  0.20682147123E+04  0.00000000000E+00 0.  1.
         22    1    1    2    0    0 -0.22063211151E+04  0.83613954646E+01 -0.13365686733E+04  0.25796004718E+04  0.00000000000E+00 0.  1.
<mgrwt>
<rscale>  0 0.50542956E+04</rscale>
<asrwt>0</asrwt>
<pdfrwt beam="1">  1        1 0.37299361E+00 0.50542956E+04</pdfrwt>
<pdfrwt beam="2">  1       -1 0.40525948E+00 0.50542956E+04</pdfrwt>
<totfact> 0.72376837E-03</totfact>
</mgrwt>
</event>
<event>
 6    1  0.1780144E-005  0.2213893E+04  0.7818608E-02  0.8512668E-01
         -2   -1    0    0    0  501 -0.00000000000E+00  0.00000000000E+00  0.17280589389E+04  0.17280589389E+04  0.00000000000E+00 0.  1.
          2   -1    0    0  501    0  0.00000000000E+00 -0.00000000000E+00 -0.70907926731E+03  0.70907926731E+03  0.00000000000E+00 0. -1.
         23    2    1    2    0    0 -0.51785535844E+02  0.10835007928E+04  0.27793398632E+03  0.11234394518E+04  0.90626658994E+02 0.  0.
         11    1    3    3    0    0 -0.51767862792E+02  0.28482138164E+03  0.61397271153E+02  0.29592694362E+03  0.00000000000E+00 0.  1.
        -11    1    3    3    0    0 -0.17673051484E-01  0.79867941118E+03  0.21653671516E+03  0.82751250817E+03  0.00000000000E+00 0. -1.
         22    1    1    2    0    0  0.51785535844E+02 -0.10835007928E+04  0.74104568530E+03  0.13136987545E+04  0.00000000000E+00 0.  1.
<mgrwt>
<rscale>  0 0.22138932E+04</rscale>
<asrwt>0</asrwt>
<pdfrwt beam="1">  1        2 0.10908912E+00 0.22138932E+04</pdfrwt>
<pdfrwt beam="2">  1       -2 0.26585522E+00 0.22138932E+04</pdfrwt>
<totfact> 0.18906896E+00</totfact>
</mgrwt>
</event>
<event>
 6    1  0.1780144E-005  0.1945605E+04  0.7818608E-02  0.8632483E-01
          1   -1    0    0  501    0  0.00000000000E+00  0.00000000000E+00  0.15882420155E+04  0.15882420155E+04  0.00000000000E+00 0. -1.
         -1   -1    0    0    0  501 -0.00000000000E+00 -0.00000000000E+00 -0.59584396753E+03  0.59584396753E+03  0.00000000000E+00 0.  1.
         23    2    1    2    0    0  0.92485858415E+03 -0.29387126231E+03  0.46669053017E+03  0.10804138788E+04  0.88149753309E+02 0.  0.
         13    1    3    3    0    0  0.41276110439E+03 -0.85333721348E+02  0.20172526557E+03  0.46727578159E+03  0.00000000000E+00 0.  1.
        -13    1    3    3    0    0  0.51209747977E+03 -0.20853754096E+03  0.26496526460E+03  0.61313809718E+03  0.00000000000E+00 0. -1.
         22    1    1    2    0    0 -0.92485858415E+03  0.29387126231E+03  0.52570751784E+03  0.11036721043E+04  0.00000000000E+00 0.  1.
<mgrwt>
<rscale>  0 0.19456047E+04</rscale>
<asrwt>0</asrwt>
<pdfrwt beam="1">  1        1 0.24434492E+00 0.19456047E+04</pdfrwt>
<pdfrwt beam="2">  1       -1 0.91668303E-01 0.19456047E+04</pdfrwt>
<totfact> 0.61442652E+00</totfact>
</mgrwt>
</event>
<event>
 6    1  0.1780144E-005  0.3640225E+04  0.7818608E-02  0.8081339E-01
         -3   -1    0    0    0  501 -0.00000000000E+00  0.00000000000E+00  0.15972412256E+04  0.15972412256E+04  0.00000000000E+00 0.  1.
          3   -1    0    0  501    0  0.00000000000E+00 -0.00000000000E+00 -0.20740826460E+04  0.20740826460E+04  0.00000000000E+00 0. -1.
         23    2    1    2    0    0  0.15716161633E+04 -0.91285189073E+03 -0.16399185228E+03  0.18271029544E+04  0.90199442123E+02 0.  0.
         11    1    3    3    0    0  0.10269374048E+04 -0.62012224543E+03 -0.14584523385E+03  0.12084795674E+04  0.00000000000E+00 0. -1.
        -11    1    3    3    0    0  0.54467875852E+03 -0.29272964530E+03 -0.18146618429E+02  0.61862338703E+03  0.00000000000E+00 0.  1.
         22    1    1    2    0    0 -0.15716161633E+04  0.91285189073E+03 -0.31284956815E+03  0.18442209172E+04  0.00000000000E+00 0.  1.
<mgrwt>
<rscale>  0 0.36402254E+04</rscale>
<asrwt>0</asrwt>
<pdfrwt beam="1">  1        3 0.31908964E+00 0.36402254E+04</pdfrwt>
<pdfrwt beam="2">  1       -3 0.24572942E+00 0.36402254E+04</pdfrwt>
<totfact> 0.49310474E-03</totfact>
</mgrwt>
</event>
<event>
 6    1  0.1780144E-005  0.4449144E+04  0.7818608E-02  0.7919601E-01
         -2   -1    0    0    0  501 -0.00000000000E+00  0.00000000000E+00  0.10708130762E+04  0.10708130762E+04  0.00000000000E+00 0.  1.
          2   -1    0    0  501    0  0.00000000000E+00 -0.00000000000E+00 -0.46214605462E+04  0.46214605462E+04  0.00000000000E+00 0. -1.
         23    2    1    2    0    0  0.18155236407E+04  0.90867859721E+03 -0.29364905510E+04  0.35711862588E+04  0.92583236098E+02 0.  0.
         13    1    3    3    0    0  0.90777379282E+03  0.42336171682E+03 -0.15134027949E+04  0.18148488702E+04  0.00000000000E+00 0. -1.
        -13    1    3    3    0    0  0.90774984792E+03  0.48531688040E+03 -0.14230877561E+04  0.17563373886E+04  0.00000000000E+00 0.  1.
         22    1    1    2    0    0 -0.18155236407E+04 -0.90867859721E+03 -0.61415691894E+03  0.21210873636E+04  0.00000000000E+00 0. -1.
<mgrwt>
<rscale>  0 0.44491439E+04</rscale>
<asrwt>0</asrwt>
<pdfrwt beam="1">  1        2 0.71099392E+00 0.44491439E+04</pdfrwt>
<pdfrwt beam="2">  1       -2 0.16474047E+00 0.44491439E+04</pdfrwt>
<totfact> 0.16269601E-02</totfact>
</mgrwt>
</event>
<event>
 6    1  0.1780144E-005  0.1333789E+04  0.7818608E-02  0.9003191E-01
         -2   -1    0    0    0  501 -0.00000000000E+00  0.00000000000E+00  0.19459978394E+03  0.19459978394E+03  0.00000000000E+00 0.  1.
          2   -1    0    0  501    0  0.00000000000E+00 -0.00000000000E+00 -0.22854502683E+04  0.22854502683E+04  0.00000000000E+00 0. -1.
         23    2    1    2    0    0  0.63068321024E+03  0.18458433227E+03 -0.87008106554E+03  0.10936479961E+04  0.84806788217E+02 0.  0.
         13    1    3    3    0    0  0.45055144309E+03  0.16000194284E+03 -0.67267249912E+03  0.82527905320E+03  0.00000000000E+00 0.  1.
        -13    1    3    3    0    0  0.18013176715E+03  0.24582389429E+02 -0.19740856642E+03  0.26836894288E+03  0.00000000000E+00 0. -1.
         22    1    1    2    0    0 -0.63068321024E+03 -0.18458433227E+03 -0.12207694189E+04  0.13864020562E+04  0.00000000000E+00 0.  1.
<mgrwt>
<rscale>  0 0.13337888E+04</rscale>
<asrwt>0</asrwt>
<pdfrwt beam="1">  1        2 0.35160773E+00 0.13337888E+04</pdfrwt>
<pdfrwt beam="2">  1       -2 0.29938428E-01 0.13337888E+04</pdfrwt>
<totfact> 0.46629097E+01</totfact>
</mgrwt>
</event>
<event>
 6    1  0.1780144E-005  0.1445930E+04  0.7818608E-02  0.8921227E-01
          2   -1    0    0  501    0  0.00000000000E+00  0.00000000000E+00  0.18022580335E+04  0.18022580335E+04  0.00000000000E+00 0. -1.
         -2   -1    0    0    0  501 -0.00000000000E+00 -0.00000000000E+00 -0.29001292236E+03  0.29001292236E+03  0.00000000000E+00 0.  1.
         23    2    1    2    0    0 -0.20523127597E+03 -0.25253843909E+03  0.16886380051E+04  0.17221223466E+04  0.91167563250E+02 0.  0.
         11    1    3    3    0    0 -0.17999041559E+03 -0.23394675183E+03  0.13424560000E+04  0.13745238246E+04  0.00000000000E+00 0.  1.
        -11    1    3    3    0    0 -0.25240860382E+02 -0.18591687262E+02  0.34618200508E+03  0.34759852202E+03  0.00000000000E+00 0. -1.
         22    1    1    2    0    0  0.20523127597E+03  0.25253843909E+03 -0.17639289398E+03  0.37014860921E+03  0.00000000000E+00 0.  1.
<mgrwt>
<rscale>  0 0.14459296E+04</rscale>
<asrwt>0</asrwt>
<pdfrwt beam="1">  1        2 0.27727046E+00 0.14459296E+04</pdfrwt>
<pdfrwt beam="2">  1       -2 0.44617374E-01 0.14459296E+04</pdfrwt>
<totfact> 0.39761835E+01</totfact>
</mgrwt>
</event>
<event>
 6    1  0.1780144E-005  0.1816725E+04  0.7818608E-02  0.8697455E-01
         -2   -1    0    0    0  501 -0.00000000000E+00  0.00000000000E+00  0.68610196064E+03  0.68610196064E+03  0.00000000000E+00 0.  1.
          2   -1    0    0  501    0  0.00000000000E+00 -0.00000000000E+00 -0.12026238827E+04  0.12026238827E+04  0.00000000000E+00 0. -1.
         23    2    1    2    0    0  0.33418637364E+03  0.59152893436E+03  0.36474319093E+03  0.77597465287E+03  0.86672106486E+02 0.  0.
         13    1    3    3    0    0  0.22901130035E+03  0.32069808561E+03  0.22126422104E+03  0.45194169239E+03  0.00000000000E+00 0. -1.
        -13    1    3    3    0    0  0.10517507329E+03  0.27083084875E+03  0.14347896989E+03  0.32403296048E+03  0.00000000000E+00 0.  1.
         22    1    1    2    0    0 -0.33418637364E+03 -0.59152893436E+03 -0.88126511297E+03  0.11127511905E+04  0.00000000000E+00 0. -1.
<mgrwt>
<rscale>  0 0.18167252E+04</rscale>
<asrwt>0</asrwt>
<pdfrwt beam="1">  1        2 0.18501906E+00 0.18167252E+04</pdfrwt>
<pdfrwt beam="2">  1       -2 0.10555415E+00 0.18167252E+04</pdfrwt>
<totfact> 0.12917299E+01</totfact>
</mgrwt>
</event>
<event>
 6    1  0.1780144E-005  0.1784625E+04  0.7818608E-02  0.8714519E-01
         -2   -1    0    0    0  501 -0.00000000000E+00  0.00000000000E+00  0.59023454670E+03  0.59023454670E+03  0.00000000000E+00 0.  1.
          2   -1    0    0  501    0  0.00000000000E+00 -0.00000000000E+00 -0.13489921678E+04  0.13489921678E+04  0.00000000000E+00 0. -1.
         23    2    1    2    0    0  0.31037029414E+03  0.15128969180E+03  0.51078361503E+03  0.62356975291E+03  0.93386535622E+02 0.  0.
         13    1    3    3    0    0  0.18545856288E+03  0.12298312677E+03  0.26197357701E+03  0.34372937475E+03  0.00000000000E+00 0.  1.
        -13    1    3    3    0    0  0.12491173125E+03  0.28306565038E+02  0.24881003803E+03  0.27984037817E+03  0.00000000000E+00 0. -1.
         22    1    1    2    0    0 -0.31037029414E+03 -0.15128969180E+03 -0.12695412361E+04  0.13156569616E+04  0.00000000000E+00 0. -1.
<mgrwt>
<rscale>  0 0.17846252E+04</rscale>
<asrwt>0</asrwt>
<pdfrwt beam="1">  1        2 0.20753726E+00 0.17846252E+04</pdfrwt>
<pdfrwt beam="2">  1       -2 0.90805315E-01 0.17846252E+04</pdfrwt>
<totfact> 0.15152349E+01</totfact>
</mgrwt>
</event>
<event>
 6    1  0.1780144E-005  0.1147567E+04  0.7818608E-02  0.9160031E-01
          1   -1    0    0  501    0  0.00000000000E+00  0.00000000000E+00  0.67643473333E+03  0.67643473333E+03  0.00000000000E+00 0. -1.
         -1   -1    0    0    0  501 -0.00000000000E+00 -0.00000000000E+00 -0.48670986822E+03  0.48670986822E+03  0.00000000000E+00 0.  1.
         23    2    1    2    0    0 -0.21951568411E+03 -0.30783957473E+03 -0.33715344932E+03  0.51464394808E+03  0.90739217314E+02 0.  0.
         11    1    3    3    0    0 -0.20837447907E+03 -0.26025744332E+03 -0.25777425340E+03  0.42142784204E+03  0.00000000000E+00 0. -1.
        -11    1    3    3    0    0 -0.11141205047E+02 -0.47582131412E+02 -0.79379195920E+02  0.93216106036E+02  0.00000000000E+00 0.  1.
         22    1    1    2    0    0  0.21951568411E+03  0.30783957473E+03  0.52687831443E+03  0.64850065348E+03  0.00000000000E+00 0. -1.
<mgrwt>
<rscale>  0 0.11475669E+04</rscale>
<asrwt>0</asrwt>
<pdfrwt beam="1">  1        1 0.10406688E+00 0.11475669E+04</pdfrwt>
<pdfrwt beam="2">  1       -1 0.74878441E-01 0.11475669E+04</pdfrwt>
<totfact> 0.51157159E+01</totfact>
</mgrwt>
</event>
<event>
 6    1  0.1780144E-005  0.1090398E+04  0.7818608E-02  0.9214601E-01
          1   -1    0    0  501    0  0.00000000000E+00  0.00000000000E+00  0.14370761733E+04  0.14370761733E+04  0.00000000000E+00 0. -1.
         -1   -1    0    0    0  501 -0.00000000000E+00 -0.00000000000E+00 -0.20683813274E+03  0.20683813274E+03  0.00000000000E+00 0.  1.
         23    2    1    2    0    0  0.18211684968E+03 -0.44380564169E+03  0.24167637383E+03  0.54510396597E+03  0.92740873000E+02 0.  0.
         13    1    3    3    0    0  0.14887679294E+03 -0.28477605980E+03  0.19575088080E+03  0.37627132637E+03  0.00000000000E+00 0. -1.
        -13    1    3    3    0    0  0.33240056737E+02 -0.15902958189E+03  0.45925493024E+02  0.16883263961E+03  0.00000000000E+00 0.  1.
         22    1    1    2    0    0 -0.18211684968E+03  0.44380564169E+03  0.98856166675E+03  0.10988103401E+04  0.00000000000E+00 0. -1.
<mgrwt>
<rscale>  0 0.10903984E+04</rscale>
<asrwt>0</asrwt>
<pdfrwt beam="1">  1        1 0.22108864E+00 0.10903984E+04</pdfrwt>
<pdfrwt beam="2">  1       -1 0.31821252E-01 0.10903984E+04</pdfrwt>
<totfact> 0.66322762E+01</totfact>
</mgrwt>
</event>
<event>
 6    1  0.1780144E-005  0.4082768E+04  0.7818608E-02  0.7988055E-01
         -2   -1    0    0    0  501 -0.00000000000E+00  0.00000000000E+00  0.10345034033E+04  0.10345034033E+04  0.00000000000E+00 0.  1.
          2   -1    0    0  501    0  0.00000000000E+00 -0.00000000000E+00 -0.40282606740E+04  0.40282606740E+04  0.00000000000E+00 0. -1.
         23    2    1    2    0    0 -0.16372292177E+04  0.11271352089E+04 -0.20687810713E+04  0.28703831204E+04  0.91054085777E+02 0.  0.
         11    1    3    3    0    0 -0.66757601662E+03  0.49954695657E+03 -0.82335830701E+03  0.11718036531E+04  0.00000000000E+00 0.  1.
        -11    1    3    3    0    0 -0.96965320111E+03  0.62758825231E+03 -0.12454227643E+04  0.16985794673E+04  0.00000000000E+00 0. -1.
         22    1    1    2    0    0  0.16372292177E+04 -0.11271352089E+04 -0.92497619941E+03  0.21923809568E+04  0.00000000000E+00 0.  1.
<mgrwt>
<rscale>  0 0.40827684E+04</rscale>
<asrwt>0</asrwt>
<pdfrwt beam="1">  1        2 0.61973240E+00 0.40827684E+04</pdfrwt>
<pdfrwt beam="2">  1       -2 0.15915437E+00 0.40827684E+04</pdfrwt>
<totfact> 0.64724081E-02</totfact>
</mgrwt>
</event>
<event>
 6    1  0.1780144E-005  0.1746726E+04  0.7818608E-02  0.8735155E-01
         -3   -1    0    0    0  501 -0.00000000000E+00  0.00000000000E+00  0.12153637794E+04  0.12153637794E+04  0.00000000000E+00 0.  1.
          3   -1    0    0  501    0  0.00000000000E+00 -0.00000000000E+00 -0.62760042879E+03  0.62760042879E+03  0.00000000000E+00 0. -1.
         23    2    1    2    0    0 -0.31350056610E+03 -0.80880623461E+03  0.21064616214E+03  0.89709555774E+03  0.89210447895E+02 0.  0.
         13    1    3    3    0    0 -0.10894310941E+03 -0.39825473944E+03  0.11398357041E+03  0.42833128872E+03  0.00000000000E+00 0. -1.
        -13    1    3    3    0    0 -0.20455745669E+03 -0.41055149517E+03  0.96662591730E+02  0.46876426902E+03  0.00000000000E+00 0.  1.
         22    1    1    2    0    0  0.31350056610E+03  0.80880623461E+03  0.37711718848E+03  0.94586865047E+03  0.00000000000E+00 0.  1.
<mgrwt>
<rscale>  0 0.17467259E+04</rscale>
<asrwt>0</asrwt>
<pdfrwt beam="1">  1        3 0.96553913E-01 0.17467259E+04</pdfrwt>
<pdfrwt beam="2">  1       -3 0.18697904E+00 0.17467259E+04</pdfrwt>
<totfact> 0.41830994E-01</totfact>
</mgrwt>
</event>
<event>
 6    1  0.1780144E-005  0.4718736E+04  0.7818608E-02  0.7873423E-01
         -2   -1    0    0    0  501 -0.00000000000E+00  0.00000000000E+00  0.16234452439E+04  0.16234452439E+04  0.00000000000E+00 0.  1.
          2   -1    0    0  501    0  0.00000000000E+00 -0.00000000000E+00 -0.34288917709E+04  0.34288917709E+04  0.00000000000E+00 0. -1.
         23    2    1    2    0    0 -0.16180427177E+04 -0.16984576280E+04 -0.11644133427E+04  0.26205179233E+04  0.91843362444E+02 0.  0.
         11    1    3    3    0    0 -0.10177966062E+04 -0.10055387834E+04 -0.69700365875E+03  0.15914874416E+04  0.00000000000E+00 0. -1.
        -11    1    3    3    0    0 -0.60024611154E+03 -0.69291884457E+03 -0.46740968394E+03  0.10290304817E+04  0.00000000000E+00 0.  1.
         22    1    1    2    0    0  0.16180427177E+04  0.16984576280E+04 -0.64103318432E+03  0.24318190915E+04  0.00000000000E+00 0.  1.
<mgrwt>
<rscale>  0 0.47187363E+04</rscale>
<asrwt>0</asrwt>
<pdfrwt beam="1">  1        2 0.52752181E+00 0.47187363E+04</pdfrwt>
<pdfrwt beam="2">  1       -2 0.24976081E+00 0.47187363E+04</pdfrwt>
<totfact> 0.43650341E-02</totfact>
</mgrwt>
</event>
<event>
 6    1  0.1780144E-005  0.1130372E+04  0.7818608E-02  0.9176085E-01
          2   -1    0    0  501    0  0.00000000000E+00  0.00000000000E+00  0.66183681623E+03  0.66183681623E+03  0.00000000000E+00 0. -1.
         -2   -1    0    0    0  501 -0.00000000000E+00 -0.00000000000E+00 -0.48264915462E+03  0.48264915462E+03  0.00000000000E+00 0.  1.
         23    2    1    2    0    0  0.31447171062E+03  0.45243436305E+03  0.19923384088E+03  0.59313203829E+03  0.92315664177E+02 0.  0.
         13    1    3    3    0    0  0.24538526131E+03  0.34038614179E+03  0.19156459359E+03  0.46127393760E+03  0.00000000000E+00 0.  1.
        -13    1    3    3    0    0  0.69086449311E+02  0.11204822125E+03  0.76692472928E+01  0.13185810069E+03  0.00000000000E+00 0. -1.
         22    1    1    2    0    0 -0.31447171062E+03 -0.45243436305E+03 -0.20046179273E+02  0.55135393256E+03  0.00000000000E+00 0.  1.
<mgrwt>
<rscale>  0 0.11303716E+04</rscale>
<asrwt>0</asrwt>
<pdfrwt beam="1">  1        2 0.10182105E+00 0.11303716E+04</pdfrwt>
<pdfrwt beam="2">  1       -2 0.74253716E-01 0.11303716E+04</pdfrwt>
<totfact> 0.71178998E+01</totfact>
</mgrwt>
</event>
<event>
 6    1  0.1780144E-005  0.1920573E+04  0.7818608E-02  0.8644683E-01
          2   -1    0    0  501    0  0.00000000000E+00  0.00000000000E+00  0.15451794965E+04  0.15451794965E+04  0.00000000000E+00 0.  1.
         -2   -1    0    0    0  501 -0.00000000000E+00 -0.00000000000E+00 -0.59679147398E+03  0.59679147398E+03  0.00000000000E+00 0. -1.
         23    2    1    2    0    0 -0.49366500846E+03  0.81871822827E+03  0.40456886238E+03  0.10420873599E+04  0.90914374075E+02 0.  0.
         13    1    3    3    0    0 -0.31550688712E+03  0.60313128707E+03  0.28808675235E+03  0.73912510588E+03  0.00000000000E+00 0.  1.
        -13    1    3    3    0    0 -0.17815812133E+03  0.21558694120E+03  0.11648211002E+03  0.30296225403E+03  0.00000000000E+00 0. -1.
         22    1    1    2    0    0  0.49366500846E+03 -0.81871822827E+03  0.54381916015E+03  0.10998836106E+04  0.00000000000E+00 0. -1.
<mgrwt>
<rscale>  0 0.19205728E+04</rscale>
<asrwt>0</asrwt>
<pdfrwt beam="1">  1        2 0.23771992E+00 0.19205728E+04</pdfrwt>
<pdfrwt beam="2">  1       -2 0.91814074E-01 0.19205728E+04</pdfrwt>
<totfact> 0.11295162E+01</totfact>
</mgrwt>
</event>
<event>
 6    1  0.1780144E-005  0.1669703E+04  0.7818608E-02  0.8778835E-01
          1   -1    0    0  501    0  0.00000000000E+00  0.00000000000E+00  0.13795784408E+04  0.13795784408E+04  0.00000000000E+00 0. -1.
         -1   -1    0    0    0  501 -0.00000000000E+00 -0.00000000000E+00 -0.50521000136E+03  0.50521000136E+03  0.00000000000E+00 0.  1.
         23    2    1    2    0    0  0.70368962057E+03  0.44042976778E+03  0.50656734977E+03  0.97680435416E+03  0.91535807172E+02 0.  0.
         11    1    3    3    0    0  0.43742608865E+03  0.32000257547E+03  0.35144316548E+03  0.64595319482E+03  0.00000000000E+00 0. -1.
        -11    1    3    3    0    0  0.26626353193E+03  0.12042719231E+03  0.15512418429E+03  0.33085115934E+03  0.00000000000E+00 0.  1.
         22    1    1    2    0    0 -0.70368962057E+03 -0.44042976778E+03  0.36780108964E+03  0.90798408796E+03  0.00000000000E+00 0.  1.
<mgrwt>
<rscale>  0 0.16697028E+04</rscale>
<asrwt>0</asrwt>
<pdfrwt beam="1">  1        1 0.21224284E+00 0.16697028E+04</pdfrwt>
<pdfrwt beam="2">  1       -1 0.77724616E-01 0.16697028E+04</pdfrwt>
<totfact> 0.12565544E+01</totfact>
</mgrwt>
</event>
<event>
 6    1  0.1780144E-005  0.2079241E+04  0.7818608E-02  0.8570443E-01
          2   -1    0    0  501    0  0.00000000000E+00  0.00000000000E+00  0.13720926389E+04  0.13720926389E+04  0.00000000000E+00 0. -1.
         -2   -1    0    0    0  501 -0.00000000000E+00 -0.00000000000E+00 -0.78770972498E+03  0.78770972498E+03  0.00000000000E+00 0.  1.
         23    2    1    2    0    0 -0.31383358210E+03 -0.71681621616E+03 -0.41508855994E+03  0.89044810598E+03  0.91007207654E+02 0.  0.
         11    1    3    3    0    0 -0.21889358045E+03 -0.57260492432E+03 -0.35022679235E+03  0.70600963521E+03  0.00000000000E+00 0. -1.
        -11    1    3    3    0    0 -0.94940001652E+02 -0.14421129184E+03 -0.64861767587E+02  0.18443847077E+03  0.00000000000E+00 0.  1.
         22    1    1    2    0    0  0.31383358210E+03  0.71681621616E+03  0.99947147386E+03  0.12693542579E+04  0.00000000000E+00 0. -1.
<mgrwt>
<rscale>  0 0.20792409E+04</rscale>
<asrwt>0</asrwt>
<pdfrwt beam="1">  1        2 0.21109118E+00 0.20792409E+04</pdfrwt>
<pdfrwt beam="2">  1       -2 0.12118611E+00 0.20792409E+04</pdfrwt>
<totfact> 0.71829713E+00</totfact>
</mgrwt>
</event>
<event>
 6    1  0.1780144E-005  0.3367273E+04  0.7818608E-02  0.8145986E-01
          1   -1    0    0  501    0  0.00000000000E+00  0.00000000000E+00  0.25714066367E+04  0.25714066367E+04  0.00000000000E+00 0. -1.
         -1   -1    0    0    0  501 -0.00000000000E+00 -0.00000000000E+00 -0.11023663468E+04  0.11023663468E+04  0.00000000000E+00 0.  1.
         23    2    1    2    0    0  0.32309334313E+03  0.84239438420E+03 -0.81423460352E+03  0.12187043804E+04  0.90800717976E+02 0.  0.
         13    1    3    3    0    0  0.29991672720E+03  0.69198114085E+03 -0.66342941045E+03  0.10044533464E+04  0.00000000000E+00 0.  1.
        -13    1    3    3    0    0  0.23176615930E+02  0.15041324336E+03 -0.15080519307E+03  0.21425103398E+03  0.00000000000E+00 0. -1.
         22    1    1    2    0    0 -0.32309334313E+03 -0.84239438420E+03  0.22832748934E+04  0.24550686031E+04  0.00000000000E+00 0. -1.
<mgrwt>
<rscale>  0 0.33672732E+04</rscale>
<asrwt>0</asrwt>
<pdfrwt beam="1">  1        1 0.39560102E+00 0.33672732E+04</pdfrwt>
<pdfrwt beam="2">  1       -1 0.16959482E+00 0.33672732E+04</pdfrwt>
<totfact> 0.24686844E-01</totfact>
</mgrwt>
</event>
<event>
 6    1  0.1780144E-005  0.2251892E+04  0.7818608E-02  0.8497135E-01
         -2   -1    0    0    0  501 -0.00000000000E+00  0.00000000000E+00  0.12568169045E+04  0.12568169045E+04  0.00000000000E+00 0. -1.
          2   -1    0    0  501    0  0.00000000000E+00 -0.00000000000E+00 -0.10087023470E+04  0.10087023470E+04  0.00000000000E+00 0.  1.
         23    2    1    2    0    0 -0.11108455873E+04  0.12808311552E+03  0.10077832181E+02  0.11222587013E+04  0.94761947115E+02 0.  0.
         11    1    3    3    0    0 -0.75440782202E+03  0.44268347490E+02 -0.63243532552E+01  0.75573199347E+03  0.00000000000E+00 0. -1.
        -11    1    3    3    0    0 -0.35643776524E+03  0.83814768031E+02  0.16402185437E+02  0.36652670778E+03  0.00000000000E+00 0.  1.
         22    1    1    2    0    0  0.11108455873E+04 -0.12808311552E+03  0.23803672537E+03  0.11432605503E+04  0.00000000000E+00 0. -1.
<mgrwt>
<rscale>  0 0.22518918E+04</rscale>
<asrwt>0</asrwt>
<pdfrwt beam="1">  1        2 0.15518498E+00 0.22518918E+04</pdfrwt>
<pdfrwt beam="2">  1       -2 0.19335645E+00 0.22518918E+04</pdfrwt>
<totfact> 0.33304497E+00</totfact>
</mgrwt>
</event>
<event>
 6    1  0.1780144E-005  0.2013175E+04  0.7818608E-02  0.8600486E-01
         -1   -1    0    0    0  501 -0.00000000000E+00  0.00000000000E+00  0.53415921098E+03  0.53415921098E+03  0.00000000000E+00 0.  1.
          1   -1    0    0  501    0  0.00000000000E+00 -0.00000000000E+00 -0.18968463483E+04  0.18968463483E+04  0.00000000000E+00 0. -1.
         23    2    1    2    0    0  0.34668931572E+03 -0.89838260058E+03 -0.33598992287E+03  0.10233863108E+04  0.84531261129E+02 0.  0.
         11    1    3    3    0    0  0.12324503527E+03 -0.21794447361E+03 -0.93325491128E+02  0.26720550067E+03  0.00000000000E+00 0. -1.
        -11    1    3    3    0    0  0.22344428045E+03 -0.68043812697E+03 -0.24266443174E+03  0.75618081008E+03  0.00000000000E+00 0.  1.
         22    1    1    2    0    0 -0.34668931572E+03  0.89838260058E+03 -0.10266972145E+04  0.14076192486E+04  0.00000000000E+00 0. -1.
<mgrwt>
<rscale>  0 0.20131746E+04</rscale>
<asrwt>0</asrwt>
<pdfrwt beam="1">  1        1 0.29182252E+00 0.20131746E+04</pdfrwt>
<pdfrwt beam="2">  1       -1 0.82178338E-01 0.20131746E+04</pdfrwt>
<totfact> 0.47773793E+00</totfact>
</mgrwt>
</event>
<event>
 6    1  0.1780144E-005  0.8983191E+03  0.7818608E-02  0.9427685E-01
         -2   -1    0    0    0  501 -0.00000000000E+00  0.00000000000E+00  0.18834030658E+03  0.18834030658E+03  0.00000000000E+00 0.  1.
          2   -1    0    0  501    0  0.00000000000E+00 -0.00000000000E+00 -0.10711690116E+04  0.10711690116E+04  0.00000000000E+00 0. -1.
         23    2    1    2    0    0  0.41430303781E+03 -0.72494363277E+02 -0.64724086538E+03  0.77742626514E+03  0.92565760737E+02 0.  0.
         11    1    3    3    0    0  0.25640329173E+03 -0.88640645496E+02 -0.38751997224E+03  0.47304496713E+03  0.00000000000E+00 0.  1.
        -11    1    3    3    0    0  0.15789974608E+03  0.16146282219E+02 -0.25972089314E+03  0.30438129801E+03  0.00000000000E+00 0. -1.
         22    1    1    2    0    0 -0.41430303781E+03  0.72494363277E+02 -0.23558783966E+03  0.48208305306E+03  0.00000000000E+00 0. -1.
<mgrwt>
<rscale>  0 0.89831910E+03</rscale>
<asrwt>0</asrwt>
<pdfrwt beam="1">  1        2 0.16479523E+00 0.89831910E+03</pdfrwt>
<pdfrwt beam="2">  1       -2 0.28975432E-01 0.89831910E+03</pdfrwt>
<totfact> 0.24866045E+02</totfact>
</mgrwt>
</event>
<event>
 6    1  0.1780144E-005  0.1103721E+04  0.7818608E-02  0.9201573E-01
          4   -1    0    0  501    0  0.00000000000E+00  0.00000000000E+00  0.39264424113E+03  0.39264424113E+03  0.00000000000E+00 0.  1.
         -4   -1    0    0    0  501 -0.00000000000E+00 -0.00000000000E+00 -0.77563786107E+03  0.77563786107E+03  0.00000000000E+00 0. -1.
         23    2    1    2    0    0  0.41498763110E+03 -0.32133976871E+03 -0.25576399292E+02  0.53328521202E+03  0.90911958721E+02 0.  0.
         13    1    3    3    0    0  0.22396631894E+03 -0.21110307046E+03 -0.48409249227E+02  0.31155878063E+03  0.00000000000E+00 0.  1.
        -13    1    3    3    0    0  0.19102131216E+03 -0.11023669824E+03  0.22832849935E+02  0.22172643139E+03  0.00000000000E+00 0. -1.
         22    1    1    2    0    0 -0.41498763110E+03  0.32133976871E+03 -0.35741722064E+03  0.63499689018E+03  0.00000000000E+00 0. -1.
<mgrwt>
<rscale>  0 0.11037205E+04</rscale>
<asrwt>0</asrwt>
<pdfrwt beam="1">  1        4 0.60406806E-01 0.11037205E+04</pdfrwt>
<pdfrwt beam="2">  1       -4 0.11932890E+00 0.11037205E+04</pdfrwt>
<totfact> 0.27420171E+00</totfact>
</mgrwt>
</event>
<event>
 6    1  0.1780144E-005  0.2256470E+04  0.7818608E-02  0.8495285E-01
          1   -1    0    0  501    0  0.00000000000E+00  0.00000000000E+00  0.83916701545E+03  0.83916701545E+03  0.00000000000E+00 0. -1.
         -1   -1    0    0    0  501 -0.00000000000E+00 -0.00000000000E+00 -0.15168786317E+04  0.15168786317E+04  0.00000000000E+00 0.  1.
         23    2    1    2    0    0 -0.11911871686E+03  0.71752738652E+03 -0.12376338329E+04  0.14381416718E+04  0.86482048973E+02 0.  0.
         13    1    3    3    0    0 -0.11715864444E+03  0.57572325863E+03 -0.10464538599E+04  0.12001037870E+04  0.00000000000E+00 0. -1.
        -13    1    3    3    0    0 -0.19600724190E+01  0.14180412789E+03 -0.19117997295E+03  0.23803788486E+03  0.00000000000E+00 0.  1.
         22    1    1    2    0    0  0.11911871686E+03 -0.71752738652E+03  0.55992221668E+03  0.91790397529E+03  0.00000000000E+00 0. -1.
<mgrwt>
<rscale>  0 0.22564703E+04</rscale>
<asrwt>0</asrwt>
<pdfrwt beam="1">  1        1 0.12910262E+00 0.22564703E+04</pdfrwt>
<pdfrwt beam="2">  1       -1 0.23336594E+00 0.22564703E+04</pdfrwt>
<totfact> 0.16640232E+00</totfact>
</mgrwt>
</event>
<event>
 6    1  0.1780144E-005  0.1063386E+04  0.7818608E-02  0.9241632E-01
         -2   -1    0    0    0  501 -0.00000000000E+00  0.00000000000E+00  0.13712301572E+04  0.13712301572E+04  0.00000000000E+00 0. -1.
          2   -1    0    0  501    0  0.00000000000E+00 -0.00000000000E+00 -0.20616350607E+03  0.20616350607E+03  0.00000000000E+00 0.  1.
         23    2    1    2    0    0 -0.80244053587E+02  0.21803629321E+03  0.12898103756E+04  0.13136894160E+04  0.90499410610E+02 0.  0.
         13    1    3    3    0    0 -0.76662039007E+02  0.14610190438E+03  0.68427239184E+03  0.70388318699E+03  0.00000000000E+00 0.  1.
        -13    1    3    3    0    0 -0.35820145805E+01  0.71934388828E+02  0.60553798376E+03  0.60980622897E+03  0.00000000000E+00 0. -1.
         22    1    1    2    0    0  0.80244053587E+02 -0.21803629321E+03 -0.12474372442E+03  0.26370424736E+03  0.00000000000E+00 0.  1.
<mgrwt>
<rscale>  0 0.10633863E+04</rscale>
<asrwt>0</asrwt>
<pdfrwt beam="1">  1        2 0.31717463E-01 0.10633863E+04</pdfrwt>
<pdfrwt beam="2">  1       -2 0.21095848E+00 0.10633863E+04</pdfrwt>
<totfact> 0.18800295E+01</totfact>
</mgrwt>
</event>
<event>
 6    1  0.1780144E-005  0.8730381E+03  0.7818608E-02  0.9459927E-01
         -2   -1    0    0    0  501 -0.00000000000E+00  0.00000000000E+00  0.89242843865E+02  0.89242843865E+02  0.00000000000E+00 0.  1.
          2   -1    0    0  501    0  0.00000000000E+00 -0.00000000000E+00 -0.21351727664E+04  0.21351727664E+04  0.00000000000E+00 0. -1.
         23    2    1    2    0    0  0.91046274932E+02 -0.41423986296E+03 -0.12388646349E+04  0.13126928088E+04  0.92156054442E+02 0.  0.
         11    1    3    3    0    0  0.95620149703E+02 -0.33827861635E+03 -0.10934727516E+04  0.11485896978E+04  0.00000000000E+00 0. -1.
        -11    1    3    3    0    0 -0.45738747716E+01 -0.75961246615E+02 -0.14539188333E+03  0.16410311105E+03  0.00000000000E+00 0.  1.
         22    1    1    2    0    0 -0.91046274932E+02  0.41423986296E+03 -0.80706528762E+03  0.91172280147E+03  0.00000000000E+00 0.  1.
<mgrwt>
<rscale>  0 0.87303812E+03</rscale>
<asrwt>0</asrwt>
<pdfrwt beam="1">  1        2 0.32848813E+00 0.87303812E+03</pdfrwt>
<pdfrwt beam="2">  1       -2 0.13729668E-01 0.87303812E+03</pdfrwt>
<totfact> 0.23220785E+02</totfact>
</mgrwt>
</event>
<event>
 6    1  0.1780144E-005  0.2066317E+04  0.7818608E-02  0.8576228E-01
          2   -1    0    0  501    0  0.00000000000E+00  0.00000000000E+00  0.24919527323E+04  0.24919527323E+04  0.00000000000E+00 0. -1.
         -2   -1    0    0    0  501 -0.00000000000E+00 -0.00000000000E+00 -0.42834544753E+03  0.42834544753E+03  0.00000000000E+00 0.  1.
         23    2    1    2    0    0 -0.54322312924E+03  0.75194658743E+03  0.39607500001E+03  0.10121108307E+04  0.83533763069E+02 0.  0.
         13    1    3    3    0    0 -0.34567930506E+03  0.50225036849E+03  0.21939057961E+03  0.64798290180E+03  0.00000000000E+00 0.  1.
        -13    1    3    3    0    0 -0.19754382418E+03  0.24969621894E+03  0.17668442040E+03  0.36412792894E+03  0.00000000000E+00 0. -1.
         22    1    1    2    0    0  0.54322312924E+03 -0.75194658743E+03  0.16675322848E+04  0.19081873491E+04  0.00000000000E+00 0. -1.
<mgrwt>
<rscale>  0 0.20663171E+04</rscale>
<asrwt>0</asrwt>
<pdfrwt beam="1">  1        2 0.38337734E+00 0.20663171E+04</pdfrwt>
<pdfrwt beam="2">  1       -2 0.65899301E-01 0.20663171E+04</pdfrwt>
<totfact> 0.68940463E+00</totfact>
</mgrwt>
</event>
<event>
 6    1  0.1780144E-005  0.1661130E+04  0.7818608E-02  0.8783849E-01
          1   -1    0    0  501    0  0.00000000000E+00  0.00000000000E+00  0.12221173868E+04  0.12221173868E+04  0.00000000000E+00 0. -1.
         -1   -1    0    0    0  501 -0.00000000000E+00 -0.00000000000E+00 -0.56446143045E+03  0.56446143045E+03  0.00000000000E+00 0.  1.
         23    2    1    2    0    0  0.52214774805E+02  0.32270295920E+03  0.11478564777E+04  0.11973758525E+04  0.96285284608E+02 0.  0.
         11    1    3    3    0    0  0.63394474197E+02  0.27844525388E+03  0.86661489972E+03  0.91245383620E+03  0.00000000000E+00 0. -1.
        -11    1    3    3    0    0 -0.11179699392E+02  0.44257705317E+02  0.28124157801E+03  0.28492201627E+03  0.00000000000E+00 0.  1.
         22    1    1    2    0    0 -0.52214774805E+02 -0.32270295920E+03 -0.49020052136E+03  0.58920296480E+03  0.00000000000E+00 0.  1.
<mgrwt>
<rscale>  0 0.16611299E+04</rscale>
<asrwt>0</asrwt>
<pdfrwt beam="1">  1        1 0.18801806E+00 0.16611299E+04</pdfrwt>
<pdfrwt beam="2">  1       -1 0.86840220E-01 0.16611299E+04</pdfrwt>
<totfact> 0.12844646E+01</totfact>
</mgrwt>
</event>
<event>
 6    1  0.1780144E-005  0.2833137E+04  0.7818608E-02  0.8293054E-01
         -1   -1    0    0    0  501 -0.00000000000E+00  0.00000000000E+00  0.14493280018E+04  0.14493280018E+04  0.00000000000E+00 0.  1.
          1   -1    0    0  501    0  0.00000000000E+00 -0.00000000000E+00 -0.13845498277E+04  0.13845498277E+04  0.00000000000E+00 0. -1.
         23    2    1    2    0    0  0.14011975834E+04 -0.17210569256E+03 -0.65519277518E+02  0.14161499067E+04  0.90624198078E+02 0.  0.
         11    1    3    3    0    0  0.25853132754E+03 -0.61005751654E+02  0.79109856837E+01  0.26574937958E+03  0.00000000000E+00 0. -1.
        -11    1    3    3    0    0  0.11426662559E+04 -0.11109994090E+03 -0.73430263201E+02  0.11504005271E+04  0.00000000000E+00 0.  1.
         22    1    1    2    0    0 -0.14011975834E+04  0.17210569256E+03  0.13029745169E+03  0.14177279228E+04  0.00000000000E+00 0.  1.
<mgrwt>
<rscale>  0 0.28331374E+04</rscale>
<asrwt>0</asrwt>
<pdfrwt beam="1">  1        1 0.21300767E+00 0.28331374E+04</pdfrwt>
<pdfrwt beam="2">  1       -1 0.22297354E+00 0.28331374E+04</pdfrwt>
<totfact> 0.71491220E-01</totfact>
</mgrwt>
</event>
<event>
 6    1  0.2660583E-005  0.2381147E+04  0.7818608E-02  0.8446596E-01
         -1   -1    0    0    0  501 -0.00000000000E+00  0.00000000000E+00  0.10041277755E+04  0.10041277755E+04  0.00000000000E+00 0.  1.
          1   -1    0    0  501    0  0.00000000000E+00 -0.00000000000E+00 -0.14116381315E+04  0.14116381315E+04  0.00000000000E+00 0. -1.
         23    2    1    2    0    0  0.28108077452E+02 -0.61538939417E+03 -0.12357446973E+04  0.13835516392E+04  0.87498634386E+02 0.  0.
         13    1    3    3    0    0  0.39268737165E+01 -0.27949951116E+03 -0.65643826024E+03  0.71347500768E+03  0.00000000000E+00 0. -1.
        -13    1    3    3    0    0  0.24181203735E+02 -0.33588988300E+03 -0.57930643702E+03  0.67007663151E+03  0.00000000000E+00 0.  1.
         22    1    1    2    0    0 -0.28108077452E+02  0.61538939417E+03  0.82823434127E+03  0.10322142677E+04  0.00000000000E+00 0.  1.
<mgrwt>
<rscale>  0 0.23811468E+04</rscale>
<asrwt>0</asrwt>
<pdfrwt beam="1">  1        1 0.21717510E+00 0.23811468E+04</pdfrwt>
<pdfrwt beam="2">  1       -1 0.15448120E+00 0.23811468E+04</pdfrwt>
<totfact> 0.21796973E+00</totfact>
</mgrwt>
</event>
<event>
 6    1  0.1780144E-005  0.4187099E+04  0.7818608E-02  0.7967831E-01
          2   -1    0    0  501    0  0.00000000000E+00  0.00000000000E+00  0.27742397735E+04  0.27742397735E+04  0.00000000000E+00 0. -1.
         -2   -1    0    0    0  501 -0.00000000000E+00 -0.00000000000E+00 -0.15798737947E+04  0.15798737947E+04  0.00000000000E+00 0.  1.
         23    2    1    2    0    0  0.11542083592E+04  0.13326264764E+03  0.24072443003E+04  0.26745214474E+04  0.91016381169E+02 0.  0.
         13    1    3    3    0    0  0.95216329034E+03  0.94043612647E+02  0.20484625942E+04  0.22608976386E+04  0.00000000000E+00 0. -1.
        -13    1    3    3    0    0  0.20204506884E+03  0.39219034991E+02  0.35878170609E+03  0.41362380876E+03  0.00000000000E+00 0.  1.
         22    1    1    2    0    0 -0.11542083592E+04 -0.13326264764E+03 -0.12128783215E+04  0.16795921209E+04  0.00000000000E+00 0.  1.
<mgrwt>
<rscale>  0 0.41870986E+04</rscale>
<asrwt>0</asrwt>
<pdfrwt beam="1">  1        2 0.42680612E+00 0.41870986E+04</pdfrwt>
<pdfrwt beam="2">  1       -2 0.24305751E+00 0.41870986E+04</pdfrwt>
<totfact> 0.13205587E-01</totfact>
</mgrwt>
</event>
<event>
 6    1  0.2570260E-005  0.3646121E+04  0.7818608E-02  0.8080008E-01
          1   -1    0    0  501    0  0.00000000000E+00  0.00000000000E+00  0.26162479468E+04  0.26162479468E+04  0.00000000000E+00 0. -1.
         -1   -1    0    0    0  501 -0.00000000000E+00 -0.00000000000E+00 -0.12703493842E+04  0.12703493842E+04  0.00000000000E+00 0.  1.
         23    2    1    2    0    0  0.96971042246E+03  0.84487705406E+02 -0.96819801301E+03  0.13761154177E+04  0.93860399641E+02 0.  0.
         11    1    3    3    0    0  0.48064231494E+03  0.62276063443E+02 -0.54120335599E+03  0.72649598452E+03  0.00000000000E+00 0. -1.
        -11    1    3    3    0    0  0.48906810751E+03  0.22211641963E+02 -0.42699465703E+03  0.64961943317E+03  0.00000000000E+00 0.  1.
         22    1    1    2    0    0 -0.96971042246E+03 -0.84487705406E+02  0.23140965756E+04  0.25104819133E+04  0.00000000000E+00 0. -1.
<mgrwt>
<rscale>  0 0.36461207E+04</rscale>
<asrwt>0</asrwt>
<pdfrwt beam="1">  1        1 0.40249968E+00 0.36461207E+04</pdfrwt>
<pdfrwt beam="2">  1       -1 0.19543837E+00 0.36461207E+04</pdfrwt>
<totfact> 0.14661024E-01</totfact>
</mgrwt>
</event>
<event>
 6    1  0.1780144E-005  0.5413040E+04  0.7818608E-02  0.7767770E-01
         -2   -1    0    0    0  501 -0.00000000000E+00  0.00000000000E+00  0.24962005760E+04  0.24962005760E+04  0.00000000000E+00 0.  1.
          2   -1    0    0  501    0  0.00000000000E+00 -0.00000000000E+00 -0.29345599192E+04  0.29345599192E+04  0.00000000000E+00 0. -1.
         23    2    1    2    0    0  0.63057264307E+02 -0.14766601490E+04  0.20546022841E+04  0.25325957156E+04  0.90272356956E+02 0.  0.
         13    1    3    3    0    0  0.57103644707E+02 -0.13719593203E+04  0.18657954484E+04  0.23166194893E+04  0.00000000000E+00 0. -1.
        -13    1    3    3    0    0  0.59536196006E+01 -0.10470082872E+03  0.18880683572E+03  0.21597622632E+03  0.00000000000E+00 0.  1.
         22    1    1    2    0    0 -0.63057264307E+02  0.14766601490E+04 -0.24929616273E+04  0.28981647796E+04  0.00000000000E+00 0. -1.
<mgrwt>
<rscale>  0 0.54130399E+04</rscale>
<asrwt>0</asrwt>
<pdfrwt beam="1">  1        2 0.45147075E+00 0.54130399E+04</pdfrwt>
<pdfrwt beam="2">  1       -2 0.38403086E+00 0.54130399E+04</pdfrwt>
<totfact> 0.12710750E-02</totfact>
</mgrwt>
</event>
<event>
 6    1  0.1780144E-005  0.1673861E+04  0.7818608E-02  0.8776415E-01
          2   -1    0    0  501    0  0.00000000000E+00  0.00000000000E+00  0.16941640990E+04  0.16941640990E+04  0.00000000000E+00 0. -1.
         -2   -1    0    0    0  501 -0.00000000000E+00 -0.00000000000E+00 -0.41345016952E+03  0.41345016952E+03  0.00000000000E+00 0.  1.
         23    2    1    2    0    0 -0.83426876005E+02 -0.30738814771E+03 -0.32878518166E+03  0.46690256144E+03  0.91928174173E+02 0.  0.
         11    1    3    3    0    0  0.51188780815E+01 -0.71381303042E+02 -0.11943051943E+03  0.13923053655E+03  0.00000000000E+00 0.  1.
        -11    1    3    3    0    0 -0.88545754087E+02 -0.23600684467E+03 -0.20935466223E+03  0.32767202489E+03  0.00000000000E+00 0. -1.
         22    1    1    2    0    0  0.83426876005E+02  0.30738814771E+03  0.16094991112E+04  0.16407117071E+04  0.00000000000E+00 0. -1.
<mgrwt>
<rscale>  0 0.16738607E+04</rscale>
<asrwt>0</asrwt>
<pdfrwt beam="1">  1        2 0.26064063E+00 0.16738607E+04</pdfrwt>
<pdfrwt beam="2">  1       -2 0.63607719E-01 0.16738607E+04</pdfrwt>
<totfact> 0.21544081E+01</totfact>
</mgrwt>
</event>
<event>
 6    1  0.1780144E-005  0.3413264E+04  0.7818608E-02  0.8134659E-01
          1   -1    0    0  501    0  0.00000000000E+00  0.00000000000E+00  0.20044836957E+04  0.20044836957E+04  0.00000000000E+00 0. -1.
         -1   -1    0    0    0  501 -0.00000000000E+00 -0.00000000000E+00 -0.14530385486E+04  0.14530385486E+04  0.00000000000E+00 0.  1.
         23    2    1    2    0    0 -0.13217471864E+04 -0.92790154652E+03  0.83129655675E+03  0.18185183650E+04  0.89096429128E+02 0.  0.
         11    1    3    3    0    0 -0.57893836182E+03 -0.44932674354E+03  0.34644682752E+03  0.81061060538E+03  0.00000000000E+00 0. -1.
        -11    1    3    3    0    0 -0.74280882461E+03 -0.47857480298E+03  0.48484972923E+03  0.10079077596E+04  0.00000000000E+00 0.  1.
         22    1    1    2    0    0  0.13217471864E+04  0.92790154652E+03 -0.27985140963E+03  0.16390038793E+04  0.00000000000E+00 0.  1.
<mgrwt>
<rscale>  0 0.34132636E+04</rscale>
<asrwt>0</asrwt>
<pdfrwt beam="1">  1        1 0.30838211E+00 0.34132636E+04</pdfrwt>
<pdfrwt beam="2">  1       -1 0.22354439E+00 0.34132636E+04</pdfrwt>
<totfact> 0.25342084E-01</totfact>
</mgrwt>
</event>
<event>
 6    1  0.1780144E-005  0.3308710E+04  0.7818608E-02  0.8160683E-01
         -2   -1    0    0    0  501 -0.00000000000E+00  0.00000000000E+00  0.10009363570E+04  0.10009363570E+04  0.00000000000E+00 0. -1.
          2   -1    0    0  501    0  0.00000000000E+00 -0.00000000000E+00 -0.27343306877E+04  0.27343306877E+04  0.00000000000E+00 0.  1.
         23    2    1    2    0    0 -0.25041400775E+03 -0.14327939586E+04  0.19406401770E+02  0.14575673036E+04  0.92304566306E+02 0.  0.
         11    1    3    3    0    0 -0.17234884791E+03 -0.73069040377E+03 -0.39339375909E+01  0.75075166826E+03  0.00000000000E+00 0. -1.
        -11    1    3    3    0    0 -0.78065159839E+02 -0.70210355485E+03  0.23340339361E+02  0.70681563533E+03  0.00000000000E+00 0.  1.
         22    1    1    2    0    0  0.25041400775E+03  0.14327939586E+04 -0.17528007324E+04  0.22776997411E+04  0.00000000000E+00 0.  1.
<mgrwt>
<rscale>  0 0.33087103E+04</rscale>
<asrwt>0</asrwt>
<pdfrwt beam="1">  1        2 0.42066625E+00 0.33087103E+04</pdfrwt>
<pdfrwt beam="2">  1       -2 0.15399021E+00 0.33087103E+04</pdfrwt>
<totfact> 0.59037409E-01</totfact>
</mgrwt>
</event>
<event>
 6    1  0.1780144E-005  0.2667074E+04  0.7818608E-02  0.8345768E-01
         -2   -1    0    0    0  501 -0.00000000000E+00  0.00000000000E+00  0.58699328372E+03  0.58699328372E+03  0.00000000000E+00 0.  1.
          2   -1    0    0  501    0  0.00000000000E+00 -0.00000000000E+00 -0.30295416017E+04  0.30295416017E+04  0.00000000000E+00 0. -1.
         23    2    1    2    0    0 -0.28970403249E+03 -0.11885314325E+04 -0.19365121412E+04  0.22926738638E+04  0.98685258476E+02 0.  0.
         11    1    3    3    0    0 -0.24063360367E+03 -0.84440959955E+03 -0.13321893369E+04  0.15955126237E+04  0.00000000000E+00 0. -1.
        -11    1    3    3    0    0 -0.49070428824E+02 -0.34412183291E+03 -0.60432280435E+03  0.69716124012E+03  0.00000000000E+00 0.  1.
         22    1    1    2    0    0  0.28970403249E+03  0.11885314325E+04 -0.50603617676E+03  0.13238610216E+04  0.00000000000E+00 0.  1.
<mgrwt>
<rscale>  0 0.26670737E+04</rscale>
<asrwt>0</asrwt>
<pdfrwt beam="1">  1        2 0.46608332E+00 0.26670737E+04</pdfrwt>
<pdfrwt beam="2">  1       -2 0.90306660E-01 0.26670737E+04</pdfrwt>
<totfact> 0.15383817E+00</totfact>
</mgrwt>
</event>
<event>
 6    1  0.1780144E-005  0.1382276E+04  0.7818608E-02  0.8966749E-01
          2   -1    0    0  501    0  0.00000000000E+00  0.00000000000E+00  0.69391381438E+03  0.69391381438E+03  0.00000000000E+00 0. -1.
         -2   -1    0    0    0  501 -0.00000000000E+00 -0.00000000000E+00 -0.68837360851E+03  0.68837360851E+03  0.00000000000E+00 0.  1.
         23    2    1    2    0    0 -0.48472412092E+03 -0.20247909656E+03  0.44701143629E+03  0.69610078265E+03  0.93711351935E+02 0.  0.
         13    1    3    3    0    0 -0.38676047065E+03 -0.15378022819E+03  0.30097870946E+03  0.51363430940E+03  0.00000000000E+00 0. -1.
        -13    1    3    3    0    0 -0.97963650268E+02 -0.48698868370E+02  0.14603272684E+03  0.18246647325E+03  0.00000000000E+00 0.  1.
         22    1    1    2    0    0  0.48472412092E+03  0.20247909656E+03 -0.44147123042E+03  0.68618664023E+03  0.00000000000E+00 0.  1.
<mgrwt>
<rscale>  0 0.13822763E+04</rscale>
<asrwt>0</asrwt>
<pdfrwt beam="1">  1        2 0.10675597E+00 0.13822763E+04</pdfrwt>
<pdfrwt beam="2">  1       -2 0.10590363E+00 0.13822763E+04</pdfrwt>
<totfact> 0.29077064E+01</totfact>
</mgrwt>
</event>
<event>
 6    1  0.1780144E-005  0.2274503E+04  0.7818608E-02  0.8488043E-01
          1   -1    0    0  501    0  0.00000000000E+00  0.00000000000E+00  0.97609308323E+03  0.97609308323E+03  0.00000000000E+00 0. -1.
         -1   -1    0    0    0  501 -0.00000000000E+00 -0.00000000000E+00 -0.13250177075E+04  0.13250177075E+04  0.00000000000E+00 0.  1.
         23    2    1    2    0    0  0.18364933793E+03  0.36316228179E+03  0.89742299587E+03  0.99000579400E+03  0.95548502929E+02 0.  0.
         13    1    3    3    0    0  0.70499171340E+02  0.24127371351E+03  0.52014701243E+03  0.57769892897E+03  0.00000000000E+00 0. -1.
        -13    1    3    3    0    0  0.11315016659E+03  0.12188856828E+03  0.37727598343E+03  0.41230686503E+03  0.00000000000E+00 0.  1.
         22    1    1    2    0    0 -0.18364933793E+03 -0.36316228179E+03 -0.12463476201E+04  0.13111049967E+04  0.00000000000E+00 0.  1.
<mgrwt>
<rscale>  0 0.22745027E+04</rscale>
<asrwt>0</asrwt>
<pdfrwt beam="1">  1        1 0.15016817E+00 0.22745027E+04</pdfrwt>
<pdfrwt beam="2">  1       -1 0.20384888E+00 0.22745027E+04</pdfrwt>
<totfact> 0.20267388E+00</totfact>
</mgrwt>
</event>
<event>
 6    1  0.1780144E-005  0.3875061E+04  0.7818608E-02  0.8030236E-01
          2   -1    0    0  501    0  0.00000000000E+00  0.00000000000E+00  0.22127452673E+04  0.22127452673E+04  0.00000000000E+00 0. -1.
         -2   -1    0    0    0  501 -0.00000000000E+00 -0.00000000000E+00 -0.16965461077E+04  0.16965461077E+04  0.00000000000E+00 0.  1.
         23    2    1    2    0    0 -0.13183994983E+04  0.30468058750E+03  0.16556662786E+04  0.21402823833E+04  0.92576221162E+02 0.  0.
         11    1    3    3    0    0 -0.53215732918E+03  0.13301755830E+03  0.60173856696E+03  0.81423239728E+03  0.00000000000E+00 0.  1.
        -11    1    3    3    0    0 -0.78624216908E+03  0.17166302920E+03  0.10539277117E+04  0.13260499860E+04  0.00000000000E+00 0. -1.
         22    1    1    2    0    0  0.13183994983E+04 -0.30468058750E+03 -0.11394671191E+04  0.17690089917E+04  0.00000000000E+00 0.  1.
<mgrwt>
<rscale>  0 0.38750610E+04</rscale>
<asrwt>0</asrwt>
<pdfrwt beam="1">  1        2 0.34042235E+00 0.38750610E+04</pdfrwt>
<pdfrwt beam="2">  1       -2 0.26100709E+00 0.38750610E+04</pdfrwt>
<totfact> 0.22266087E-01</totfact>
</mgrwt>
</event>
<event>
 6    1  0.1780144E-005  0.1953756E+04  0.7818608E-02  0.8628552E-01
          1   -1    0    0  501    0  0.00000000000E+00  0.00000000000E+00  0.25057573694E+04  0.25057573694E+04  0.00000000000E+00 0. -1.
         -1   -1    0    0    0  501 -0.00000000000E+00 -0.00000000000E+00 -0.38083923633E+03  0.38083923633E+03  0.00000000000E+00 0.  1.
         23    2    1    2    0    0 -0.24026873225E+03 -0.91472426286E+03  0.14135508351E+04  0.17031723482E+04  0.90667212309E+02 0.  0.
         13    1    3    3    0    0 -0.52701727184E+02 -0.34342224871E+03  0.47458761697E+03  0.58817490523E+03  0.00000000000E+00 0.  1.
        -13    1    3    3    0    0 -0.18756700507E+03 -0.57130201415E+03  0.93896321817E+03  0.11149974430E+04  0.00000000000E+00 0. -1.
         22    1    1    2    0    0  0.24026873225E+03  0.91472426286E+03  0.71136729795E+03  0.11834242576E+04  0.00000000000E+00 0.  1.
<mgrwt>
<rscale>  0 0.19537561E+04</rscale>
<asrwt>0</asrwt>
<pdfrwt beam="1">  1        1 0.38550112E+00 0.19537561E+04</pdfrwt>
<pdfrwt beam="2">  1       -1 0.58590653E-01 0.19537561E+04</pdfrwt>
<totfact> 0.36928142E+00</totfact>
</mgrwt>
</event>
<event>
 6    1  0.1780144E-005  0.1902689E+04  0.7818608E-02  0.8653519E-01
          2   -1    0    0  501    0  0.00000000000E+00  0.00000000000E+00  0.18297155694E+04  0.18297155694E+04  0.00000000000E+00 0. -1.
         -2   -1    0    0    0  501 -0.00000000000E+00 -0.00000000000E+00 -0.49464307090E+03  0.49464307090E+03  0.00000000000E+00 0.  1.
         23    2    1    2    0    0  0.26861792364E+03 -0.91097597531E+03  0.68499969839E+03  0.11734340286E+04  0.75432195209E+02 0.  0.
         13    1    3    3    0    0  0.14904622539E+03 -0.39480596031E+03  0.32915067034E+03  0.53518845969E+03  0.00000000000E+00 0.  1.
        -13    1    3    3    0    0  0.11957169825E+03 -0.51617001500E+03  0.35584902805E+03  0.63824556886E+03  0.00000000000E+00 0. -1.
         22    1    1    2    0    0 -0.26861792364E+03  0.91097597531E+03  0.65007280014E+03  0.11509246118E+04  0.00000000000E+00 0.  1.
<mgrwt>
<rscale>  0 0.19026888E+04</rscale>
<asrwt>0</asrwt>
<pdfrwt beam="1">  1        2 0.28149470E+00 0.19026888E+04</pdfrwt>
<pdfrwt beam="2">  1       -2 0.76098935E-01 0.19026888E+04</pdfrwt>
<totfact> 0.12024468E+01</totfact>
</mgrwt>
</event>
<event>
 6    1  0.1780144E-005  0.2577167E+04  0.7818608E-02  0.8375999E-01
          1   -1    0    0  501    0  0.00000000000E+00  0.00000000000E+00  0.75867623252E+03  0.75867623252E+03  0.00000000000E+00 0. -1.
         -1   -1    0    0    0  501 -0.00000000000E+00 -0.00000000000E+00 -0.21886119943E+04  0.21886119943E+04  0.00000000000E+00 0.  1.
         23    2    1    2    0    0  0.12031362419E+04  0.21581570012E+03 -0.25557773543E+03  0.12522277539E+04  0.92957709727E+02 0.  0.
         11    1    3    3    0    0  0.82879634033E+03  0.12928120063E+03 -0.13552299885E+03  0.84969611379E+03  0.00000000000E+00 0. -1.
        -11    1    3    3    0    0  0.37433990154E+03  0.86534499487E+02 -0.12005473658E+03  0.40253164008E+03  0.00000000000E+00 0.  1.
         22    1    1    2    0    0 -0.12031362419E+04 -0.21581570012E+03 -0.11743580263E+04  0.16950604730E+04  0.00000000000E+00 0.  1.
<mgrwt>
<rscale>  0 0.25771674E+04</rscale>
<asrwt>0</asrwt>
<pdfrwt beam="1">  1        1 0.11671942E+00 0.25771674E+04</pdfrwt>
<pdfrwt beam="2">  1       -1 0.33670953E+00 0.25771674E+04</pdfrwt>
<totfact> 0.40381358E-01</totfact>
</mgrwt>
</event>
<event>
 6    1  0.1780144E-005  0.1855967E+04  0.7818608E-02  0.8677090E-01
          2   -1    0    0  501    0  0.00000000000E+00  0.00000000000E+00  0.94705151602E+03  0.94705151602E+03  0.00000000000E+00 0. -1.
         -2   -1    0    0    0  501 -0.00000000000E+00 -0.00000000000E+00 -0.90929974264E+03  0.90929974264E+03  0.00000000000E+00 0.  1.
         23    2    1    2    0    0  0.29091192490E+03 -0.82349732721E+03  0.32585704606E+03  0.93668705684E+03  0.91772719257E+02 0.  0.
         11    1    3    3    0    0  0.14567642332E+03 -0.46629984325E+03  0.13726686492E+03  0.50744394403E+03  0.00000000000E+00 0. -1.
        -11    1    3    3    0    0  0.14523550158E+03 -0.35719748396E+03  0.18859018114E+03  0.42924311281E+03  0.00000000000E+00 0.  1.
         22    1    1    2    0    0 -0.29091192490E+03  0.82349732721E+03 -0.28810527268E+03  0.91966420183E+03  0.00000000000E+00 0.  1.
<mgrwt>
<rscale>  0 0.18559673E+04</rscale>
<asrwt>0</asrwt>
<pdfrwt beam="1">  1        2 0.14570023E+00 0.18559673E+04</pdfrwt>
<pdfrwt beam="2">  1       -2 0.13989227E+00 0.18559673E+04</pdfrwt>
<totfact> 0.92233392E+00</totfact>
</mgrwt>
</event>
<event>
 6    1  0.1780144E-005  0.4167476E+04  0.7818608E-02  0.7971588E-01
         -2   -1    0    0    0  501 -0.00000000000E+00  0.00000000000E+00  0.92320159784E+03  0.92320159784E+03  0.00000000000E+00 0.  1.
          2   -1    0    0  501    0  0.00000000000E+00 -0.00000000000E+00 -0.47031585954E+04  0.47031585954E+04  0.00000000000E+00 0. -1.
         23    2    1    2    0    0 -0.19526646688E+04 -0.55651970298E+03 -0.25168947690E+04  0.32351388146E+04  0.93543481616E+02 0.  0.
         13    1    3    3    0    0 -0.56967698759E+03 -0.20535673827E+03 -0.73254333621E+03  0.95043305896E+03  0.00000000000E+00 0.  1.
        -13    1    3    3    0    0 -0.13829876812E+04 -0.35116296471E+03 -0.17843514328E+04  0.22847057557E+04  0.00000000000E+00 0. -1.
         22    1    1    2    0    0  0.19526646688E+04  0.55651970298E+03 -0.12630622285E+04  0.23912213786E+04  0.00000000000E+00 0. -1.
<mgrwt>
<rscale>  0 0.41674757E+04</rscale>
<asrwt>0</asrwt>
<pdfrwt beam="1">  1        2 0.72356287E+00 0.41674757E+04</pdfrwt>
<pdfrwt beam="2">  1       -2 0.14203101E+00 0.41674757E+04</pdfrwt>
<totfact> 0.20303261E-02</totfact>
</mgrwt>
</event>
<event>
 6    1  0.1780144E-005  0.1676090E+04  0.7818608E-02  0.8775120E-01
         -1   -1    0    0    0  501 -0.00000000000E+00  0.00000000000E+00  0.59049898337E+03  0.59049898337E+03  0.00000000000E+00 0.  1.
          1   -1    0    0  501    0  0.00000000000E+00 -0.00000000000E+00 -0.11893656585E+04  0.11893656585E+04  0.00000000000E+00 0. -1.
         23    2    1    2    0    0  0.24568870874E+03 -0.68651275992E+03  0.13300561649E+03  0.74676263219E+03  0.91111051383E+02 0.  0.
         11    1    3    3    0    0  0.16798372717E+03 -0.43652104132E+03  0.12799595857E+03  0.48492485760E+03  0.00000000000E+00 0. -1.
        -11    1    3    3    0    0  0.77704981568E+02 -0.24999171861E+03  0.50096579170E+01  0.26183777459E+03  0.00000000000E+00 0.  1.
         22    1    1    2    0    0 -0.24568870874E+03  0.68651275992E+03 -0.73187229157E+03  0.10331020096E+04  0.00000000000E+00 0. -1.
<mgrwt>
<rscale>  0 0.16760897E+04</rscale>
<asrwt>0</asrwt>
<pdfrwt beam="1">  1        1 0.18297933E+00 0.16760897E+04</pdfrwt>
<pdfrwt beam="2">  1       -1 0.90845998E-01 0.16760897E+04</pdfrwt>
<totfact> 0.12275198E+01</totfact>
</mgrwt>
</event>
<event>
 6    1  0.1780144E-005  0.1746821E+04  0.7818608E-02  0.8735102E-01
         -1   -1    0    0    0  501 -0.00000000000E+00  0.00000000000E+00  0.20877245728E+03  0.20877245728E+03  0.00000000000E+00 0.  1.
          1   -1    0    0  501    0  0.00000000000E+00 -0.00000000000E+00 -0.36539566947E+04  0.36539566947E+04  0.00000000000E+00 0. -1.
         23    2    1    2    0    0  0.33891798735E+03 -0.42795858924E+03 -0.32281821978E+04  0.32752737567E+04  0.90796049779E+02 0.  0.
         13    1    3    3    0    0 -0.29612225990E+01 -0.20433821470E+02 -0.15915893907E+03  0.16049260976E+03  0.00000000000E+00 0. -1.
        -13    1    3    3    0    0  0.34187920995E+03 -0.40752476777E+03 -0.30690232588E+04  0.31147811469E+04  0.00000000000E+00 0.  1.
         22    1    1    2    0    0 -0.33891798735E+03  0.42795858924E+03 -0.21700203957E+03  0.58745539527E+03  0.00000000000E+00 0.  1.
<mgrwt>
<rscale>  0 0.17468206E+04</rscale>
<asrwt>0</asrwt>
<pdfrwt beam="1">  1        1 0.56214716E+00 0.17468206E+04</pdfrwt>
<pdfrwt beam="2">  1       -1 0.32118841E-01 0.17468206E+04</pdfrwt>
<totfact> 0.16273245E+00</totfact>
</mgrwt>
</event>
<event>
 6    1  0.1780144E-005  0.1471292E+04  0.7818608E-02  0.8903771E-01
          4   -1    0    0  501    0  0.00000000000E+00  0.00000000000E+00  0.64901390944E+03  0.64901390944E+03  0.00000000000E+00 0.  1.
         -4   -1    0    0    0  501 -0.00000000000E+00 -0.00000000000E+00 -0.83384220748E+03  0.83384220748E+03  0.00000000000E+00 0. -1.
         23    2    1    2    0    0 -0.21328919897E+03 -0.63788721364E+03  0.20028912786E+03  0.70780269202E+03  0.92068107249E+02 0.  0.
         13    1    3    3    0    0 -0.43017246785E+02 -0.18763560483E+03  0.19056154133E+02  0.19344441251E+03  0.00000000000E+00 0.  1.
        -13    1    3    3    0    0 -0.17027195218E+03 -0.45025160881E+03  0.18123297373E+03  0.51435827951E+03  0.00000000000E+00 0. -1.
         22    1    1    2    0    0  0.21328919897E+03  0.63788721364E+03 -0.38511742590E+03  0.77505342490E+03  0.00000000000E+00 0. -1.
<mgrwt>
<rscale>  0 0.14712922E+04</rscale>
<asrwt>0</asrwt>
<pdfrwt beam="1">  1        4 0.99848294E-01 0.14712922E+04</pdfrwt>
<pdfrwt beam="2">  1       -4 0.12828342E+00 0.14712922E+04</pdfrwt>
<totfact> 0.71773656E-01</totfact>
</mgrwt>
</event>
<event>
 6    1  0.1878039E-005  0.3453089E+04  0.7818608E-02  0.8124998E-01
          2   -1    0    0  501    0  0.00000000000E+00  0.00000000000E+00  0.22476698012E+04  0.22476698012E+04  0.00000000000E+00 0.  1.
         -2   -1    0    0    0  501 -0.00000000000E+00 -0.00000000000E+00 -0.13262424524E+04  0.13262424524E+04  0.00000000000E+00 0. -1.
         23    2    1    2    0    0 -0.10910389883E+04  0.13158577656E+04  0.21888024519E+03  0.17258267128E+04  0.93389225707E+02 0.  0.
         11    1    3    3    0    0 -0.44479712980E+03  0.58115448175E+03  0.57046320388E+02  0.73405674236E+03  0.00000000000E+00 0.  1.
        -11    1    3    3    0    0 -0.64624185850E+03  0.73470328385E+03  0.16183392480E+03  0.99176997040E+03  0.00000000000E+00 0. -1.
         22    1    1    2    0    0  0.10910389883E+04 -0.13158577656E+04  0.70254710359E+03  0.18480855408E+04  0.00000000000E+00 0.  1.
<mgrwt>
<rscale>  0 0.34530885E+04</rscale>
<asrwt>0</asrwt>
<pdfrwt beam="1">  1        2 0.34579535E+00 0.34530885E+04</pdfrwt>
<pdfrwt beam="2">  1       -2 0.20403730E+00 0.34530885E+04</pdfrwt>
<totfact> 0.50108018E-01</totfact>
</mgrwt>
</event>
<event>
 6    1  0.1780144E-005  0.2159448E+04  0.7818608E-02  0.8535499E-01
         -2   -1    0    0    0  501 -0.00000000000E+00  0.00000000000E+00  0.93526474264E+03  0.93526474264E+03  0.00000000000E+00 0. -1.
          2   -1    0    0  501    0  0.00000000000E+00 -0.00000000000E+00 -0.12464960545E+04  0.12464960545E+04  0.00000000000E+00 0.  1.
         23    2    1    2    0    0  0.50197589598E+03  0.37253524325E+03  0.73125146012E+03  0.96622279384E+03  0.89974895437E+02 0.  0.
         13    1    3    3    0    0  0.31700080603E+03  0.27184327651E+03  0.43788866244E+03  0.60509070287E+03  0.00000000000E+00 0. -1.
        -13    1    3    3    0    0  0.18497508994E+03  0.10069196674E+03  0.29336279768E+03  0.36113209097E+03  0.00000000000E+00 0.  1.
         22    1    1    2    0    0 -0.50197589598E+03 -0.37253524325E+03 -0.10424827720E+04  0.12155380033E+04  0.00000000000E+00 0.  1.
<mgrwt>
<rscale>  0 0.21594479E+04</rscale>
<asrwt>0</asrwt>
<pdfrwt beam="1">  1        2 0.19176862E+00 0.21594479E+04</pdfrwt>
<pdfrwt beam="2">  1       -2 0.14388688E+00 0.21594479E+04</pdfrwt>
<totfact> 0.54504992E+00</totfact>
</mgrwt>
</event>
<event>
 6    1  0.1780144E-005  0.1776061E+04  0.7818608E-02  0.8719134E-01
         -2   -1    0    0    0  501 -0.00000000000E+00  0.00000000000E+00  0.39287625899E+03  0.39287625899E+03  0.00000000000E+00 0.  1.
          2   -1    0    0  501    0  0.00000000000E+00 -0.00000000000E+00 -0.20072433375E+04  0.20072433375E+04  0.00000000000E+00 0. -1.
         23    2    1    2    0    0 -0.62657727368E+03 -0.16722932558E+03 -0.16244687452E+04  0.17515313058E+04  0.91643241740E+02 0.  0.
         13    1    3    3    0    0 -0.57435783528E+03 -0.17579330852E+03 -0.15212085974E+04  0.16355016989E+04  0.00000000000E+00 0. -1.
        -13    1    3    3    0    0 -0.52219438398E+02  0.85639829373E+01 -0.10326014779E+03  0.11602960688E+03  0.00000000000E+00 0.  1.
         22    1    1    2    0    0  0.62657727368E+03  0.16722932558E+03  0.10101666652E+02  0.64858829075E+03  0.00000000000E+00 0.  1.
<mgrwt>
<rscale>  0 0.17760611E+04</rscale>
<asrwt>0</asrwt>
<pdfrwt beam="1">  1        2 0.30880668E+00 0.17760611E+04</pdfrwt>
<pdfrwt beam="2">  1       -2 0.60442500E-01 0.17760611E+04</pdfrwt>
<totfact> 0.15965948E+01</totfact>
</mgrwt>
</event>
<event>
 6    1  0.1780144E-005  0.4370721E+04  0.7818608E-02  0.7933669E-01
         -2   -1    0    0    0  501 -0.00000000000E+00  0.00000000000E+00  0.17085002767E+04  0.17085002767E+04  0.00000000000E+00 0.  1.
          2   -1    0    0  501    0  0.00000000000E+00 -0.00000000000E+00 -0.27953168028E+04  0.27953168028E+04  0.00000000000E+00 0. -1.
         23    2    1    2    0    0 -0.59457151756E+03  0.19999114426E+04  0.12296797717E+03  0.20920252949E+04  0.91036495415E+02 0.  0.
         13    1    3    3    0    0 -0.46965406547E+03  0.16159220949E+04  0.13363771046E+03  0.16880871410E+04  0.00000000000E+00 0.  1.
        -13    1    3    3    0    0 -0.12491745209E+03  0.38398934766E+03 -0.10669733290E+02  0.40393815389E+03  0.00000000000E+00 0. -1.
         22    1    1    2    0    0  0.59457151756E+03 -0.19999114426E+04 -0.12097845033E+04  0.24117917846E+04  0.00000000000E+00 0.  1.
<mgrwt>
<rscale>  0 0.43707205E+04</rscale>
<asrwt>0</asrwt>
<pdfrwt beam="1">  1        2 0.43004873E+00 0.43707205E+04</pdfrwt>
<pdfrwt beam="2">  1       -2 0.26284620E+00 0.43707205E+04</pdfrwt>
<totfact> 0.95499634E-02</totfact>
</mgrwt>
</event>
<event>
 6    1  0.1780144E-005  0.2286633E+04  0.7818608E-02  0.8483210E-01
          2   -1    0    0  501    0  0.00000000000E+00  0.00000000000E+00  0.15416818557E+04  0.15416818557E+04  0.00000000000E+00 0.  1.
         -2   -1    0    0    0  501 -0.00000000000E+00 -0.00000000000E+00 -0.84788762295E+03  0.84788762295E+03  0.00000000000E+00 0. -1.
         23    2    1    2    0    0 -0.10000071198E+04  0.16139637662E+03 -0.20245647770E+03  0.10370428187E+04  0.91685071619E+02 0.  0.
         13    1    3    3    0    0 -0.64870896384E+03  0.75692749470E+02 -0.96228847886E+02  0.66016111916E+03  0.00000000000E+00 0. -1.
        -13    1    3    3    0    0 -0.35129815594E+03  0.85703627154E+02 -0.10622762982E+03  0.37688169949E+03  0.00000000000E+00 0.  1.
         22    1    1    2    0    0  0.10000071198E+04 -0.16139637662E+03  0.89625071046E+03  0.13525266600E+04  0.00000000000E+00 0.  1.
<mgrwt>
<rscale>  0 0.22866333E+04</rscale>
<asrwt>0</asrwt>
<pdfrwt beam="1">  1        2 0.23718182E+00 0.22866333E+04</pdfrwt>
<pdfrwt beam="2">  1       -2 0.13044425E+00 0.22866333E+04</pdfrwt>
<totfact> 0.46998993E+00</totfact>
</mgrwt>
</event>
<event>
 6    1  0.1780144E-005  0.1780036E+04  0.7818608E-02  0.8716989E-01
          2   -1    0    0  501    0  0.00000000000E+00  0.00000000000E+00  0.65301467810E+03  0.65301467810E+03  0.00000000000E+00 0.  1.
         -2   -1    0    0    0  501 -0.00000000000E+00 -0.00000000000E+00 -0.12130381930E+04  0.12130381930E+04  0.00000000000E+00 0. -1.
         23    2    1    2    0    0  0.65329293952E+03 -0.59966420548E+03 -0.23870983878E+03  0.92285018736E+03  0.91001412115E+02 0.  0.
         11    1    3    3    0    0  0.39432653296E+03 -0.39150761274E+03 -0.10951309696E+03  0.56636096602E+03  0.00000000000E+00 0.  1.
        -11    1    3    3    0    0  0.25896640656E+03 -0.20815659275E+03 -0.12919674182E+03  0.35648922134E+03  0.00000000000E+00 0. -1.
         22    1    1    2    0    0 -0.65329293952E+03  0.59966420548E+03 -0.32131367614E+03  0.94320268375E+03  0.00000000000E+00 0. -1.
<mgrwt>
<rscale>  0 0.17800357E+04</rscale>
<asrwt>0</asrwt>
<pdfrwt beam="1">  1        2 0.10046380E+00 0.17800357E+04</pdfrwt>
<pdfrwt beam="2">  1       -2 0.18662126E+00 0.17800357E+04</pdfrwt>
<totfact> 0.68997113E+00</totfact>
</mgrwt>
</event>
<event>
 6    1  0.1780144E-005  0.4980603E+04  0.7818608E-02  0.7831506E-01
          2   -1    0    0  501    0  0.00000000000E+00  0.00000000000E+00  0.41837539087E+04  0.41837539087E+04  0.00000000000E+00 0.  1.
         -2   -1    0    0    0  501 -0.00000000000E+00 -0.00000000000E+00 -0.14823056011E+04  0.14823056011E+04  0.00000000000E+00 0. -1.
         23    2    1    2    0    0  0.15369402600E+04  0.10807996469E+04  0.32090689029E+04  0.37197830885E+04  0.91377031628E+02 0.  0.
         13    1    3    3    0    0  0.32049287894E+03  0.19112011729E+03  0.59174072837E+03  0.69957106451E+03  0.00000000000E+00 0. -1.
        -13    1    3    3    0    0  0.12164473811E+04  0.88967952962E+03  0.26173281745E+04  0.30202120240E+04  0.00000000000E+00 0.  1.
         22    1    1    2    0    0 -0.15369402600E+04 -0.10807996469E+04 -0.50762059524E+03  0.19462764214E+04  0.00000000000E+00 0. -1.
<mgrwt>
<rscale>  0 0.49806031E+04</rscale>
<asrwt>0</asrwt>
<pdfrwt beam="1">  1        2 0.64365444E+00 0.49806031E+04</pdfrwt>
<pdfrwt beam="2">  1       -2 0.22804702E+00 0.49806031E+04</pdfrwt>
<totfact> 0.15306909E-02</totfact>
</mgrwt>
</event>
<event>
 6    1  0.1780144E-005  0.2224636E+04  0.7818608E-02  0.8508243E-01
         -2   -1    0    0    0  501 -0.00000000000E+00  0.00000000000E+00  0.78081455301E+03  0.78081455301E+03  0.00000000000E+00 0.  1.
          2   -1    0    0  501    0  0.00000000000E+00 -0.00000000000E+00 -0.15845654989E+04  0.15845654989E+04  0.00000000000E+00 0. -1.
         23    2    1    2    0    0 -0.19023051602E+03  0.51292301361E+03  0.62380998380E+03  0.83658710481E+03  0.10705802593E+03 0.  0.
         13    1    3    3    0    0 -0.52763599034E+02  0.28842272290E+03  0.35347720421E+03  0.45925787784E+03  0.00000000000E+00 0. -1.
        -13    1    3    3    0    0 -0.13746691698E+03  0.22450029072E+03  0.27033277960E+03  0.37732922696E+03  0.00000000000E+00 0.  1.
         22    1    1    2    0    0  0.19023051602E+03 -0.51292301361E+03 -0.14275609297E+04  0.15287929471E+04  0.00000000000E+00 0. -1.
<mgrwt>
<rscale>  0 0.22246364E+04</rscale>
<asrwt>0</asrwt>
<pdfrwt beam="1">  1        2 0.24377930E+00 0.22246364E+04</pdfrwt>
<pdfrwt beam="2">  1       -2 0.12012532E+00 0.22246364E+04</pdfrwt>
<totfact> 0.54968940E+00</totfact>
</mgrwt>
</event>
<event>
 6    1  0.1780144E-005  0.1235613E+04  0.7818608E-02  0.9082244E-01
         -1   -1    0    0    0  501 -0.00000000000E+00  0.00000000000E+00  0.42568389652E+03  0.42568389652E+03  0.00000000000E+00 0.  1.
          1   -1    0    0  501    0  0.00000000000E+00 -0.00000000000E+00 -0.89663856121E+03  0.89663856121E+03  0.00000000000E+00 0. -1.
         23    2    1    2    0    0  0.31809909257E+03  0.51727424056E+03 -0.13672346572E+03  0.62916290394E+03  0.91613213958E+02 0.  0.
         11    1    3    3    0    0  0.10562291546E+03  0.17448205289E+03 -0.90783034677E+02  0.22325265158E+03  0.00000000000E+00 0. -1.
        -11    1    3    3    0    0  0.21247617711E+03  0.34279218767E+03 -0.45940431043E+02  0.40591025236E+03  0.00000000000E+00 0.  1.
         22    1    1    2    0    0 -0.31809909257E+03 -0.51727424056E+03 -0.33423119897E+03  0.69315955379E+03  0.00000000000E+00 0. -1.
<mgrwt>
<rscale>  0 0.12356126E+04</rscale>
<asrwt>0</asrwt>
<pdfrwt beam="1">  1        1 0.13794439E+00 0.12356126E+04</pdfrwt>
<pdfrwt beam="2">  1       -1 0.65489831E-01 0.12356126E+04</pdfrwt>
<totfact> 0.42735804E+01</totfact>
</mgrwt>
</event>
<event>
 6    1  0.1780144E-005  0.9873075E+03  0.7818608E-02  0.9322576E-01
          1   -1    0    0  501    0  0.00000000000E+00  0.00000000000E+00  0.37621464250E+03  0.37621464250E+03  0.00000000000E+00 0. -1.
         -1   -1    0    0    0  501 -0.00000000000E+00 -0.00000000000E+00 -0.64775268782E+03  0.64775268782E+03  0.00000000000E+00 0.  1.
         23    2    1    2    0    0 -0.10251247443E+03  0.33349034597E+03 -0.49299782499E+03  0.61072520725E+03  0.90630045018E+02 0.  0.
         13    1    3    3    0    0 -0.32764266003E+02  0.22629035904E+03 -0.27149135868E+03  0.35494842099E+03  0.00000000000E+00 0.  1.
        -13    1    3    3    0    0 -0.69748208429E+02  0.10719998693E+03 -0.22150646631E+03  0.25577678626E+03  0.00000000000E+00 0. -1.
         22    1    1    2    0    0  0.10251247443E+03 -0.33349034597E+03  0.22145977967E+03  0.41324212307E+03  0.00000000000E+00 0. -1.
<mgrwt>
<rscale>  0 0.98730754E+03</rscale>
<asrwt>0</asrwt>
<pdfrwt beam="1">  1        1 0.57879176E-01 0.98730754E+03</pdfrwt>
<pdfrwt beam="2">  1       -1 0.99654259E-01 0.98730754E+03</pdfrwt>
<totfact> 0.62783192E+01</totfact>
</mgrwt>
</event>
<event>
 6    1  0.1780144E-005  0.1707227E+04  0.7818608E-02  0.8757253E-01
          1   -1    0    0  501    0  0.00000000000E+00  0.00000000000E+00  0.10106540131E+04  0.10106540131E+04  0.00000000000E+00 0. -1.
         -1   -1    0    0    0  501 -0.00000000000E+00 -0.00000000000E+00 -0.72097436389E+03  0.72097436389E+03  0.00000000000E+00 0.  1.
         23    2    1    2    0    0  0.25514679507E+03 -0.80530237362E+03  0.25085257385E+03  0.88598108543E+03  0.91780553157E+02 0.  0.
         13    1    3    3    0    0  0.22440806769E+03 -0.71247344807E+03  0.18984900038E+03  0.77072695424E+03  0.00000000000E+00 0. -1.
        -13    1    3    3    0    0  0.30738727379E+02 -0.92828925555E+02  0.61003573471E+02  0.11525413119E+03  0.00000000000E+00 0.  1.
         22    1    1    2    0    0 -0.25514679507E+03  0.80530237362E+03  0.38827075402E+02  0.84564729159E+03  0.00000000000E+00 0.  1.
<mgrwt>
<rscale>  0 0.17072266E+04</rscale>
<asrwt>0</asrwt>
<pdfrwt beam="1">  1        1 0.15548523E+00 0.17072266E+04</pdfrwt>
<pdfrwt beam="2">  1       -1 0.11091913E+00 0.17072266E+04</pdfrwt>
<totfact> 0.10565455E+01</totfact>
</mgrwt>
</event>
<event>
 6    1  0.1780144E-005  0.1083949E+04  0.7818608E-02  0.9220979E-01
          1   -1    0    0  501    0  0.00000000000E+00  0.00000000000E+00  0.29787613530E+03  0.29787613530E+03  0.00000000000E+00 0. -1.
         -1   -1    0    0    0  501 -0.00000000000E+00 -0.00000000000E+00 -0.98610263385E+03  0.98610263385E+03  0.00000000000E+00 0.  1.
         23    2    1    2    0    0  0.45026394963E+02 -0.34476255011E+03 -0.83309800513E+03  0.90731400358E+03  0.90982540845E+02 0.  0.
         11    1    3    3    0    0  0.48054124539E+02 -0.10065762609E+03 -0.20385667882E+03  0.23237620807E+03  0.00000000000E+00 0.  1.
        -11    1    3    3    0    0 -0.30277295765E+01 -0.24410492402E+03 -0.62924132631E+03  0.67493779551E+03  0.00000000000E+00 0. -1.
         22    1    1    2    0    0 -0.45026394963E+02  0.34476255011E+03  0.14487150658E+03  0.37666476557E+03  0.00000000000E+00 0. -1.
<mgrwt>
<rscale>  0 0.10839492E+04</rscale>
<asrwt>0</asrwt>
<pdfrwt beam="1">  1        1 0.45827096E-01 0.10839492E+04</pdfrwt>
<pdfrwt beam="2">  1       -1 0.15170810E+00 0.10839492E+04</pdfrwt>
<totfact> 0.29872582E+01</totfact>
</mgrwt>
</event>
<event>
 6    1  0.1780144E-005  0.2446431E+04  0.7818608E-02  0.8422322E-01
          2   -1    0    0  501    0  0.00000000000E+00  0.00000000000E+00  0.19074776422E+04  0.19074776422E+04  0.00000000000E+00 0. -1.
         -2   -1    0    0    0  501 -0.00000000000E+00 -0.00000000000E+00 -0.78441636935E+03  0.78441636935E+03  0.00000000000E+00 0.  1.
         23    2    1    2    0    0  0.11945299024E+04  0.83308226595E+02  0.82783393737E+03  0.14586052668E+04  0.91533317389E+02 0.  0.
         13    1    3    3    0    0  0.45939711962E+03 -0.12315096090E+02  0.31125937171E+03  0.55504934157E+03  0.00000000000E+00 0. -1.
        -13    1    3    3    0    0  0.73513278276E+03  0.95623322686E+02  0.51657456566E+03  0.90355592523E+03  0.00000000000E+00 0.  1.
         22    1    1    2    0    0 -0.11945299024E+04 -0.83308226595E+02  0.29522733547E+03  0.12332887447E+04  0.00000000000E+00 0. -1.
<mgrwt>
<rscale>  0 0.24464314E+04</rscale>
<asrwt>0</asrwt>
<pdfrwt beam="1">  1        2 0.29345810E+00 0.24464314E+04</pdfrwt>
<pdfrwt beam="2">  1       -2 0.12067944E+00 0.24464314E+04</pdfrwt>
<totfact> 0.35278868E+00</totfact>
</mgrwt>
</event>
<event>
 6    1  0.1780144E-005  0.2286967E+04  0.7818608E-02  0.8483077E-01
          1   -1    0    0  501    0  0.00000000000E+00  0.00000000000E+00  0.24946427082E+04  0.24946427082E+04  0.00000000000E+00 0. -1.
         -1   -1    0    0    0  501 -0.00000000000E+00 -0.00000000000E+00 -0.52414522894E+03  0.52414522894E+03  0.00000000000E+00 0.  1.
         23    2    1    2    0    0 -0.37664646156E+03  0.75358363230E+03  0.20038268869E+04  0.21756617916E+04  0.91821515793E+02 0.  0.
         11    1    3    3    0    0 -0.32948915999E+03  0.59593393743E+03  0.15525669466E+04  0.16953360988E+04  0.00000000000E+00 0. -1.
        -11    1    3    3    0    0 -0.47157301563E+02  0.15764969487E+03  0.45125994030E+03  0.48032569273E+03  0.00000000000E+00 0.  1.
         22    1    1    2    0    0  0.37664646156E+03 -0.75358363230E+03 -0.33329407657E+02  0.84312614554E+03  0.00000000000E+00 0.  1.
<mgrwt>
<rscale>  0 0.22869675E+04</rscale>
<asrwt>0</asrwt>
<pdfrwt beam="1">  1        1 0.38379118E+00 0.22869675E+04</pdfrwt>
<pdfrwt beam="2">  1       -1 0.80637728E-01 0.22869675E+04</pdfrwt>
<totfact> 0.18961185E+00</totfact>
</mgrwt>
</event>
<event>
 6    1  0.1780144E-005  0.2173624E+04  0.7818608E-02  0.8529487E-01
         -2   -1    0    0    0  501 -0.00000000000E+00  0.00000000000E+00  0.55812273096E+03  0.55812273096E+03  0.00000000000E+00 0.  1.
          2   -1    0    0  501    0  0.00000000000E+00 -0.00000000000E+00 -0.21163089606E+04  0.21163089606E+04  0.00000000000E+00 0. -1.
         23    2    1    2    0    0  0.15694749378E+03 -0.33075979053E+03  0.47603725636E+03  0.60752585292E+03  0.91878385307E+02 0.  0.
         13    1    3    3    0    0  0.74422021463E+02 -0.17430275169E+03  0.17284555857E+03  0.25650667368E+03  0.00000000000E+00 0. -1.
        -13    1    3    3    0    0  0.82525472318E+02 -0.15645703884E+03  0.30319169779E+03  0.35101917923E+03  0.00000000000E+00 0.  1.
         22    1    1    2    0    0 -0.15694749378E+03  0.33075979053E+03 -0.20342234860E+04  0.20669058387E+04  0.00000000000E+00 0. -1.
<mgrwt>
<rscale>  0 0.21736238E+04</rscale>
<asrwt>0</asrwt>
<pdfrwt beam="1">  1        2 0.32558599E+00 0.21736238E+04</pdfrwt>
<pdfrwt beam="2">  1       -2 0.85865037E-01 0.21736238E+04</pdfrwt>
<totfact> 0.62047295E+00</totfact>
</mgrwt>
</event>
<event>
 6    1  0.1780144E-005  0.6460106E+03  0.7818608E-02  0.9814294E-01
          3   -1    0    0  501    0  0.00000000000E+00  0.00000000000E+00  0.55186569767E+03  0.55186569767E+03  0.00000000000E+00 0. -1.
         -3   -1    0    0    0  501 -0.00000000000E+00 -0.00000000000E+00 -0.18905402239E+03  0.18905402239E+03  0.00000000000E+00 0.  1.
         23    2    1    2    0    0  0.85582046609E+02  0.30776420082E+03  0.18371822916E+03  0.37469908649E+03  0.67852248932E+02 0.  0.
         13    1    3    3    0    0  0.85764983566E+02  0.25190696645E+03  0.17415339079E+03  0.31802854537E+03  0.00000000000E+00 0. -1.
        -13    1    3    3    0    0 -0.18293695685E+00  0.55857234369E+02  0.95648383750E+01  0.56670541117E+02  0.00000000000E+00 0.  1.
         22    1    1    2    0    0 -0.85582046609E+02 -0.30776420082E+03  0.17909344612E+03  0.36622063357E+03  0.00000000000E+00 0.  1.
<mgrwt>
<rscale>  0 0.64601062E+03</rscale>
<asrwt>0</asrwt>
<pdfrwt beam="1">  1        3 0.84902414E-01 0.64601062E+03</pdfrwt>
<pdfrwt beam="2">  1       -3 0.29085234E-01 0.64601062E+03</pdfrwt>
<totfact> 0.38569745E+01</totfact>
</mgrwt>
</event>
<event>
 6    1  0.1780144E-005  0.2686641E+04  0.7818608E-02  0.8339352E-01
          2   -1    0    0  501    0  0.00000000000E+00  0.00000000000E+00  0.21576297514E+04  0.21576297514E+04  0.00000000000E+00 0.  1.
         -2   -1    0    0    0  501 -0.00000000000E+00 -0.00000000000E+00 -0.83633922226E+03  0.83633922226E+03  0.00000000000E+00 0. -1.
         23    2    1    2    0    0  0.45468122439E+03 -0.55347553302E+03 -0.60301170329E+03  0.94067667512E+03  0.90439545223E+02 0.  0.
         11    1    3    3    0    0  0.29949945408E+03 -0.29510697336E+03 -0.35984787438E+03  0.55342437732E+03  0.00000000000E+00 0.  1.
        -11    1    3    3    0    0  0.15518177032E+03 -0.25836855966E+03 -0.24316382892E+03  0.38725229780E+03  0.00000000000E+00 0. -1.
         22    1    1    2    0    0 -0.45468122439E+03  0.55347553302E+03  0.19243022324E+04  0.20532922985E+04  0.00000000000E+00 0.  1.
<mgrwt>
<rscale>  0 0.26866413E+04</rscale>
<asrwt>0</asrwt>
<pdfrwt beam="1">  1        2 0.33194304E+00 0.26866413E+04</pdfrwt>
<pdfrwt beam="2">  1       -2 0.12866757E+00 0.26866413E+04</pdfrwt>
<totfact> 0.21355204E+00</totfact>
</mgrwt>
</event>
<event>
 6    1  0.1780144E-005  0.3262864E+04  0.7818608E-02  0.8172410E-01
         -2   -1    0    0    0  501 -0.00000000000E+00  0.00000000000E+00  0.20254272492E+04  0.20254272492E+04  0.00000000000E+00 0.  1.
          2   -1    0    0  501    0  0.00000000000E+00 -0.00000000000E+00 -0.13140780865E+04  0.13140780865E+04  0.00000000000E+00 0. -1.
         23    2    1    2    0    0 -0.14690361323E+03  0.15751508945E+04 -0.46790785684E+02  0.15852370571E+04  0.90034091357E+02 0.  0.
         11    1    3    3    0    0 -0.91477733075E+01  0.56095680898E+03 -0.14144391157E+02  0.56120966412E+03  0.00000000000E+00 0.  1.
        -11    1    3    3    0    0 -0.13775583993E+03  0.10141940855E+04 -0.32646394527E+02  0.10240273930E+04  0.00000000000E+00 0. -1.
         22    1    1    2    0    0  0.14690361323E+03 -0.15751508945E+04  0.75813994835E+03  0.17542682786E+04  0.00000000000E+00 0.  1.
<mgrwt>
<rscale>  0 0.32628635E+04</rscale>
<asrwt>0</asrwt>
<pdfrwt beam="1">  1        2 0.20216586E+00 0.32628635E+04</pdfrwt>
<pdfrwt beam="2">  1       -2 0.31160419E+00 0.32628635E+04</pdfrwt>
<totfact> 0.36652228E-01</totfact>
</mgrwt>
</event>
<event>
 6    1  0.1780144E-005  0.2082160E+04  0.7818608E-02  0.8569143E-01
         -3   -1    0    0    0  501 -0.00000000000E+00  0.00000000000E+00  0.89321702924E+03  0.89321702924E+03  0.00000000000E+00 0.  1.
          3   -1    0    0  501    0  0.00000000000E+00 -0.00000000000E+00 -0.12134204807E+04  0.12134204807E+04  0.00000000000E+00 0. -1.
         23    2    1    2    0    0  0.51365571043E+03  0.55593385710E+03 -0.88060089637E+03  0.11648573133E+04  0.92357887595E+02 0.  0.
         13    1    3    3    0    0  0.71173960330E+02  0.36875971072E+02 -0.82932007511E+02  0.11533987923E+03  0.00000000000E+00 0.  1.
        -13    1    3    3    0    0  0.44248175010E+03  0.51905788602E+03 -0.79766888886E+03  0.10495174341E+04  0.00000000000E+00 0. -1.
         22    1    1    2    0    0 -0.51365571043E+03 -0.55593385710E+03  0.56039744495E+03  0.94178019656E+03  0.00000000000E+00 0.  1.
<mgrwt>
<rscale>  0 0.20821603E+04</rscale>
<asrwt>0</asrwt>
<pdfrwt beam="1">  1        3 0.18668007E+00 0.20821603E+04</pdfrwt>
<pdfrwt beam="2">  1       -3 0.13741800E+00 0.20821603E+04</pdfrwt>
<totfact> 0.17459181E-01</totfact>
</mgrwt>
</event>
<event>
 6    1  0.1780144E-005  0.2851395E+04  0.7818608E-02  0.8287488E-01
          2   -1    0    0  501    0  0.00000000000E+00  0.00000000000E+00  0.31121737186E+04  0.31121737186E+04  0.00000000000E+00 0. -1.
         -2   -1    0    0    0  501 -0.00000000000E+00 -0.00000000000E+00 -0.65311690900E+03  0.65311690900E+03  0.00000000000E+00 0.  1.
         23    2    1    2    0    0 -0.54785582428E+03 -0.25908618354E+03  0.29323823982E+04  0.29963245897E+04  0.10873298814E+03 0.  0.
         11    1    3    3    0    0 -0.77185213298E+02 -0.72040613834E+02  0.39356295740E+03  0.40747908980E+03  0.00000000000E+00 0. -1.
        -11    1    3    3    0    0 -0.47067061098E+03 -0.18704556971E+03  0.25388194408E+04  0.25888454999E+04  0.00000000000E+00 0.  1.
         22    1    1    2    0    0  0.54785582428E+03  0.25908618354E+03 -0.47332558859E+03  0.76896603794E+03  0.00000000000E+00 0.  1.
<mgrwt>
<rscale>  0 0.28513949E+04</rscale>
<asrwt>0</asrwt>
<pdfrwt beam="1">  1        2 0.47879595E+00 0.28513949E+04</pdfrwt>
<pdfrwt beam="2">  1       -2 0.10047953E+00 0.28513949E+04</pdfrwt>
<totfact> 0.10454586E+00</totfact>
</mgrwt>
</event>
<event>
 6    1  0.1780144E-005  0.2005552E+04  0.7818608E-02  0.8604029E-01
         -2   -1    0    0    0  501 -0.00000000000E+00  0.00000000000E+00  0.96981748688E+03  0.96981748688E+03  0.00000000000E+00 0.  1.
          2   -1    0    0  501    0  0.00000000000E+00 -0.00000000000E+00 -0.10368546893E+04  0.10368546893E+04  0.00000000000E+00 0. -1.
         23    2    1    2    0    0  0.68336207598E+03  0.11968464783E+03  0.68799564048E+03  0.98130261566E+03  0.91151963006E+02 0.  0.
         11    1    3    3    0    0  0.25675631342E+03  0.43827899227E+02  0.32167217354E+03  0.41390539554E+03  0.00000000000E+00 0.  1.
        -11    1    3    3    0    0  0.42660576257E+03  0.75856748607E+02  0.36632346694E+03  0.56739722012E+03  0.00000000000E+00 0. -1.
         22    1    1    2    0    0 -0.68336207598E+03 -0.11968464783E+03 -0.75503284293E+03  0.10253695606E+04  0.00000000000E+00 0. -1.
<mgrwt>
<rscale>  0 0.20055521E+04</rscale>
<asrwt>0</asrwt>
<pdfrwt beam="1">  1        2 0.15951611E+00 0.20055521E+04</pdfrwt>
<pdfrwt beam="2">  1       -2 0.14920269E+00 0.20055521E+04</pdfrwt>
<totfact> 0.67329019E+00</totfact>
</mgrwt>
</event>
<event>
 6    1  0.1780144E-005  0.1372632E+04  0.7818608E-02  0.8973871E-01
          3   -1    0    0  501    0  0.00000000000E+00  0.00000000000E+00  0.23315785773E+03  0.23315785773E+03  0.00000000000E+00 0. -1.
         -3   -1    0    0    0  501 -0.00000000000E+00 -0.00000000000E+00 -0.20202173596E+04  0.20202173596E+04  0.00000000000E+00 0.  1.
         23    2    1    2    0    0  0.67877146901E+03  0.45338622779E+01 -0.76811246931E+03  0.10290368988E+04  0.90382025573E+02 0.  0.
         11    1    3    3    0    0  0.36083543471E+03 -0.92961373808E+01 -0.47327432725E+03  0.59521191012E+03  0.00000000000E+00 0. -1.
        -11    1    3    3    0    0  0.31793603430E+03  0.13829999659E+02 -0.29483814206E+03  0.43382498869E+03  0.00000000000E+00 0.  1.
         22    1    1    2    0    0 -0.67877146901E+03 -0.45338622779E+01 -0.10189470326E+04  0.12243383185E+04  0.00000000000E+00 0.  1.
<mgrwt>
<rscale>  0 0.13726319E+04</rscale>
<asrwt>0</asrwt>
<pdfrwt beam="1">  1        3 0.35870441E-01 0.13726319E+04</pdfrwt>
<pdfrwt beam="2">  1       -3 0.31080266E+00 0.13726319E+04</pdfrwt>
<totfact> 0.65494076E-01</totfact>
</mgrwt>
</event>
<event>
 6    1  0.1780144E-005  0.4126366E+04  0.7818608E-02  0.7979529E-01
         -2   -1    0    0    0  501 -0.00000000000E+00  0.00000000000E+00  0.14122699636E+04  0.14122699636E+04  0.00000000000E+00 0.  1.
          2   -1    0    0  501    0  0.00000000000E+00 -0.00000000000E+00 -0.30141001247E+04  0.30141001247E+04  0.00000000000E+00 0. -1.
         23    2    1    2    0    0  0.58188922492E+03  0.51994652173E+03 -0.28488918160E+04  0.29552812987E+04  0.92539288487E+02 0.  0.
         13    1    3    3    0    0  0.29815494922E+03  0.31812479813E+03 -0.14891162548E+04  0.15516336492E+04  0.00000000000E+00 0.  1.
        -13    1    3    3    0    0  0.28373427570E+03  0.20182172360E+03 -0.13597755612E+04  0.14036476496E+04  0.00000000000E+00 0. -1.
         22    1    1    2    0    0 -0.58188922492E+03 -0.51994652173E+03  0.12470616549E+04  0.14710887895E+04  0.00000000000E+00 0.  1.
<mgrwt>
<rscale>  0 0.41263655E+04</rscale>
<asrwt>0</asrwt>
<pdfrwt beam="1">  1        2 0.46370771E+00 0.41263655E+04</pdfrwt>
<pdfrwt beam="2">  1       -2 0.21727230E+00 0.41263655E+04</pdfrwt>
<totfact> 0.13694568E-01</totfact>
</mgrwt>
</event>
<event>
 6    1  0.1780144E-005  0.1155769E+04  0.7818608E-02  0.9152478E-01
         -1   -1    0    0    0  501 -0.00000000000E+00  0.00000000000E+00  0.27232298903E+03  0.27232298903E+03  0.00000000000E+00 0.  1.
          1   -1    0    0  501    0  0.00000000000E+00 -0.00000000000E+00 -0.12263024255E+04  0.12263024255E+04  0.00000000000E+00 0. -1.
         23    2    1    2    0    0 -0.26026604003E+03  0.59291757993E+02  0.17833265197E+03  0.33527482687E+03  0.96709620073E+02 0.  0.
         11    1    3    3    0    0 -0.20071143617E+03  0.68112067136E+01  0.10240256103E+03  0.22542794337E+03  0.00000000000E+00 0.  1.
        -11    1    3    3    0    0 -0.59554603852E+02  0.52480551279E+02  0.75930090948E+02  0.10984688350E+03  0.00000000000E+00 0. -1.
         22    1    1    2    0    0  0.26026604003E+03 -0.59291757993E+02 -0.11323120884E+04  0.11633505876E+04  0.00000000000E+00 0. -1.
<mgrwt>
<rscale>  0 0.11557687E+04</rscale>
<asrwt>0</asrwt>
<pdfrwt beam="1">  1        1 0.18866191E+00 0.11557687E+04</pdfrwt>
<pdfrwt beam="2">  1       -1 0.41895844E-01 0.11557687E+04</pdfrwt>
<totfact> 0.56740538E+01</totfact>
</mgrwt>
</event>
<event>
 6    1  0.1780144E-005  0.1711337E+04  0.7818608E-02  0.8754925E-01
         -2   -1    0    0    0  501 -0.00000000000E+00  0.00000000000E+00  0.62490291539E+03  0.62490291539E+03  0.00000000000E+00 0. -1.
          2   -1    0    0  501    0  0.00000000000E+00 -0.00000000000E+00 -0.11716511478E+04  0.11716511478E+04  0.00000000000E+00 0.  1.
         23    2    1    2    0    0 -0.40135657059E+03  0.24399780192E+03 -0.10220868244E+04  0.11282960283E+04  0.88138680358E+02 0.  0.
         11    1    3    3    0    0 -0.15983739330E+03  0.14826378892E+03 -0.47709800092E+03  0.52454994603E+03  0.00000000000E+00 0.  1.
        -11    1    3    3    0    0 -0.24151917729E+03  0.95734012994E+02 -0.54498882344E+03  0.60374608232E+03  0.00000000000E+00 0. -1.
         22    1    1    2    0    0  0.40135657059E+03 -0.24399780192E+03  0.47533859196E+03  0.66825803482E+03  0.00000000000E+00 0. -1.
<mgrwt>
<rscale>  0 0.17113366E+04</rscale>
<asrwt>0</asrwt>
<pdfrwt beam="1">  1        2 0.18025402E+00 0.17113366E+04</pdfrwt>
<pdfrwt beam="2">  1       -2 0.96138911E-01 0.17113366E+04</pdfrwt>
<totfact> 0.16976786E+01</totfact>
</mgrwt>
</event>
<event>
 6    1  0.1780144E-005  0.4142553E+03  0.7818608E-02  0.1038952E+00
         -1   -1    0    0    0  501 -0.00000000000E+00  0.00000000000E+00  0.27764970315E+03  0.27764970315E+03  0.00000000000E+00 0. -1.
          1   -1    0    0  501    0  0.00000000000E+00 -0.00000000000E+00 -0.15451792843E+03  0.15451792843E+03  0.00000000000E+00 0.  1.
         23    2    1    2    0    0  0.26473538231E+02 -0.19254198699E+03  0.28912257557E+02  0.21618017269E+03  0.90137025961E+02 0.  0.
         13    1    3    3    0    0 -0.33213280300E+02 -0.80096701128E+02  0.68721566117E+01  0.86981780025E+02  0.00000000000E+00 0. -1.
        -13    1    3    3    0    0  0.59686818531E+02 -0.11244528586E+03  0.22040100946E+02  0.12919839267E+03  0.00000000000E+00 0.  1.
         22    1    1    2    0    0 -0.26473538231E+02  0.19254198699E+03  0.94219517163E+02  0.21598745888E+03  0.00000000000E+00 0.  1.
<mgrwt>
<rscale>  0 0.41425527E+03</rscale>
<asrwt>0</asrwt>
<pdfrwt beam="1">  1        1 0.23771989E-01 0.41425527E+03</pdfrwt>
<pdfrwt beam="2">  1       -1 0.42715339E-01 0.41425527E+03</pdfrwt>
<totfact> 0.11250174E+03</totfact>
</mgrwt>
</event>
<event>
 6    1  0.1780144E-005  0.9864765E+03  0.7818608E-02  0.9323503E-01
         -1   -1    0    0    0  501 -0.00000000000E+00  0.00000000000E+00  0.26300603670E+03  0.26300603670E+03  0.00000000000E+00 0. -1.
          1   -1    0    0  501    0  0.00000000000E+00 -0.00000000000E+00 -0.92501292118E+03  0.92501292118E+03  0.00000000000E+00 0.  1.
         23    2    1    2    0    0 -0.19970490220E+03 -0.41490145052E+03 -0.13564374235E+03  0.48867396505E+03  0.91530091606E+02 0.  0.
         11    1    3    3    0    0 -0.23107884152E+02 -0.43935371665E+02 -0.47006334719E+02  0.68365829893E+02  0.00000000000E+00 0.  1.
        -11    1    3    3    0    0 -0.17659701805E+03 -0.37096607885E+03 -0.88637407635E+02  0.42030813515E+03  0.00000000000E+00 0. -1.
         22    1    1    2    0    0  0.19970490220E+03  0.41490145052E+03 -0.52636314213E+03  0.69934499283E+03  0.00000000000E+00 0.  1.
<mgrwt>
<rscale>  0 0.98647652E+03</rscale>
<asrwt>0</asrwt>
<pdfrwt beam="1">  1        1 0.14230968E+00 0.98647652E+03</pdfrwt>
<pdfrwt beam="2">  1       -1 0.40462467E-01 0.98647652E+03</pdfrwt>
<totfact> 0.10378993E+02</totfact>
</mgrwt>
</event>
<event>
 6    1  0.1780144E-005  0.5034504E+04  0.7818608E-02  0.7823207E-01
         -1   -1    0    0    0  501 -0.00000000000E+00  0.00000000000E+00  0.14125633174E+04  0.14125633174E+04  0.00000000000E+00 0.  1.
          1   -1    0    0  501    0  0.00000000000E+00 -0.00000000000E+00 -0.44858578622E+04  0.44858578622E+04  0.00000000000E+00 0. -1.
         23    2    1    2    0    0  0.13171744899E+04  0.27936927434E+03  0.95357374547E+03  0.16524037448E+04  0.90218731182E+02 0.  0.
         11    1    3    3    0    0  0.69575555784E+03  0.10871013989E+03  0.46825145792E+03  0.84566726236E+03  0.00000000000E+00 0.  1.
        -11    1    3    3    0    0  0.62141893210E+03  0.17065913445E+03  0.48532228756E+03  0.80673648246E+03  0.00000000000E+00 0. -1.
         22    1    1    2    0    0 -0.13171744899E+04 -0.27936927434E+03 -0.40268682903E+04  0.42460174347E+04  0.00000000000E+00 0. -1.
<mgrwt>
<rscale>  0 0.50345043E+04</rscale>
<asrwt>0</asrwt>
<pdfrwt beam="1">  1        1 0.69013196E+00 0.50345043E+04</pdfrwt>
<pdfrwt beam="2">  1       -1 0.21731744E+00 0.50345043E+04</pdfrwt>
<totfact> 0.27304004E-03</totfact>
</mgrwt>
</event>
<event>
 6    1  0.1780144E-005  0.1019875E+04  0.7818608E-02  0.9287011E-01
         -2   -1    0    0    0  501 -0.00000000000E+00  0.00000000000E+00  0.67988586278E+03  0.67988586278E+03  0.00000000000E+00 0.  1.
          2   -1    0    0  501    0  0.00000000000E+00 -0.00000000000E+00 -0.38247065125E+03  0.38247065125E+03  0.00000000000E+00 0. -1.
         23    2    1    2    0    0 -0.49204391545E+03  0.58064941321E+01  0.27112142025E+03  0.56957634645E+03  0.93645394008E+02 0.  0.
         13    1    3    3    0    0 -0.11255228200E+03  0.49640701560E+01  0.10947649508E+03  0.15709156932E+03  0.00000000000E+00 0. -1.
        -13    1    3    3    0    0 -0.37949163345E+03  0.84242397611E+00  0.16164492517E+03  0.41248477714E+03  0.00000000000E+00 0.  1.
         22    1    1    2    0    0  0.49204391545E+03 -0.58064941321E+01  0.26293791272E+02  0.49278016758E+03  0.00000000000E+00 0. -1.
<mgrwt>
<rscale>  0 0.10198753E+04</rscale>
<asrwt>0</asrwt>
<pdfrwt beam="1">  1        2 0.58841639E-01 0.10198753E+04</pdfrwt>
<pdfrwt beam="2">  1       -2 0.10459782E+00 0.10198753E+04</pdfrwt>
<totfact> 0.61895793E+01</totfact>
</mgrwt>
</event>
<event>
 6    1  0.1780144E-005  0.2892512E+04  0.7818608E-02  0.8275109E-01
         -2   -1    0    0    0  501 -0.00000000000E+00  0.00000000000E+00  0.18259786409E+04  0.18259786409E+04  0.00000000000E+00 0.  1.
          2   -1    0    0  501    0  0.00000000000E+00 -0.00000000000E+00 -0.11454990392E+04  0.11454990392E+04  0.00000000000E+00 0. -1.
         23    2    1    2    0    0  0.12074602577E+03  0.12275607673E+04  0.11132222602E+04  0.16642855562E+04  0.95381192089E+02 0.  0.
         11    1    3    3    0    0  0.11722354098E+03  0.78763648668E+03  0.74750176454E+03  0.10921865599E+04  0.00000000000E+00 0.  1.
        -11    1    3    3    0    0  0.35224847847E+01  0.43992428063E+03  0.36572049567E+03  0.57209899628E+03  0.00000000000E+00 0. -1.
         22    1    1    2    0    0 -0.12074602577E+03 -0.12275607673E+04 -0.43274265846E+03  0.13071921238E+04  0.00000000000E+00 0.  1.
<mgrwt>
<rscale>  0 0.28925122E+04</rscale>
<asrwt>0</asrwt>
<pdfrwt beam="1">  1        2 0.17623062E+00 0.28925122E+04</pdfrwt>
<pdfrwt beam="2">  1       -2 0.28091979E+00 0.28925122E+04</pdfrwt>
<totfact> 0.73346478E-01</totfact>
</mgrwt>
</event>
<event>
 6    1  0.1780144E-005  0.4227354E+04  0.7818608E-02  0.7960189E-01
         -2   -1    0    0    0  501 -0.00000000000E+00  0.00000000000E+00  0.16812791059E+04  0.16812791059E+04  0.00000000000E+00 0.  1.
          2   -1    0    0  501    0  0.00000000000E+00 -0.00000000000E+00 -0.26572800563E+04  0.26572800563E+04  0.00000000000E+00 0. -1.
         23    2    1    2    0    0 -0.99402959904E+03  0.17867610569E+04 -0.10339018713E+04  0.22930855166E+04  0.93156795797E+02 0.  0.
         11    1    3    3    0    0 -0.34813811943E+03  0.58745659332E+03 -0.39010683731E+03  0.78644055322E+03  0.00000000000E+00 0.  1.
        -11    1    3    3    0    0 -0.64589147961E+03  0.11993044636E+04 -0.64379503402E+03  0.15066449634E+04  0.00000000000E+00 0. -1.
         22    1    1    2    0    0  0.99402959904E+03 -0.17867610569E+04  0.57900920900E+02  0.20454736456E+04  0.00000000000E+00 0.  1.
<mgrwt>
<rscale>  0 0.42273535E+04</rscale>
<asrwt>0</asrwt>
<pdfrwt beam="1">  1        2 0.40881232E+00 0.42273535E+04</pdfrwt>
<pdfrwt beam="2">  1       -2 0.25865832E+00 0.42273535E+04</pdfrwt>
<totfact> 0.12397758E-01</totfact>
</mgrwt>
</event>
<event>
 6    1  0.1780144E-005  0.1677449E+04  0.7818608E-02  0.8774332E-01
          1   -1    0    0  501    0  0.00000000000E+00  0.00000000000E+00  0.20126696286E+04  0.20126696286E+04  0.00000000000E+00 0. -1.
         -1   -1    0    0    0  501 -0.00000000000E+00 -0.00000000000E+00 -0.34951517075E+03  0.34951517075E+03  0.00000000000E+00 0.  1.
         23    2    1    2    0    0  0.47832200970E+03  0.24254477480E+02  0.17993005681E+04  0.18642731727E+04  0.93014533003E+02 0.  0.
         13    1    3    3    0    0  0.33992662218E+03 -0.84743319054E+01  0.11310201342E+04  0.11810285630E+04  0.00000000000E+00 0.  1.
        -13    1    3    3    0    0  0.13839538751E+03  0.32728809385E+02  0.66828043393E+03  0.68324460965E+03  0.00000000000E+00 0. -1.
         22    1    1    2    0    0 -0.47832200970E+03 -0.24254477480E+02 -0.13614611025E+03  0.49791162667E+03  0.00000000000E+00 0.  1.
<mgrwt>
<rscale>  0 0.16774487E+04</rscale>
<asrwt>0</asrwt>
<pdfrwt beam="1">  1        1 0.30964147E+00 0.16774487E+04</pdfrwt>
<pdfrwt beam="2">  1       -1 0.53771566E-01 0.16774487E+04</pdfrwt>
<totfact> 0.97261679E+00</totfact>
</mgrwt>
</event>
<event>
 6    1  0.1780144E-005  0.4492827E+04  0.7818608E-02  0.7911894E-01
          2   -1    0    0  501    0  0.00000000000E+00  0.00000000000E+00  0.23211300799E+04  0.23211300799E+04  0.00000000000E+00 0. -1.
         -2   -1    0    0    0  501 -0.00000000000E+00 -0.00000000000E+00 -0.21741021941E+04  0.21741021941E+04  0.00000000000E+00 0.  1.
         23    2    1    2    0    0  0.19858693470E+04  0.86407666807E+03  0.66711520329E+03  0.22679477458E+04  0.90767459939E+02 0.  0.
         11    1    3    3    0    0  0.42054253981E+03  0.21545745312E+03  0.16940302701E+03  0.50197144088E+03  0.00000000000E+00 0.  1.
        -11    1    3    3    0    0  0.15653268072E+04  0.64861921495E+03  0.49771217627E+03  0.17659763049E+04  0.00000000000E+00 0. -1.
         22    1    1    2    0    0 -0.19858693470E+04 -0.86407666807E+03 -0.52008731750E+03  0.22272845282E+04  0.00000000000E+00 0.  1.
<mgrwt>
<rscale>  0 0.44928272E+04</rscale>
<asrwt>0</asrwt>
<pdfrwt beam="1">  1        2 0.35709693E+00 0.44928272E+04</pdfrwt>
<pdfrwt beam="2">  1       -2 0.33447726E+00 0.44928272E+04</pdfrwt>
<totfact> 0.65088831E-02</totfact>
</mgrwt>
</event>
<event>
 6    1  0.1780144E-005  0.3977648E+03  0.7818608E-02  0.1044556E+00
         -2   -1    0    0    0  501 -0.00000000000E+00  0.00000000000E+00  0.89957881617E+02  0.89957881617E+02  0.00000000000E+00 0. -1.
          2   -1    0    0  501    0  0.00000000000E+00 -0.00000000000E+00 -0.43969696410E+03  0.43969696410E+03  0.00000000000E+00 0.  1.
         23    2    1    2    0    0  0.14977777947E+03 -0.76425384944E+02 -0.29831478968E+03  0.35381776039E+03  0.89000399633E+02 0.  0.
         13    1    3    3    0    0  0.15427120105E+03 -0.83859632750E+02 -0.25479228884E+03  0.30943683027E+03  0.00000000000E+00 0. -1.
        -13    1    3    3    0    0 -0.44934215806E+01  0.74342478053E+01 -0.43522500844E+02  0.44380930113E+02  0.00000000000E+00 0.  1.
         22    1    1    2    0    0 -0.14977777947E+03  0.76425384944E+02 -0.51424292798E+02  0.17583708533E+03  0.00000000000E+00 0. -1.
<mgrwt>
<rscale>  0 0.39776479E+03</rscale>
<asrwt>0</asrwt>
<pdfrwt beam="1">  1        2 0.67645689E-01 0.39776479E+03</pdfrwt>
<pdfrwt beam="2">  1       -2 0.13839674E-01 0.39776479E+03</pdfrwt>
<totfact> 0.28300201E+03</totfact>
</mgrwt>
</event>
<event>
 6    1  0.1780144E-005  0.3863295E+04  0.7818608E-02  0.8032707E-01
          1   -1    0    0  501    0  0.00000000000E+00  0.00000000000E+00  0.19094891714E+04  0.19094891714E+04  0.00000000000E+00 0. -1.
         -1   -1    0    0    0  501 -0.00000000000E+00 -0.00000000000E+00 -0.19540631492E+04  0.19540631492E+04  0.00000000000E+00 0.  1.
         23    2    1    2    0    0  0.99888434550E+02 -0.12126488646E+04 -0.15212853775E+04  0.19501335149E+04  0.90645230616E+02 0.  0.
         13    1    3    3    0    0  0.70969735389E+02 -0.38091278636E+03 -0.45960536779E+03  0.60113920872E+03  0.00000000000E+00 0. -1.
        -13    1    3    3    0    0  0.28918699161E+02 -0.83173607825E+03 -0.10616800097E+04  0.13489943062E+04  0.00000000000E+00 0.  1.
         22    1    1    2    0    0 -0.99888434550E+02  0.12126488646E+04  0.14767113997E+04  0.19134188057E+04  0.00000000000E+00 0. -1.
<mgrwt>
<rscale>  0 0.38632952E+04</rscale>
<asrwt>0</asrwt>
<pdfrwt beam="1">  1        1 0.29376757E+00 0.38632952E+04</pdfrwt>
<pdfrwt beam="2">  1       -1 0.30062510E+00 0.38632952E+04</pdfrwt>
<totfact> 0.88891903E-02</totfact>
</mgrwt>
</event>
<event>
 6    1  0.1780144E-005  0.8762539E+03  0.7818608E-02  0.9455762E-01
          1   -1    0    0  501    0  0.00000000000E+00  0.00000000000E+00  0.31798024593E+03  0.31798024593E+03  0.00000000000E+00 0. -1.
         -1   -1    0    0    0  501 -0.00000000000E+00 -0.00000000000E+00 -0.60367024671E+03  0.60367024671E+03  0.00000000000E+00 0.  1.
         23    2    1    2    0    0  0.25310094472E+03  0.16470974277E+03  0.18271311512E+03  0.36434369511E+03  0.90403861355E+02 0.  0.
         11    1    3    3    0    0  0.12780140092E+03  0.11870283609E+03  0.64259422667E+02  0.18588392823E+03  0.00000000000E+00 0. -1.
        -11    1    3    3    0    0  0.12529954380E+03  0.46006906680E+02  0.11845369245E+03  0.17845976688E+03  0.00000000000E+00 0.  1.
         22    1    1    2    0    0 -0.25310094472E+03 -0.16470974277E+03 -0.46840311590E+03  0.55730679752E+03  0.00000000000E+00 0.  1.
<mgrwt>
<rscale>  0 0.87625388E+03</rscale>
<asrwt>0</asrwt>
<pdfrwt beam="1">  1        1 0.48920038E-01 0.87625388E+03</pdfrwt>
<pdfrwt beam="2">  1       -1 0.92872345E-01 0.87625388E+03</pdfrwt>
<totfact> 0.92402648E+01</totfact>
</mgrwt>
</event>
<event>
 6    1  0.1780144E-005  0.4461525E+04  0.7818608E-02  0.7917407E-01
          2   -1    0    0  501    0  0.00000000000E+00  0.00000000000E+00  0.10122170860E+04  0.10122170860E+04  0.00000000000E+00 0. -1.
         -2   -1    0    0    0  501 -0.00000000000E+00 -0.00000000000E+00 -0.49162389811E+04  0.49162389811E+04  0.00000000000E+00 0.  1.
         23    2    1    2    0    0  0.28615379538E+03  0.21516331130E+04 -0.26313588277E+04  0.34122922547E+04  0.90995076603E+02 0.  0.
         13    1    3    3    0    0  0.24830014859E+03  0.19160947602E+04 -0.22968734587E+04  0.30014496130E+04  0.00000000000E+00 0.  1.
        -13    1    3    3    0    0  0.37853646791E+02  0.23553835275E+03 -0.33448536899E+03  0.41084264172E+03  0.00000000000E+00 0. -1.
         22    1    1    2    0    0 -0.28615379538E+03 -0.21516331130E+04 -0.12726630673E+04  0.25161638123E+04  0.00000000000E+00 0. -1.
<mgrwt>
<rscale>  0 0.44615249E+04</rscale>
<asrwt>0</asrwt>
<pdfrwt beam="1">  1        2 0.15572570E+00 0.44615249E+04</pdfrwt>
<pdfrwt beam="2">  1       -2 0.75634446E+00 0.44615249E+04</pdfrwt>
<totfact> 0.25261516E-03</totfact>
</mgrwt>
</event>
<event>
 6    1  0.1780144E-005  0.1930025E+04  0.7818608E-02  0.8640053E-01
          2   -1    0    0  501    0  0.00000000000E+00  0.00000000000E+00  0.10742523501E+04  0.10742523501E+04  0.00000000000E+00 0.  1.
         -2   -1    0    0    0  501 -0.00000000000E+00 -0.00000000000E+00 -0.86688159969E+03  0.86688159969E+03  0.00000000000E+00 0. -1.
         23    2    1    2    0    0  0.39648399909E+03  0.30602827377E+03 -0.72295574681E+03  0.88455444152E+03  0.94438775297E+02 0.  0.
         13    1    3    3    0    0  0.80496197035E+02  0.47443608544E+02 -0.80514118924E+02  0.12334122212E+03  0.00000000000E+00 0. -1.
        -13    1    3    3    0    0  0.31598780205E+03  0.25858466522E+03 -0.64244162789E+03  0.76121321939E+03  0.00000000000E+00 0.  1.
         22    1    1    2    0    0 -0.39648399909E+03 -0.30602827377E+03  0.93032649727E+03  0.10565795083E+04  0.00000000000E+00 0.  1.
<mgrwt>
<rscale>  0 0.19300255E+04</rscale>
<asrwt>0</asrwt>
<pdfrwt beam="1">  1        2 0.16526959E+00 0.19300255E+04</pdfrwt>
<pdfrwt beam="2">  1       -2 0.13336640E+00 0.19300255E+04</pdfrwt>
<totfact> 0.85950176E+00</totfact>
</mgrwt>
</event>
<event>
 6    1  0.1780144E-005  0.1738308E+04  0.7818608E-02  0.8739813E-01
         -2   -1    0    0    0  501 -0.00000000000E+00  0.00000000000E+00  0.35270517936E+03  0.35270517936E+03  0.00000000000E+00 0.  1.
          2   -1    0    0  501    0  0.00000000000E+00 -0.00000000000E+00 -0.21418121981E+04  0.21418121981E+04  0.00000000000E+00 0. -1.
         23    2    1    2    0    0 -0.37694999823E+03 -0.43745745273E+03  0.31604365563E+02  0.58442568620E+03  0.84227208489E+02 0.  0.
         13    1    3    3    0    0 -0.19606682155E+03 -0.17898920055E+03  0.41990057360E+02  0.26877964459E+03  0.00000000000E+00 0. -1.
        -13    1    3    3    0    0 -0.18088317667E+03 -0.25846825218E+03 -0.10385691797E+02  0.31564604161E+03  0.00000000000E+00 0.  1.
         22    1    1    2    0    0  0.37694999823E+03  0.43745745273E+03 -0.18207113843E+04  0.19100916913E+04  0.00000000000E+00 0. -1.
<mgrwt>
<rscale>  0 0.17383075E+04</rscale>
<asrwt>0</asrwt>
<pdfrwt beam="1">  1        2 0.32950957E+00 0.17383075E+04</pdfrwt>
<pdfrwt beam="2">  1       -2 0.54262336E-01 0.17383075E+04</pdfrwt>
<totfact> 0.16893656E+01</totfact>
</mgrwt>
</event>
<event>
 6    1  0.1780144E-005  0.1487472E+04  0.7818608E-02  0.8892827E-01
         -1   -1    0    0    0  501 -0.00000000000E+00  0.00000000000E+00  0.17478741509E+03  0.17478741509E+03  0.00000000000E+00 0.  1.
          1   -1    0    0  501    0  0.00000000000E+00 -0.00000000000E+00 -0.31646613227E+04  0.31646613227E+04  0.00000000000E+00 0. -1.
         23    2    1    2    0    0  0.10093621633E+02  0.63495436621E+03 -0.64363950411E+03  0.90879351655E+03  0.91459915322E+02 0.  0.
         13    1    3    3    0    0  0.50946054790E+02  0.37380443120E+03 -0.37774944702E+03  0.53387254847E+03  0.00000000000E+00 0. -1.
        -13    1    3    3    0    0 -0.40852433157E+02  0.26114993501E+03 -0.26589005709E+03  0.37492096808E+03  0.00000000000E+00 0.  1.
         22    1    1    2    0    0 -0.10093621633E+02 -0.63495436621E+03 -0.23462344035E+04  0.24306552212E+04  0.00000000000E+00 0. -1.
<mgrwt>
<rscale>  0 0.14874716E+04</rscale>
<asrwt>0</asrwt>
<pdfrwt beam="1">  1        1 0.48687094E+00 0.14874716E+04</pdfrwt>
<pdfrwt beam="2">  1       -1 0.26890373E-01 0.14874716E+04</pdfrwt>
<totfact> 0.54472204E+00</totfact>
</mgrwt>
</event>
<event>
 6    1  0.1780144E-005  0.2517659E+04  0.7818608E-02  0.8396721E-01
          2   -1    0    0  501    0  0.00000000000E+00  0.00000000000E+00  0.82306252102E+03  0.82306252102E+03  0.00000000000E+00 0. -1.
         -2   -1    0    0    0  501 -0.00000000000E+00 -0.00000000000E+00 -0.19253120898E+04  0.19253120898E+04  0.00000000000E+00 0.  1.
         23    2    1    2    0    0  0.77511963405E+02  0.74064945185E+03 -0.16574761867E+04  0.18194794003E+04  0.93318076999E+02 0.  0.
         13    1    3    3    0    0  0.99493688358E+01  0.38888867603E+03 -0.77732369896E+03  0.86923272215E+03  0.00000000000E+00 0.  1.
        -13    1    3    3    0    0  0.67562594569E+02  0.35176077582E+03 -0.88015248775E+03  0.95024667812E+03  0.00000000000E+00 0. -1.
         22    1    1    2    0    0 -0.77511963405E+02 -0.74064945185E+03  0.55522661791E+03  0.92889521057E+03  0.00000000000E+00 0. -1.
<mgrwt>
<rscale>  0 0.25176594E+04</rscale>
<asrwt>0</asrwt>
<pdfrwt beam="1">  1        2 0.12662500E+00 0.25176594E+04</pdfrwt>
<pdfrwt beam="2">  1       -2 0.29620186E+00 0.25176594E+04</pdfrwt>
<totfact> 0.99030297E-01</totfact>
</mgrwt>
</event>
<event>
 6    1  0.1780144E-005  0.7829412E+03  0.7818608E-02  0.9585043E-01
         -2   -1    0    0    0  501 -0.00000000000E+00  0.00000000000E+00  0.30919578883E+03  0.30919578883E+03  0.00000000000E+00 0.  1.
          2   -1    0    0  501    0  0.00000000000E+00 -0.00000000000E+00 -0.49563819039E+03  0.49563819039E+03  0.00000000000E+00 0. -1.
         23    2    1    2    0    0 -0.33537416087E+03  0.79152550044E+02 -0.27381257401E+03  0.44934206512E+03  0.90520781244E+02 0.  0.
         11    1    3    3    0    0 -0.25792705507E+03  0.30469707380E+02 -0.16730530455E+03  0.30894309142E+03  0.00000000000E+00 0.  1.
        -11    1    3    3    0    0 -0.77447105801E+02  0.48682842665E+02 -0.10650726946E+03  0.14039897370E+03  0.00000000000E+00 0. -1.
         22    1    1    2    0    0  0.33537416087E+03 -0.79152550044E+02  0.87370172458E+02  0.35549191411E+03  0.00000000000E+00 0.  1.
<mgrwt>
<rscale>  0 0.78294123E+03</rscale>
<asrwt>0</asrwt>
<pdfrwt beam="1">  1        2 0.76252029E-01 0.78294123E+03</pdfrwt>
<pdfrwt beam="2">  1       -2 0.47568583E-01 0.78294123E+03</pdfrwt>
<totfact> 0.26245367E+02</totfact>
</mgrwt>
</event>
<event>
 6    1  0.1780144E-005  0.1605562E+04  0.7818608E-02  0.8817138E-01
          2   -1    0    0  501    0  0.00000000000E+00  0.00000000000E+00  0.79813644762E+03  0.79813644762E+03  0.00000000000E+00 0. -1.
         -2   -1    0    0    0  501 -0.00000000000E+00 -0.00000000000E+00 -0.80745258420E+03  0.80745258420E+03  0.00000000000E+00 0.  1.
         23    2    1    2    0    0  0.10598189643E+02 -0.64711246060E+03  0.46591205779E+03  0.80265149066E+03  0.91151037150E+02 0.  0.
         11    1    3    3    0    0 -0.25631877063E+02 -0.41375925602E+03  0.33250007797E+03  0.53142263493E+03  0.00000000000E+00 0. -1.
        -11    1    3    3    0    0  0.36230066706E+02 -0.23335320457E+03  0.13341197982E+03  0.27122885572E+03  0.00000000000E+00 0.  1.
         22    1    1    2    0    0 -0.10598189643E+02  0.64711246060E+03 -0.47522819438E+03  0.80293754117E+03  0.00000000000E+00 0.  1.
<mgrwt>
<rscale>  0 0.16055620E+04</rscale>
<asrwt>0</asrwt>
<pdfrwt beam="1">  1        2 0.12279022E+00 0.16055620E+04</pdfrwt>
<pdfrwt beam="2">  1       -2 0.12422347E+00 0.16055620E+04</pdfrwt>
<totfact> 0.16129051E+01</totfact>
</mgrwt>
</event>
<event>
 6    1  0.1780144E-005  0.1423850E+04  0.7818608E-02  0.8936733E-01
         -1   -1    0    0    0  501 -0.00000000000E+00  0.00000000000E+00  0.20970438112E+03  0.20970438112E+03  0.00000000000E+00 0.  1.
          1   -1    0    0  501    0  0.00000000000E+00 -0.00000000000E+00 -0.24169127401E+04  0.24169127401E+04  0.00000000000E+00 0. -1.
         23    2    1    2    0    0  0.15926529771E+03 -0.40720130809E+02 -0.23804104379E+04  0.23878232263E+04  0.91226877021E+02 0.  0.
         13    1    3    3    0    0  0.11060607907E+03 -0.68844839138E+02 -0.15160899348E+04  0.15216773662E+04  0.00000000000E+00 0. -1.
        -13    1    3    3    0    0  0.48659218642E+02  0.28124708329E+02 -0.86432050311E+03  0.86614586005E+03  0.00000000000E+00 0.  1.
         22    1    1    2    0    0 -0.15926529771E+03  0.40720130809E+02  0.17320207892E+03  0.23879389492E+03  0.00000000000E+00 0.  1.
<mgrwt>
<rscale>  0 0.14238500E+04</rscale>
<asrwt>0</asrwt>
<pdfrwt beam="1">  1        1 0.37183271E+00 0.14238500E+04</pdfrwt>
<pdfrwt beam="2">  1       -1 0.32262214E-01 0.14238500E+04</pdfrwt>
<totfact> 0.13545406E+01</totfact>
</mgrwt>
</event>
<event>
 6    1  0.1780144E-005  0.4157544E+04  0.7818608E-02  0.7973498E-01
          1   -1    0    0  501    0  0.00000000000E+00  0.00000000000E+00  0.32263809893E+04  0.32263809893E+04  0.00000000000E+00 0. -1.
         -1   -1    0    0    0  501 -0.00000000000E+00 -0.00000000000E+00 -0.13393625702E+04  0.13393625702E+04  0.00000000000E+00 0.  1.
         23    2    1    2    0    0  0.51501587482E+03  0.19382861523E+04  0.15405107636E+04  0.25304887560E+04  0.89472744768E+02 0.  0.
         13    1    3    3    0    0  0.25558034777E+03  0.94148127757E+03  0.80536229885E+03  0.12650362614E+04  0.00000000000E+00 0. -1.
        -13    1    3    3    0    0  0.25943552704E+03  0.99680487473E+03  0.73514846478E+03  0.12654524947E+04  0.00000000000E+00 0.  1.
         22    1    1    2    0    0 -0.51501587482E+03 -0.19382861523E+04  0.34650765551E+03  0.20352548034E+04  0.00000000000E+00 0.  1.
<mgrwt>
<rscale>  0 0.41575444E+04</rscale>
<asrwt>0</asrwt>
<pdfrwt beam="1">  1        1 0.49636630E+00 0.41575444E+04</pdfrwt>
<pdfrwt beam="2">  1       -1 0.20605578E+00 0.41575444E+04</pdfrwt>
<totfact> 0.42875029E-02</totfact>
</mgrwt>
</event>
<event>
 6    1  0.1780144E-005  0.4079382E+04  0.7818608E-02  0.7988721E-01
         -1   -1    0    0    0  501 -0.00000000000E+00  0.00000000000E+00  0.17816599203E+04  0.17816599203E+04  0.00000000000E+00 0.  1.
          1   -1    0    0  501    0  0.00000000000E+00 -0.00000000000E+00 -0.23350916615E+04  0.23350916615E+04  0.00000000000E+00 0. -1.
         23    2    1    2    0    0  0.12979342629E+04  0.14087258076E+04  0.42744616830E+03  0.19647145874E+04  0.90837389348E+02 0.  0.
         11    1    3    3    0    0  0.83371616986E+03  0.85431144359E+03  0.23782512300E+03  0.12171653477E+04  0.00000000000E+00 0. -1.
        -11    1    3    3    0    0  0.46421809302E+03  0.55441436400E+03  0.18962104530E+03  0.74754923966E+03  0.00000000000E+00 0.  1.
         22    1    1    2    0    0 -0.12979342629E+04 -0.14087258076E+04 -0.98087790951E+03  0.21520369944E+04  0.00000000000E+00 0. -1.
<mgrwt>
<rscale>  0 0.40793819E+04</rscale>
<asrwt>0</asrwt>
<pdfrwt beam="1">  1        1 0.35924487E+00 0.40793819E+04</pdfrwt>
<pdfrwt beam="2">  1       -1 0.27410153E+00 0.40793819E+04</pdfrwt>
<totfact> 0.66545391E-02</totfact>
</mgrwt>
</event>
<event>
 6    1  0.1780144E-005  0.2388651E+04  0.7818608E-02  0.8443765E-01
          1   -1    0    0  501    0  0.00000000000E+00  0.00000000000E+00  0.19348331943E+04  0.19348331943E+04  0.00000000000E+00 0. -1.
         -1   -1    0    0    0  501 -0.00000000000E+00 -0.00000000000E+00 -0.73722779800E+03  0.73722779800E+03  0.00000000000E+00 0.  1.
         23    2    1    2    0    0 -0.94752537974E+03 -0.32582526541E+03 -0.12369778919E+03  0.10138063204E+04  0.92388654243E+02 0.  0.
         11    1    3    3    0    0 -0.40869761124E+03 -0.12380918303E+03 -0.95756286095E+01  0.42714651338E+03  0.00000000000E+00 0.  1.
        -11    1    3    3    0    0 -0.53882776851E+03 -0.20201608238E+03 -0.11412216058E+03  0.58665980703E+03  0.00000000000E+00 0. -1.
         22    1    1    2    0    0  0.94752537974E+03  0.32582526541E+03  0.13213031854E+04  0.16582546718E+04  0.00000000000E+00 0. -1.
<mgrwt>
<rscale>  0 0.23886505E+04</rscale>
<asrwt>0</asrwt>
<pdfrwt beam="1">  1        1 0.29766664E+00 0.23886505E+04</pdfrwt>
<pdfrwt beam="2">  1       -1 0.11341966E+00 0.23886505E+04</pdfrwt>
<totfact> 0.20996892E+00</totfact>
</mgrwt>
</event>
<event>
 6    1  0.1780144E-005  0.4248007E+04  0.7818608E-02  0.7956303E-01
         -2   -1    0    0    0  501 -0.00000000000E+00  0.00000000000E+00  0.15273210219E+04  0.15273210219E+04  0.00000000000E+00 0.  1.
          2   -1    0    0  501    0  0.00000000000E+00 -0.00000000000E+00 -0.29537941066E+04  0.29537941066E+04  0.00000000000E+00 0. -1.
         23    2    1    2    0    0 -0.52242756632E+03  0.47005190904E+03  0.13997243011E+04  0.15688529455E+04  0.90510144128E+02 0.  0.
         11    1    3    3    0    0 -0.16883029566E+03  0.18141499184E+03  0.41255100871E+03  0.48126230143E+03  0.00000000000E+00 0.  1.
        -11    1    3    3    0    0 -0.35359727066E+03  0.28863691721E+03  0.98717329241E+03  0.10875906441E+04  0.00000000000E+00 0. -1.
         22    1    1    2    0    0  0.52242756632E+03 -0.47005190904E+03 -0.28261973858E+04  0.29122621830E+04  0.00000000000E+00 0. -1.
<mgrwt>
<rscale>  0 0.42480075E+04</rscale>
<asrwt>0</asrwt>
<pdfrwt beam="1">  1        2 0.45442986E+00 0.42480075E+04</pdfrwt>
<pdfrwt beam="2">  1       -2 0.23497247E+00 0.42480075E+04</pdfrwt>
<totfact> 0.11447840E-01</totfact>
</mgrwt>
</event>
<event>
 6    1  0.1780144E-005  0.1995176E+04  0.7818608E-02  0.8608879E-01
          1   -1    0    0  501    0  0.00000000000E+00  0.00000000000E+00  0.92346663808E+03  0.92346663808E+03  0.00000000000E+00 0. -1.
         -1   -1    0    0    0  501 -0.00000000000E+00 -0.00000000000E+00 -0.10776585737E+04  0.10776585737E+04  0.00000000000E+00 0.  1.
         23    2    1    2    0    0  0.60999142040E+03 -0.10244172373E+03  0.70509698718E+03  0.94237061672E+03  0.91196371611E+02 0.  0.
         11    1    3    3    0    0  0.10754410724E+03 -0.42938042437E+02  0.17246193392E+03  0.20773186838E+03  0.00000000000E+00 0. -1.
        -11    1    3    3    0    0  0.50244731317E+03 -0.59503681292E+02  0.53263505326E+03  0.73463874834E+03  0.00000000000E+00 0.  1.
         22    1    1    2    0    0 -0.60999142040E+03  0.10244172373E+03 -0.85928892280E+03  0.10587545951E+04  0.00000000000E+00 0.  1.
<mgrwt>
<rscale>  0 0.19951759E+04</rscale>
<asrwt>0</asrwt>
<pdfrwt beam="1">  1        1 0.14207179E+00 0.19951759E+04</pdfrwt>
<pdfrwt beam="2">  1       -1 0.16579363E+00 0.19951759E+04</pdfrwt>
<totfact> 0.42716939E+00</totfact>
</mgrwt>
</event>
<event>
 6    1  0.1780144E-005  0.2931090E+04  0.7818608E-02  0.8263687E-01
         -1   -1    0    0    0  501 -0.00000000000E+00  0.00000000000E+00  0.65028904240E+03  0.65028904240E+03  0.00000000000E+00 0.  1.
          1   -1    0    0  501    0  0.00000000000E+00 -0.00000000000E+00 -0.33028738067E+04  0.33028738067E+04  0.00000000000E+00 0. -1.
         23    2    1    2    0    0 -0.13136433589E+04  0.33329965358E+03 -0.20748094568E+04  0.24798767807E+04  0.90592668927E+02 0.  0.
         13    1    3    3    0    0 -0.10275922919E+04  0.22912305024E+03 -0.16489322878E+04  0.19563795594E+04  0.00000000000E+00 0.  1.
        -13    1    3    3    0    0 -0.28605106696E+03  0.10417660334E+03 -0.42587716906E+03  0.52349722131E+03  0.00000000000E+00 0. -1.
         22    1    1    2    0    0  0.13136433589E+04 -0.33329965358E+03 -0.57777530743E+03  0.14732860684E+04  0.00000000000E+00 0.  1.
<mgrwt>
<rscale>  0 0.29310903E+04</rscale>
<asrwt>0</asrwt>
<pdfrwt beam="1">  1        1 0.50813442E+00 0.29310903E+04</pdfrwt>
<pdfrwt beam="2">  1       -1 0.10004447E+00 0.29310903E+04</pdfrwt>
<totfact> 0.28942306E-01</totfact>
</mgrwt>
</event>
<event>
 6    1  0.1780144E-005  0.4136823E+04  0.7818608E-02  0.7977500E-01
         -1   -1    0    0    0  501 -0.00000000000E+00  0.00000000000E+00  0.29446434379E+04  0.29446434379E+04  0.00000000000E+00 0.  1.
          1   -1    0    0  501    0  0.00000000000E+00 -0.00000000000E+00 -0.14529185703E+04  0.14529185703E+04  0.00000000000E+00 0. -1.
         23    2    1    2    0    0 -0.14686697292E+04  0.72183461779E+03 -0.59680194164E+03  0.17442659031E+04  0.90856999077E+02 0.  0.
         13    1    3    3    0    0 -0.11558450728E+04  0.56919980501E+03 -0.42975249130E+03  0.13581801994E+04  0.00000000000E+00 0. -1.
        -13    1    3    3    0    0 -0.31282465638E+03  0.15263481278E+03 -0.16704945035E+03  0.38608570366E+03  0.00000000000E+00 0.  1.
         22    1    1    2    0    0  0.14686697292E+04 -0.72183461779E+03  0.20885268092E+04  0.26532961051E+04  0.00000000000E+00 0.  1.
<mgrwt>
<rscale>  0 0.41368235E+04</rscale>
<asrwt>0</asrwt>
<pdfrwt beam="1">  1        1 0.22352593E+00 0.41368235E+04</pdfrwt>
<pdfrwt beam="2">  1       -1 0.45302207E+00 0.41368235E+04</pdfrwt>
<totfact> 0.16843412E-02</totfact>
</mgrwt>
</event>
<event>
 6    1  0.1780144E-005  0.2734783E+04  0.7818608E-02  0.8323807E-01
          2   -1    0    0  501    0  0.00000000000E+00  0.00000000000E+00  0.26627567791E+04  0.26627567791E+04  0.00000000000E+00 0.  1.
         -2   -1    0    0    0  501 -0.00000000000E+00 -0.00000000000E+00 -0.70218915633E+03  0.70218915633E+03  0.00000000000E+00 0. -1.
         23    2    1    2    0    0  0.12461169255E+04  0.72536805774E+02  0.29871249238E+03  0.12865255125E+04  0.88598876647E+02 0.  0.
         11    1    3    3    0    0  0.96848633894E+03  0.46173334282E+02  0.26810644994E+03  0.10059715871E+04  0.00000000000E+00 0. -1.
        -11    1    3    3    0    0  0.27763058656E+03  0.26363471493E+02  0.30606042442E+02  0.28055392540E+03  0.00000000000E+00 0.  1.
         22    1    1    2    0    0 -0.12461169255E+04 -0.72536805774E+02  0.16618551304E+04  0.20784204230E+04  0.00000000000E+00 0.  1.
<mgrwt>
<rscale>  0 0.27347826E+04</rscale>
<asrwt>0</asrwt>
<pdfrwt beam="1">  1        2 0.40965489E+00 0.27347826E+04</pdfrwt>
<pdfrwt beam="2">  1       -2 0.10802910E+00 0.27347826E+04</pdfrwt>
<totfact> 0.16774410E+00</totfact>
</mgrwt>
</event>
<event>
 6    1  0.1780144E-005  0.2292783E+04  0.7818608E-02  0.8480772E-01
          1   -1    0    0  501    0  0.00000000000E+00  0.00000000000E+00  0.11887090379E+04  0.11887090379E+04  0.00000000000E+00 0. -1.
         -1   -1    0    0    0  501 -0.00000000000E+00 -0.00000000000E+00 -0.11055803493E+04  0.11055803493E+04  0.00000000000E+00 0.  1.
         23    2    1    2    0    0  0.17775093899E+03  0.86974520162E+03 -0.68146606582E+03  0.11226848248E+04  0.89292244229E+02 0.  0.
         13    1    3    3    0    0  0.15065236951E+03  0.74847067336E+03 -0.62271953425E+03  0.98523301997E+03  0.00000000000E+00 0. -1.
        -13    1    3    3    0    0  0.27098569482E+02  0.12127452826E+03 -0.58746531574E+02  0.13745180481E+03  0.00000000000E+00 0.  1.
         22    1    1    2    0    0 -0.17775093899E+03 -0.86974520162E+03  0.76459475451E+03  0.11716045624E+04  0.00000000000E+00 0. -1.
<mgrwt>
<rscale>  0 0.22927829E+04</rscale>
<asrwt>0</asrwt>
<pdfrwt beam="1">  1        1 0.18287831E+00 0.22927829E+04</pdfrwt>
<pdfrwt beam="2">  1       -1 0.17008929E+00 0.22927829E+04</pdfrwt>
<totfact> 0.24203802E+00</totfact>
</mgrwt>
</event>
<event>
 6    1  0.1780144E-005  0.1714786E+04  0.7818608E-02  0.8752976E-01
          2   -1    0    0  501    0  0.00000000000E+00  0.00000000000E+00  0.31994738169E+04  0.31994738169E+04  0.00000000000E+00 0.  1.
         -2   -1    0    0    0  501 -0.00000000000E+00 -0.00000000000E+00 -0.22976363530E+03  0.22976363530E+03  0.00000000000E+00 0. -1.
         23    2    1    2    0    0  0.44896206171E+03 -0.65731248314E+03  0.21125314046E+04  0.22594588026E+04  0.93480007708E+02 0.  0.
         13    1    3    3    0    0  0.27028199687E+03 -0.32334528627E+03  0.10485949434E+04  0.11301132188E+04  0.00000000000E+00 0.  1.
        -13    1    3    3    0    0  0.17868006483E+03 -0.33396719686E+03  0.10639364612E+04  0.11293455838E+04  0.00000000000E+00 0. -1.
         22    1    1    2    0    0 -0.44896206171E+03  0.65731248314E+03  0.85717877698E+03  0.11697786496E+04  0.00000000000E+00 0. -1.
<mgrwt>
<rscale>  0 0.17147860E+04</rscale>
<asrwt>0</asrwt>
<pdfrwt beam="1">  1        2 0.49222671E+00 0.17147860E+04</pdfrwt>
<pdfrwt beam="2">  1       -2 0.35348254E-01 0.17147860E+04</pdfrwt>
<totfact> 0.93317910E+00</totfact>
</mgrwt>
</event>
<event>
 6    1  0.1780144E-005  0.1210348E+04  0.7818608E-02  0.9103847E-01
         -2   -1    0    0    0  501 -0.00000000000E+00  0.00000000000E+00  0.19698720187E+03  0.19698720187E+03  0.00000000000E+00 0. -1.
          2   -1    0    0  501    0  0.00000000000E+00 -0.00000000000E+00 -0.18591858122E+04  0.18591858122E+04  0.00000000000E+00 0.  1.
         23    2    1    2    0    0 -0.58549624596E+03  0.22351813886E+02 -0.59537505073E+03  0.83903786753E+03  0.78788542936E+02 0.  0.
         11    1    3    3    0    0 -0.37237392504E+03  0.51665261495E+02 -0.38699596205E+03  0.53953453452E+03  0.00000000000E+00 0. -1.
        -11    1    3    3    0    0 -0.21312232092E+03 -0.29313447609E+02 -0.20837908868E+03  0.29950333301E+03  0.00000000000E+00 0.  1.
         22    1    1    2    0    0  0.58549624596E+03 -0.22351813886E+02 -0.10668235596E+04  0.12171351465E+04  0.00000000000E+00 0. -1.
<mgrwt>
<rscale>  0 0.12103484E+04</rscale>
<asrwt>0</asrwt>
<pdfrwt beam="1">  1        2 0.28602858E+00 0.12103484E+04</pdfrwt>
<pdfrwt beam="2">  1       -2 0.30305724E-01 0.12103484E+04</pdfrwt>
<totfact> 0.79414208E+01</totfact>
</mgrwt>
</event>
<event>
 6    1  0.1780144E-005  0.1641684E+04  0.7818608E-02  0.8795341E-01
          1   -1    0    0  501    0  0.00000000000E+00  0.00000000000E+00  0.15439814118E+04  0.15439814118E+04  0.00000000000E+00 0. -1.
         -1   -1    0    0    0  501 -0.00000000000E+00 -0.00000000000E+00 -0.43639220236E+03  0.43639220236E+03  0.00000000000E+00 0.  1.
         23    2    1    2    0    0  0.79090520993E+03 -0.12333940030E+03  0.35010401655E+03  0.87831759191E+03  0.90140507546E+02 0.  0.
         13    1    3    3    0    0  0.43400465081E+03 -0.89807187151E+02  0.15071409433E+03  0.46812402845E+03  0.00000000000E+00 0.  1.
        -13    1    3    3    0    0  0.35690055912E+03 -0.33532213146E+02  0.19938992222E+03  0.41019356346E+03  0.00000000000E+00 0. -1.
         22    1    1    2    0    0 -0.79090520993E+03  0.12333940030E+03  0.75748519290E+03  0.11020560223E+04  0.00000000000E+00 0. -1.
<mgrwt>
<rscale>  0 0.16416838E+04</rscale>
<asrwt>0</asrwt>
<pdfrwt beam="1">  1        1 0.23753560E+00 0.16416838E+04</pdfrwt>
<pdfrwt beam="2">  1       -1 0.67137263E-01 0.16416838E+04</pdfrwt>
<totfact> 0.13105393E+01</totfact>
</mgrwt>
</event>
<event>
 6    1  0.1780144E-005  0.2550248E+04  0.7818608E-02  0.8385300E-01
          2   -1    0    0  501    0  0.00000000000E+00  0.00000000000E+00  0.22851778676E+04  0.22851778676E+04  0.00000000000E+00 0. -1.
         -2   -1    0    0    0  501 -0.00000000000E+00 -0.00000000000E+00 -0.71151638420E+03  0.71151638420E+03  0.00000000000E+00 0.  1.
         23    2    1    2    0    0  0.10039839367E+04  0.82963723086E+02 -0.12741479504E+03  0.10196946996E+04  0.93145186869E+02 0.  0.
         11    1    3    3    0    0  0.74552550126E+03  0.99048854483E+02 -0.78563849824E+02  0.75616878216E+03  0.00000000000E+00 0.  1.
        -11    1    3    3    0    0  0.25845843542E+03 -0.16085131397E+02 -0.48850945217E+02  0.26352591740E+03  0.00000000000E+00 0. -1.
         22    1    1    2    0    0 -0.10039839367E+04 -0.82963723086E+02  0.17010762785E+04  0.19769995523E+04  0.00000000000E+00 0. -1.
<mgrwt>
<rscale>  0 0.25502482E+04</rscale>
<asrwt>0</asrwt>
<pdfrwt beam="1">  1        2 0.35156582E+00 0.25502482E+04</pdfrwt>
<pdfrwt beam="2">  1       -2 0.10946406E+00 0.25502482E+04</pdfrwt>
<totfact> 0.27290633E+00</totfact>
</mgrwt>
</event>
<event>
 6    1  0.1780144E-005  0.3836445E+04  0.7818608E-02  0.8038379E-01
         -2   -1    0    0    0  501 -0.00000000000E+00  0.00000000000E+00  0.12389093719E+04  0.12389093719E+04  0.00000000000E+00 0.  1.
          2   -1    0    0  501    0  0.00000000000E+00 -0.00000000000E+00 -0.29700141811E+04  0.29700141811E+04  0.00000000000E+00 0. -1.
         23    2    1    2    0    0  0.12614046025E+04  0.10083463168E+04 -0.19995858570E+04  0.25718572932E+04  0.90567496715E+02 0.  0.
         13    1    3    3    0    0  0.22403743878E+03  0.13650463446E+03 -0.32072962903E+03  0.41435948661E+03  0.00000000000E+00 0. -1.
        -13    1    3    3    0    0  0.10373671638E+04  0.87184168230E+03 -0.16788562280E+04  0.21574978066E+04  0.00000000000E+00 0.  1.
         22    1    1    2    0    0 -0.12614046025E+04 -0.10083463168E+04  0.26848104774E+03  0.16370662598E+04  0.00000000000E+00 0.  1.
<mgrwt>
<rscale>  0 0.38364454E+04</rscale>
<asrwt>0</asrwt>
<pdfrwt beam="1">  1        2 0.45692525E+00 0.38364454E+04</pdfrwt>
<pdfrwt beam="2">  1       -2 0.19060145E+00 0.38364454E+04</pdfrwt>
<totfact> 0.22305743E-01</totfact>
</mgrwt>
</event>
<event>
 6    1  0.1780144E-005  0.2970624E+04  0.7818608E-02  0.8252170E-01
          2   -1    0    0  501    0  0.00000000000E+00  0.00000000000E+00  0.43800585362E+04  0.43800585362E+04  0.00000000000E+00 0. -1.
         -2   -1    0    0    0  501 -0.00000000000E+00 -0.00000000000E+00 -0.50368081188E+03  0.50368081188E+03  0.00000000000E+00 0.  1.
         23    2    1    2    0    0 -0.75251976684E+03 -0.10689036001E+04  0.30945537382E+04  0.33605552978E+04  0.90709232837E+02 0.  0.
         11    1    3    3    0    0 -0.55193770477E+03 -0.76861959802E+03  0.23382042545E+04  0.25224215453E+04  0.00000000000E+00 0. -1.
        -11    1    3    3    0    0 -0.20058206207E+03 -0.30028400211E+03  0.75634948368E+03  0.83813375246E+03  0.00000000000E+00 0.  1.
         22    1    1    2    0    0  0.75251976684E+03  0.10689036001E+04  0.78182398611E+03  0.15231840503E+04  0.00000000000E+00 0. -1.
<mgrwt>
<rscale>  0 0.29706238E+04</rscale>
<asrwt>0</asrwt>
<pdfrwt beam="1">  1        2 0.67385513E+00 0.29706238E+04</pdfrwt>
<pdfrwt beam="2">  1       -2 0.77489359E-01 0.29706238E+04</pdfrwt>
<totfact> 0.20402959E-01</totfact>
</mgrwt>
</event>
<event>
 6    1  0.1780144E-005  0.1651434E+04  0.7818608E-02  0.8789559E-01
         -2   -1    0    0    0  501 -0.00000000000E+00  0.00000000000E+00  0.24099744900E+03  0.24099744900E+03  0.00000000000E+00 0.  1.
          2   -1    0    0  501    0  0.00000000000E+00 -0.00000000000E+00 -0.28291107845E+04  0.28291107845E+04  0.00000000000E+00 0. -1.
         23    2    1    2    0    0 -0.74610526466E+03  0.34366022297E+03 -0.11954938667E+04  0.14532704557E+04  0.89521044032E+02 0.  0.
         11    1    3    3    0    0 -0.49456145528E+03  0.23226346961E+03 -0.71882841978E+03  0.90291286925E+03  0.00000000000E+00 0. -1.
        -11    1    3    3    0    0 -0.25154380937E+03  0.11139675336E+03 -0.47666544689E+03  0.55035758644E+03  0.00000000000E+00 0.  1.
         22    1    1    2    0    0  0.74610526466E+03 -0.34366022297E+03 -0.13926194688E+04  0.16168377778E+04  0.00000000000E+00 0. -1.
<mgrwt>
<rscale>  0 0.16514339E+04</rscale>
<asrwt>0</asrwt>
<pdfrwt beam="1">  1        2 0.43524778E+00 0.16514339E+04</pdfrwt>
<pdfrwt beam="2">  1       -2 0.37076533E-01 0.16514339E+04</pdfrwt>
<totfact> 0.14597454E+01</totfact>
</mgrwt>
</event>
<event>
 6    1  0.1780144E-005  0.1389591E+04  0.7818608E-02  0.8961388E-01
         -1   -1    0    0    0  501 -0.00000000000E+00  0.00000000000E+00  0.25700890745E+03  0.25700890745E+03  0.00000000000E+00 0.  1.
          1   -1    0    0  501    0  0.00000000000E+00 -0.00000000000E+00 -0.18783042579E+04  0.18783042579E+04  0.00000000000E+00 0. -1.
         23    2    1    2    0    0 -0.22286306047E+03  0.81734061172E+02 -0.18126578155E+04  0.18304066329E+04  0.91168443759E+02 0.  0.
         11    1    3    3    0    0 -0.31563189902E+02 -0.17834055174E+02 -0.18449498053E+03  0.18802310050E+03  0.00000000000E+00 0. -1.
        -11    1    3    3    0    0 -0.19129987056E+03  0.99568116345E+02 -0.16281628350E+04  0.16423835324E+04  0.00000000000E+00 0.  1.
         22    1    1    2    0    0  0.22286306047E+03 -0.81734061172E+02  0.19136246509E+03  0.30490653243E+03  0.00000000000E+00 0.  1.
<mgrwt>
<rscale>  0 0.13895912E+04</rscale>
<asrwt>0</asrwt>
<pdfrwt beam="1">  1        1 0.28896989E+00 0.13895912E+04</pdfrwt>
<pdfrwt beam="2">  1       -1 0.39539831E-01 0.13895912E+04</pdfrwt>
<totfact> 0.21894390E+01</totfact>
</mgrwt>
</event>
<event>
 6    1  0.1780144E-005  0.1152350E+04  0.7818608E-02  0.9155619E-01
         -2   -1    0    0    0  501 -0.00000000000E+00  0.00000000000E+00  0.52716614500E+03  0.52716614500E+03  0.00000000000E+00 0. -1.
          2   -1    0    0  501    0  0.00000000000E+00 -0.00000000000E+00 -0.62973975256E+03  0.62973975256E+03  0.00000000000E+00 0.  1.
         23    2    1    2    0    0 -0.12024517111E+03 -0.22543957376E+03 -0.56623443430E+03  0.62750693190E+03  0.88665734053E+02 0.  0.
         13    1    3    3    0    0 -0.13161983298E+03 -0.19560483047E+03 -0.52368952313E+03  0.57431328278E+03  0.00000000000E+00 0. -1.
        -13    1    3    3    0    0  0.11374661873E+02 -0.29834743292E+02 -0.42544911173E+02  0.53193649120E+02  0.00000000000E+00 0.  1.
         22    1    1    2    0    0  0.12024517111E+03  0.22543957376E+03  0.46366082674E+03  0.52939896567E+03  0.00000000000E+00 0. -1.
<mgrwt>
<rscale>  0 0.11523497E+04</rscale>
<asrwt>0</asrwt>
<pdfrwt beam="1">  1        2 0.96883039E-01 0.11523497E+04</pdfrwt>
<pdfrwt beam="2">  1       -2 0.81102484E-01 0.11523497E+04</pdfrwt>
<totfact> 0.62054782E+01</totfact>
</mgrwt>
</event>
<event>
 6    1  0.1780144E-005  0.2535985E+04  0.7818608E-02  0.8390277E-01
         -2   -1    0    0    0  501 -0.00000000000E+00  0.00000000000E+00  0.14458994202E+04  0.14458994202E+04  0.00000000000E+00 0.  1.
          2   -1    0    0  501    0  0.00000000000E+00 -0.00000000000E+00 -0.11119752874E+04  0.11119752874E+04  0.00000000000E+00 0. -1.
         23    2    1    2    0    0 -0.82131210128E+03 -0.96317931724E+03  0.12915659993E+03  0.12756119780E+04  0.90755310387E+02 0.  0.
         11    1    3    3    0    0 -0.73044737555E+03 -0.89093471202E+03  0.10355447137E+03  0.11567374629E+04  0.00000000000E+00 0. -1.
        -11    1    3    3    0    0 -0.90864725723E+02 -0.72244605220E+02  0.25602128560E+02  0.11887451515E+03  0.00000000000E+00 0.  1.
         22    1    1    2    0    0  0.82131210128E+03  0.96317931724E+03  0.20476753288E+03  0.12822627295E+04  0.00000000000E+00 0.  1.
<mgrwt>
<rscale>  0 0.25359846E+04</rscale>
<asrwt>0</asrwt>
<pdfrwt beam="1">  1        2 0.17107312E+00 0.25359846E+04</pdfrwt>
<pdfrwt beam="2">  1       -2 0.22244607E+00 0.25359846E+04</pdfrwt>
<totfact> 0.18163847E+00</totfact>
</mgrwt>
</event>
<event>
 6    1  0.1780144E-005  0.2977161E+04  0.7818608E-02  0.8250283E-01
         -2   -1    0    0    0  501 -0.00000000000E+00  0.00000000000E+00  0.45969994566E+03  0.45969994566E+03  0.00000000000E+00 0.  1.
          2   -1    0    0  501    0  0.00000000000E+00 -0.00000000000E+00 -0.48202583155E+04  0.48202583155E+04  0.00000000000E+00 0. -1.
         23    2    1    2    0    0 -0.13114555467E+04  0.15861756545E+03 -0.33936285744E+04  0.36428790290E+04  0.93688506163E+02 0.  0.
         11    1    3    3    0    0 -0.12420134183E+04  0.16205531041E+03 -0.31621366445E+04  0.34011714767E+04  0.00000000000E+00 0. -1.
        -11    1    3    3    0    0 -0.69442128357E+02 -0.34377449632E+01 -0.23149192988E+03  0.24170755239E+03  0.00000000000E+00 0.  1.
         22    1    1    2    0    0  0.13114555467E+04 -0.15861756545E+03 -0.96692979543E+03  0.16370792321E+04  0.00000000000E+00 0.  1.
<mgrwt>
<rscale>  0 0.29771614E+04</rscale>
<asrwt>0</asrwt>
<pdfrwt beam="1">  1        2 0.74157825E+00 0.29771614E+04</pdfrwt>
<pdfrwt beam="2">  1       -2 0.70723064E-01 0.29771614E+04</pdfrwt>
<totfact> 0.87958949E-02</totfact>
</mgrwt>
</event>
<event>
 6    1  0.1780144E-005  0.1828074E+04  0.7818608E-02  0.8691511E-01
          2   -1    0    0  501    0  0.00000000000E+00  0.00000000000E+00  0.11271141980E+04  0.11271141980E+04  0.00000000000E+00 0.  1.
         -2   -1    0    0    0  501 -0.00000000000E+00 -0.00000000000E+00 -0.74124168080E+03  0.74124168080E+03  0.00000000000E+00 0. -1.
         23    2    1    2    0    0  0.12135704116E+03 -0.25832163461E+03  0.10785350352E+04  0.11191970423E+04  0.88919059251E+02 0.  0.
         13    1    3    3    0    0 -0.14488401567E+02 -0.27038413720E+02  0.10555033129E+03  0.10991752377E+03  0.00000000000E+00 0. -1.
        -13    1    3    3    0    0  0.13584544272E+03 -0.23128322089E+03  0.97298470389E+03  0.10092795186E+04  0.00000000000E+00 0.  1.
         22    1    1    2    0    0 -0.12135704116E+03  0.25832163461E+03 -0.69266251801E+03  0.74915883643E+03  0.00000000000E+00 0. -1.
<mgrwt>
<rscale>  0 0.18280744E+04</rscale>
<asrwt>0</asrwt>
<pdfrwt beam="1">  1        2 0.17340218E+00 0.18280744E+04</pdfrwt>
<pdfrwt beam="2">  1       -2 0.11403718E+00 0.18280744E+04</pdfrwt>
<totfact> 0.11888060E+01</totfact>
</mgrwt>
</event>
<event>
 6    1  0.1780144E-005  0.7255669E+03  0.7818608E-02  0.9674481E-01
          1   -1    0    0  501    0  0.00000000000E+00  0.00000000000E+00  0.27369644049E+03  0.27369644049E+03  0.00000000000E+00 0. -1.
         -1   -1    0    0    0  501 -0.00000000000E+00 -0.00000000000E+00 -0.48086795733E+03  0.48086795733E+03  0.00000000000E+00 0.  1.
         23    2    1    2    0    0 -0.45687869905E+02 -0.44450594702E+02 -0.47055497151E+03  0.48357716377E+03  0.91442087049E+02 0.  0.
         13    1    3    3    0    0  0.19612525638E+02 -0.41722082855E+02 -0.19744443923E+03  0.20275524640E+03  0.00000000000E+00 0. -1.
        -13    1    3    3    0    0 -0.65300395543E+02 -0.27285118465E+01 -0.27311053228E+03  0.28082191737E+03  0.00000000000E+00 0.  1.
         22    1    1    2    0    0  0.45687869905E+02  0.44450594702E+02  0.26338345467E+03  0.27098723405E+03  0.00000000000E+00 0. -1.
<mgrwt>
<rscale>  0 0.72556695E+03</rscale>
<asrwt>0</asrwt>
<pdfrwt beam="1">  1        1 0.42107145E-01 0.72556695E+03</pdfrwt>
<pdfrwt beam="2">  1       -1 0.73979685E-01 0.72556695E+03</pdfrwt>
<totfact> 0.18444471E+02</totfact>
</mgrwt>
</event>
<event>
 6    1  0.1780144E-005  0.1110889E+04  0.7818608E-02  0.9194643E-01
          2   -1    0    0  501    0  0.00000000000E+00  0.00000000000E+00  0.22062173636E+04  0.22062173636E+04  0.00000000000E+00 0.  1.
         -2   -1    0    0    0  501 -0.00000000000E+00 -0.00000000000E+00 -0.13984050758E+03  0.13984050758E+03  0.00000000000E+00 0. -1.
         23    2    1    2    0    0 -0.22473897723E+03 -0.20669370900E+03  0.20106149691E+04  0.20356721672E+04  0.90325638208E+02 0.  0.
         11    1    3    3    0    0 -0.75401025547E+02 -0.38526516996E+02  0.78865875926E+03  0.79319117854E+03  0.00000000000E+00 0.  1.
        -11    1    3    3    0    0 -0.14933795168E+03 -0.16816719200E+03  0.12219562099E+04  0.12424809887E+04  0.00000000000E+00 0. -1.
         22    1    1    2    0    0  0.22473897723E+03  0.20669370900E+03  0.55761886914E+02  0.31038570402E+03  0.00000000000E+00 0. -1.
<mgrwt>
<rscale>  0 0.11108889E+04</rscale>
<asrwt>0</asrwt>
<pdfrwt beam="1">  1        2 0.33941803E+00 0.11108889E+04</pdfrwt>
<pdfrwt beam="2">  1       -2 0.21513926E-01 0.11108889E+04</pdfrwt>
<totfact> 0.95900111E+01</totfact>
</mgrwt>
</event>
<event>
 6    1  0.1780144E-005  0.1327831E+04  0.7818608E-02  0.9007781E-01
         -1   -1    0    0    0  501 -0.00000000000E+00  0.00000000000E+00  0.45126155895E+03  0.45126155895E+03  0.00000000000E+00 0.  1.
          1   -1    0    0  501    0  0.00000000000E+00 -0.00000000000E+00 -0.97678170125E+03  0.97678170125E+03  0.00000000000E+00 0. -1.
         23    2    1    2    0    0  0.54769678537E+02  0.54332347374E+03 -0.66419756874E+03  0.86463262540E+03  0.90725144110E+02 0.  0.
         13    1    3    3    0    0  0.42880029602E+02  0.86264189438E+02 -0.11797559879E+03  0.15231037137E+03  0.00000000000E+00 0.  1.
        -13    1    3    3    0    0  0.11889648935E+02  0.45705928430E+03 -0.54622196995E+03  0.71232225402E+03  0.00000000000E+00 0. -1.
         22    1    1    2    0    0 -0.54769678537E+02 -0.54332347374E+03  0.13867742644E+03  0.56341063480E+03  0.00000000000E+00 0.  1.
<mgrwt>
<rscale>  0 0.13278314E+04</rscale>
<asrwt>0</asrwt>
<pdfrwt beam="1">  1        1 0.15027411E+00 0.13278314E+04</pdfrwt>
<pdfrwt beam="2">  1       -1 0.69424856E-01 0.13278314E+04</pdfrwt>
<totfact> 0.32476012E+01</totfact>
</mgrwt>
</event>
<event>
 6    1  0.1780144E-005  0.3780023E+04  0.7818608E-02  0.8050456E-01
         -1   -1    0    0    0  501 -0.00000000000E+00  0.00000000000E+00  0.19262562087E+04  0.19262562087E+04  0.00000000000E+00 0. -1.
          1   -1    0    0  501    0  0.00000000000E+00 -0.00000000000E+00 -0.18544483161E+04  0.18544483161E+04  0.00000000000E+00 0.  1.
         23    2    1    2    0    0 -0.35187513894E+03  0.12385260196E+04  0.14183657147E+04  0.19176476864E+04  0.88591950679E+02 0.  0.
         13    1    3    3    0    0 -0.28030527340E+03  0.90111333581E+03  0.10845405644E+04  0.14376385242E+04  0.00000000000E+00 0.  1.
        -13    1    3    3    0    0 -0.71569865535E+02  0.33741268383E+03  0.33382515033E+03  0.48000916227E+03  0.00000000000E+00 0. -1.
         22    1    1    2    0    0  0.35187513894E+03 -0.12385260196E+04 -0.13465578221E+04  0.18630568384E+04  0.00000000000E+00 0.  1.
<mgrwt>
<rscale>  0 0.37800225E+04</rscale>
<asrwt>0</asrwt>
<pdfrwt beam="1">  1        1 0.28529974E+00 0.37800225E+04</pdfrwt>
<pdfrwt beam="2">  1       -1 0.29634711E+00 0.37800225E+04</pdfrwt>
<totfact> 0.10398719E-01</totfact>
</mgrwt>
</event>
<event>
 6    1  0.1780144E-005  0.9644085E+03  0.7818608E-02  0.9348466E-01
         -3   -1    0    0    0  501 -0.00000000000E+00  0.00000000000E+00  0.35538902396E+03  0.35538902396E+03  0.00000000000E+00 0.  1.
          3   -1    0    0  501    0  0.00000000000E+00 -0.00000000000E+00 -0.65427158430E+03  0.65427158430E+03  0.00000000000E+00 0. -1.
         23    2    1    2    0    0 -0.14909275444E+03  0.45413450511E+03 -0.16489100841E+03  0.51325297924E+03  0.88163359066E+02 0.  0.
         13    1    3    3    0    0 -0.96485365905E+02  0.26977693936E+03 -0.53308465134E+02  0.29142891980E+03  0.00000000000E+00 0. -1.
        -13    1    3    3    0    0 -0.52607388534E+02  0.18435756575E+03 -0.11158254328E+03  0.22182405943E+03  0.00000000000E+00 0.  1.
         22    1    1    2    0    0  0.14909275444E+03 -0.45413450511E+03 -0.13399155193E+03  0.49640762902E+03  0.00000000000E+00 0. -1.
<mgrwt>
<rscale>  0 0.96440850E+03</rscale>
<asrwt>0</asrwt>
<pdfrwt beam="1">  1        3 0.10065717E+00 0.96440850E+03</pdfrwt>
<pdfrwt beam="2">  1       -3 0.54675235E-01 0.96440850E+03</pdfrwt>
<totfact> 0.74504487E+00</totfact>
</mgrwt>
</event>
<event>
 6    1  0.1780144E-005  0.2228645E+04  0.7818608E-02  0.8506599E-01
          1   -1    0    0  501    0  0.00000000000E+00  0.00000000000E+00  0.96705570414E+03  0.96705570414E+03  0.00000000000E+00 0. -1.
         -1   -1    0    0    0  501 -0.00000000000E+00 -0.00000000000E+00 -0.12840156102E+04  0.12840156102E+04  0.00000000000E+00 0.  1.
         23    2    1    2    0    0  0.10107038242E+03  0.78796152594E+03 -0.94526853631E+03  0.12382187469E+04  0.92490383098E+02 0.  0.
         13    1    3    3    0    0  0.73179037358E+01  0.22369603988E+03 -0.21245284293E+03  0.30859306609E+03  0.00000000000E+00 0. -1.
        -13    1    3    3    0    0  0.93752478682E+02  0.56426548606E+03 -0.73281569338E+03  0.92962568085E+03  0.00000000000E+00 0.  1.
         22    1    1    2    0    0 -0.10107038242E+03 -0.78796152594E+03  0.62830863022E+03  0.10128525674E+04  0.00000000000E+00 0. -1.
<mgrwt>
<rscale>  0 0.22286450E+04</rscale>
<asrwt>0</asrwt>
<pdfrwt beam="1">  1        1 0.14877780E+00 0.22286450E+04</pdfrwt>
<pdfrwt beam="2">  1       -1 0.19754086E+00 0.22286450E+04</pdfrwt>
<totfact> 0.22865419E+00</totfact>
</mgrwt>
</event>
<event>
 6    1  0.1780144E-005  0.1143963E+04  0.7818608E-02  0.9163371E-01
         -1   -1    0    0    0  501 -0.00000000000E+00  0.00000000000E+00  0.32583563593E+03  0.32583563593E+03  0.00000000000E+00 0.  1.
          1   -1    0    0  501    0  0.00000000000E+00 -0.00000000000E+00 -0.10040730867E+04  0.10040730867E+04  0.00000000000E+00 0. -1.
         23    2    1    2    0    0 -0.23439669978E+03  0.91875494559E+02  0.25084816754E+03  0.36731690597E+03  0.92811566521E+02 0.  0.
         11    1    3    3    0    0 -0.31886238822E+02  0.45893907385E+02  0.84178744867E+02  0.10103981418E+03  0.00000000000E+00 0. -1.
        -11    1    3    3    0    0 -0.20251046096E+03  0.45981587174E+02  0.16666942267E+03  0.26627709179E+03  0.00000000000E+00 0.  1.
         22    1    1    2    0    0  0.23439669978E+03 -0.91875494559E+02 -0.92908561834E+03  0.96259181670E+03  0.00000000000E+00 0. -1.
<mgrwt>
<rscale>  0 0.11439629E+04</rscale>
<asrwt>0</asrwt>
<pdfrwt beam="1">  1        1 0.15447278E+00 0.11439629E+04</pdfrwt>
<pdfrwt beam="2">  1       -1 0.50128560E-01 0.11439629E+04</pdfrwt>
<totfact> 0.59591098E+01</totfact>
</mgrwt>
</event>
<event>
 6    1  0.1780144E-005  0.1705814E+04  0.7818608E-02  0.8758056E-01
          2   -1    0    0  501    0  0.00000000000E+00  0.00000000000E+00  0.94675660314E+03  0.94675660314E+03  0.00000000000E+00 0. -1.
         -2   -1    0    0    0  501 -0.00000000000E+00 -0.00000000000E+00 -0.76836021413E+03  0.76836021413E+03  0.00000000000E+00 0.  1.
         23    2    1    2    0    0  0.63381330824E+03  0.45874871435E+03  0.42474872381E+03  0.89483688610E+03  0.90287771798E+02 0.  0.
         11    1    3    3    0    0  0.12822315850E+03  0.74565404431E+02  0.11849442413E+03  0.18984758746E+03  0.00000000000E+00 0. -1.
        -11    1    3    3    0    0  0.50559014974E+03  0.38418330992E+03  0.30625429967E+03  0.70498929865E+03  0.00000000000E+00 0.  1.
         22    1    1    2    0    0 -0.63381330824E+03 -0.45874871435E+03 -0.24635233480E+03  0.82027993117E+03  0.00000000000E+00 0.  1.
<mgrwt>
<rscale>  0 0.17058137E+04</rscale>
<asrwt>0</asrwt>
<pdfrwt beam="1">  1        2 0.14565486E+00 0.17058137E+04</pdfrwt>
<pdfrwt beam="2">  1       -2 0.11820926E+00 0.17058137E+04</pdfrwt>
<totfact> 0.14304162E+01</totfact>
</mgrwt>
</event>
<event>
 6    1  0.1780144E-005  0.2036432E+04  0.7818608E-02  0.8589774E-01
          2   -1    0    0  501    0  0.00000000000E+00  0.00000000000E+00  0.21752688176E+04  0.21752688176E+04  0.00000000000E+00 0. -1.
         -2   -1    0    0    0  501 -0.00000000000E+00 -0.00000000000E+00 -0.47661432986E+03  0.47661432986E+03  0.00000000000E+00 0.  1.
         23    2    1    2    0    0 -0.45780505547E+03  0.40454327932E+03  0.19079809052E+04  0.20060826499E+04  0.10361336776E+03 0.  0.
         13    1    3    3    0    0 -0.27569688002E+03  0.25065199302E+03  0.13205407200E+04  0.13721016669E+04  0.00000000000E+00 0.  1.
        -13    1    3    3    0    0 -0.18210817545E+03  0.15389128629E+03  0.58744018520E+03  0.63398098296E+03  0.00000000000E+00 0. -1.
         22    1    1    2    0    0  0.45780505547E+03 -0.40454327932E+03 -0.20932641743E+03  0.64580049759E+03  0.00000000000E+00 0.  1.
<mgrwt>
<rscale>  0 0.20364325E+04</rscale>
<asrwt>0</asrwt>
<pdfrwt beam="1">  1        2 0.33465674E+00 0.20364325E+04</pdfrwt>
<pdfrwt beam="2">  1       -2 0.73325283E-01 0.20364325E+04</pdfrwt>
<totfact> 0.82908741E+00</totfact>
</mgrwt>
</event>
<event>
 6    1  0.1780144E-005  0.1219107E+04  0.7818608E-02  0.9096294E-01
          1   -1    0    0  501    0  0.00000000000E+00  0.00000000000E+00  0.99347127632E+03  0.99347127632E+03  0.00000000000E+00 0. -1.
         -1   -1    0    0    0  501 -0.00000000000E+00 -0.00000000000E+00 -0.37399734048E+03  0.37399734048E+03  0.00000000000E+00 0.  1.
         23    2    1    2    0    0  0.34936038560E+03 -0.34334700142E+02  0.86563653983E+03  0.93871743224E+03  0.92909890965E+02 0.  0.
         13    1    3    3    0    0  0.20444836537E+03 -0.61945027571E+02  0.55937254629E+03  0.59877705875E+03  0.00000000000E+00 0. -1.
        -13    1    3    3    0    0  0.14491202023E+03  0.27610327429E+02  0.30626399354E+03  0.33994037349E+03  0.00000000000E+00 0.  1.
         22    1    1    2    0    0 -0.34936038560E+03  0.34334700142E+02 -0.24616260399E+03  0.42875118456E+03  0.00000000000E+00 0.  1.
<mgrwt>
<rscale>  0 0.12191072E+04</rscale>
<asrwt>0</asrwt>
<pdfrwt beam="1">  1        1 0.15284173E+00 0.12191072E+04</pdfrwt>
<pdfrwt beam="2">  1       -1 0.57538053E-01 0.12191072E+04</pdfrwt>
<totfact> 0.46291670E+01</totfact>
</mgrwt>
</event>
<event>
 6    1  0.1780144E-005  0.1641908E+04  0.7818608E-02  0.8795208E-01
         -1   -1    0    0    0  501 -0.00000000000E+00  0.00000000000E+00  0.24693068564E+03  0.24693068564E+03  0.00000000000E+00 0.  1.
          1   -1    0    0  501    0  0.00000000000E+00 -0.00000000000E+00 -0.27293719001E+04  0.27293719001E+04  0.00000000000E+00 0. -1.
         23    2    1    2    0    0 -0.41562785582E+03  0.32683389966E+03 -0.11260640792E+03  0.54819963843E+03  0.90971028199E+02 0.  0.
         13    1    3    3    0    0 -0.32637945260E+03  0.24119752395E+03 -0.12303444515E+03  0.42407224306E+03  0.00000000000E+00 0.  1.
        -13    1    3    3    0    0 -0.89248403221E+02  0.85636375711E+02  0.10428037225E+02  0.12412739538E+03  0.00000000000E+00 0. -1.
         22    1    1    2    0    0  0.41562785582E+03 -0.32683389966E+03 -0.23698348065E+04  0.24281029473E+04  0.00000000000E+00 0. -1.
<mgrwt>
<rscale>  0 0.16419082E+04</rscale>
<asrwt>0</asrwt>
<pdfrwt beam="1">  1        1 0.41990337E+00 0.16419082E+04</pdfrwt>
<pdfrwt beam="2">  1       -1 0.37989337E-01 0.16419082E+04</pdfrwt>
<totfact> 0.60040013E+00</totfact>
</mgrwt>
</event>
<event>
 6    1  0.1780144E-005  0.1295257E+04  0.7818608E-02  0.9033335E-01
          2   -1    0    0  501    0  0.00000000000E+00  0.00000000000E+00  0.12571066820E+04  0.12571066820E+04  0.00000000000E+00 0. -1.
         -2   -1    0    0    0  501 -0.00000000000E+00 -0.00000000000E+00 -0.33364142194E+03  0.33364142194E+03  0.00000000000E+00 0.  1.
         23    2    1    2    0    0 -0.29399113390E+03  0.82285003636E+02  0.11611074672E+04  0.12038690178E+04  0.89041860923E+02 0.  0.
         13    1    3    3    0    0 -0.45540735255E+02  0.14935527218E+02  0.33987716879E+03  0.34323973896E+03  0.00000000000E+00 0. -1.
        -13    1    3    3    0    0 -0.24845039865E+03  0.67349476418E+02  0.82123029845E+03  0.86062927887E+03  0.00000000000E+00 0.  1.
         22    1    1    2    0    0  0.29399113390E+03 -0.82285003636E+02 -0.23764220718E+03  0.38687908611E+03  0.00000000000E+00 0.  1.
<mgrwt>
<rscale>  0 0.12952573E+04</rscale>
<asrwt>0</asrwt>
<pdfrwt beam="1">  1        2 0.19340103E+00 0.12952573E+04</pdfrwt>
<pdfrwt beam="2">  1       -2 0.51329450E-01 0.12952573E+04</pdfrwt>
<totfact> 0.61582683E+01</totfact>
</mgrwt>
</event>
<event>
 6    1  0.1780144E-005  0.1444418E+04  0.7818608E-02  0.8922280E-01
         -2   -1    0    0    0  501 -0.00000000000E+00  0.00000000000E+00  0.91968044095E+03  0.91968044095E+03  0.00000000000E+00 0.  1.
          2   -1    0    0  501    0  0.00000000000E+00 -0.00000000000E+00 -0.56713809124E+03  0.56713809124E+03  0.00000000000E+00 0. -1.
         23    2    1    2    0    0  0.17319047638E+03 -0.54850675512E+03 -0.26760135264E+03  0.64098591690E+03  0.91639839643E+02 0.  0.
         11    1    3    3    0    0  0.17951483790E+03 -0.52912504337E+03 -0.24372791081E+03  0.60959181676E+03  0.00000000000E+00 0.  1.
        -11    1    3    3    0    0 -0.63243615226E+01 -0.19381711748E+02 -0.23873441832E+02  0.31394100144E+02  0.00000000000E+00 0. -1.
         22    1    1    2    0    0 -0.17319047638E+03  0.54850675512E+03  0.62014370235E+03  0.84583261529E+03  0.00000000000E+00 0.  1.
<mgrwt>
<rscale>  0 0.14444180E+04</rscale>
<asrwt>0</asrwt>
<pdfrwt beam="1">  1        2 0.87252014E-01 0.14444180E+04</pdfrwt>
<pdfrwt beam="2">  1       -2 0.14148930E+00 0.14444180E+04</pdfrwt>
<totfact> 0.17979352E+01</totfact>
</mgrwt>
</event>
<event>
 6    1  0.1780144E-005  0.8766578E+03  0.7818608E-02  0.9455240E-01
         -1   -1    0    0    0  501 -0.00000000000E+00  0.00000000000E+00  0.66356890975E+03  0.66356890975E+03  0.00000000000E+00 0.  1.
          1   -1    0    0  501    0  0.00000000000E+00 -0.00000000000E+00 -0.28954374156E+03  0.28954374156E+03  0.00000000000E+00 0. -1.
         23    2    1    2    0    0  0.80174120138E+02 -0.14065928156E+03  0.62644111435E+03  0.65323478799E+03  0.89857083496E+02 0.  0.
         13    1    3    3    0    0  0.14626674974E+01 -0.93136945525E+02  0.30597616008E+03  0.31984064869E+03  0.00000000000E+00 0. -1.
        -13    1    3    3    0    0  0.78711452641E+02 -0.47522336037E+02  0.32046495427E+03  0.33339413930E+03  0.00000000000E+00 0.  1.
         22    1    1    2    0    0 -0.80174120138E+02  0.14065928156E+03 -0.25241594616E+03  0.29987786332E+03  0.00000000000E+00 0. -1.
<mgrwt>
<rscale>  0 0.87665780E+03</rscale>
<asrwt>0</asrwt>
<pdfrwt beam="1">  1        1 0.44545191E-01 0.87665780E+03</pdfrwt>
<pdfrwt beam="2">  1       -1 0.10208752E+00 0.87665780E+03</pdfrwt>
<totfact> 0.84260148E+01</totfact>
</mgrwt>
</event>
<event>
 6    1  0.1780144E-005  0.4010065E+03  0.7818608E-02  0.1043432E+00
          1   -1    0    0  501    0  0.00000000000E+00  0.00000000000E+00  0.21738312460E+03  0.21738312460E+03  0.00000000000E+00 0. -1.
         -1   -1    0    0    0  501 -0.00000000000E+00 -0.00000000000E+00 -0.18493412322E+03  0.18493412322E+03  0.00000000000E+00 0.  1.
         23    2    1    2    0    0  0.13335968022E+03 -0.30337859209E+01  0.15243159886E+03  0.22290199801E+03  0.93037090549E+02 0.  0.
         11    1    3    3    0    0  0.57675988098E+02 -0.38716210147E+02  0.32565464671E+02  0.76720101802E+02  0.00000000000E+00 0.  1.
        -11    1    3    3    0    0  0.75683692121E+02  0.35682424226E+02  0.11986613419E+03  0.14618189620E+03  0.00000000000E+00 0. -1.
         22    1    1    2    0    0 -0.13335968022E+03  0.30337859209E+01 -0.11998259749E+03  0.17941524981E+03  0.00000000000E+00 0.  1.
<mgrwt>
<rscale>  0 0.40100652E+03</rscale>
<asrwt>0</asrwt>
<pdfrwt beam="1">  1        1 0.33443558E-01 0.40100652E+03</pdfrwt>
<pdfrwt beam="2">  1       -1 0.28451404E-01 0.40100652E+03</pdfrwt>
<totfact> 0.14831074E+03</totfact>
</mgrwt>
</event>
<event>
 6    1  0.1780144E-005  0.3289224E+04  0.7818608E-02  0.8165643E-01
          2   -1    0    0  501    0  0.00000000000E+00  0.00000000000E+00  0.32261515221E+04  0.32261515221E+04  0.00000000000E+00 0. -1.
         -2   -1    0    0    0  501 -0.00000000000E+00 -0.00000000000E+00 -0.83838235755E+03  0.83838235755E+03  0.00000000000E+00 0.  1.
         23    2    1    2    0    0 -0.71075427564E+03 -0.71940975868E+03  0.27954552740E+04  0.29741532098E+04  0.91077360623E+02 0.  0.
         13    1    3    3    0    0 -0.50920418394E+03 -0.50157005373E+03  0.18527157218E+04  0.19858038588E+04  0.00000000000E+00 0. -1.
        -13    1    3    3    0    0 -0.20155009170E+03 -0.21783970495E+03  0.94273955217E+03  0.98834935106E+03  0.00000000000E+00 0.  1.
         22    1    1    2    0    0  0.71075427564E+03  0.71940975868E+03 -0.40768610944E+03  0.10903806698E+04  0.00000000000E+00 0.  1.
<mgrwt>
<rscale>  0 0.32892239E+04</rscale>
<asrwt>0</asrwt>
<pdfrwt beam="1">  1        2 0.49633100E+00 0.32892239E+04</pdfrwt>
<pdfrwt beam="2">  1       -2 0.12898190E+00 0.32892239E+04</pdfrwt>
<totfact> 0.46120738E-01</totfact>
</mgrwt>
</event>
<event>
 6    1  0.1780144E-005  0.3866396E+04  0.7818608E-02  0.8032055E-01
          2   -1    0    0  501    0  0.00000000000E+00  0.00000000000E+00  0.25300492290E+04  0.25300492290E+04  0.00000000000E+00 0. -1.
         -2   -1    0    0    0  501 -0.00000000000E+00 -0.00000000000E+00 -0.14771470656E+04  0.14771470656E+04  0.00000000000E+00 0.  1.
         23    2    1    2    0    0 -0.87871387822E+03  0.28527959050E+03 -0.12320221958E+04  0.15425661293E+04  0.90050251416E+02 0.  0.
         13    1    3    3    0    0 -0.59567932373E+03  0.16129065771E+03 -0.86906378978E+03  0.10658894894E+04  0.00000000000E+00 0. -1.
        -13    1    3    3    0    0 -0.28303455448E+03  0.12398893279E+03 -0.36295840603E+03  0.47667663987E+03  0.00000000000E+00 0.  1.
         22    1    1    2    0    0  0.87871387822E+03 -0.28527959050E+03  0.22849243592E+04  0.24646301653E+04  0.00000000000E+00 0. -1.
<mgrwt>
<rscale>  0 0.38663961E+04</rscale>
<asrwt>0</asrwt>
<pdfrwt beam="1">  1        2 0.38923834E+00 0.38663961E+04</pdfrwt>
<pdfrwt beam="2">  1       -2 0.22725340E+00 0.38663961E+04</pdfrwt>
<totfact> 0.23720652E-01</totfact>
</mgrwt>
</event>
<event>
 6    1  0.1780144E-005  0.9843084E+03  0.7818608E-02  0.9325925E-01
         -3   -1    0    0    0  501 -0.00000000000E+00  0.00000000000E+00  0.21267908676E+04  0.21267908676E+04  0.00000000000E+00 0.  1.
          3   -1    0    0  501    0  0.00000000000E+00 -0.00000000000E+00 -0.11388789456E+03  0.11388789456E+03  0.00000000000E+00 0. -1.
         23    2    1    2    0    0 -0.29476664754E+02 -0.31162386120E+03  0.18671791807E+04  0.18954053512E+04  0.90692050798E+02 0.  0.
         11    1    3    3    0    0  0.13631251859E+02 -0.12570121946E+03  0.96588045780E+03  0.97412097111E+03  0.00000000000E+00 0.  1.
        -11    1    3    3    0    0 -0.43107916613E+02 -0.18592264174E+03  0.90129872289E+03  0.92128438012E+03  0.00000000000E+00 0. -1.
         22    1    1    2    0    0  0.29476664754E+02  0.31162386120E+03  0.14572379238E+03  0.34527341094E+03  0.00000000000E+00 0. -1.
<mgrwt>
<rscale>  0 0.98430835E+03</rscale>
<asrwt>0</asrwt>
<pdfrwt beam="1">  1        3 0.17521216E-01 0.98430835E+03</pdfrwt>
<pdfrwt beam="2">  1       -3 0.32719857E+00 0.98430835E+03</pdfrwt>
<totfact> 0.20836430E+00</totfact>
</mgrwt>
</event>
<event>
 6    1  0.1780144E-005  0.3436866E+04  0.7818608E-02  0.8128917E-01
         -2   -1    0    0    0  501 -0.00000000000E+00  0.00000000000E+00  0.69474423736E+03  0.69474423736E+03  0.00000000000E+00 0.  1.
          2   -1    0    0  501    0  0.00000000000E+00 -0.00000000000E+00 -0.42505020709E+04  0.42505020709E+04  0.00000000000E+00 0. -1.
         23    2    1    2    0    0  0.15355784130E+04  0.74572187075E+02 -0.67846698768E+03  0.16829825720E+04  0.92470593965E+02 0.  0.
         13    1    3    3    0    0  0.11727161123E+04  0.32519878301E+02 -0.55071490314E+03  0.12959967311E+04  0.00000000000E+00 0. -1.
        -13    1    3    3    0    0  0.36286230067E+03  0.42052308774E+02 -0.12775208454E+03  0.38698584086E+03  0.00000000000E+00 0.  1.
         22    1    1    2    0    0 -0.15355784130E+04 -0.74572187075E+02 -0.28772908458E+04  0.32622637363E+04  0.00000000000E+00 0. -1.
<mgrwt>
<rscale>  0 0.34368659E+04</rscale>
<asrwt>0</asrwt>
<pdfrwt beam="1">  1        2 0.65392339E+00 0.34368659E+04</pdfrwt>
<pdfrwt beam="2">  1       -2 0.10688373E+00 0.34368659E+04</pdfrwt>
<totfact> 0.12175349E-01</totfact>
</mgrwt>
</event>
<event>
 6    1  0.1780144E-005  0.2158893E+04  0.7818608E-02  0.8535735E-01
         -1   -1    0    0    0  501 -0.00000000000E+00  0.00000000000E+00  0.58834518357E+03  0.58834518357E+03  0.00000000000E+00 0.  1.
          1   -1    0    0  501    0  0.00000000000E+00 -0.00000000000E+00 -0.19804778444E+04  0.19804778444E+04  0.00000000000E+00 0. -1.
         23    2    1    2    0    0 -0.74129025658E+02  0.52117503825E+03  0.42130408680E+03  0.68052448944E+03  0.92184132194E+02 0.  0.
         13    1    3    3    0    0 -0.14358788520E+02  0.93222110421E+02  0.12496447109E+03  0.15656518040E+03  0.00000000000E+00 0. -1.
        -13    1    3    3    0    0 -0.59770237138E+02  0.42795292783E+03  0.29633961571E+03  0.52395930903E+03  0.00000000000E+00 0.  1.
         22    1    1    2    0    0  0.74129025658E+02 -0.52117503825E+03 -0.18134367476E+04  0.18882985385E+04  0.00000000000E+00 0. -1.
<mgrwt>
<rscale>  0 0.21588929E+04</rscale>
<asrwt>0</asrwt>
<pdfrwt beam="1">  1        1 0.30468890E+00 0.21588929E+04</pdfrwt>
<pdfrwt beam="2">  1       -1 0.90514643E-01 0.21588929E+04</pdfrwt>
<totfact> 0.33526193E+00</totfact>
</mgrwt>
</event>
<event>
 6    1  0.1780144E-005  0.3458690E+04  0.7818608E-02  0.8123650E-01
          2   -1    0    0  501    0  0.00000000000E+00  0.00000000000E+00  0.32552827859E+04  0.32552827859E+04  0.00000000000E+00 0.  1.
         -2   -1    0    0    0  501 -0.00000000000E+00 -0.00000000000E+00 -0.91870202332E+03  0.91870202332E+03  0.00000000000E+00 0. -1.
         23    2    1    2    0    0 -0.40000279125E+03  0.11106251545E+04 -0.35419734412E+03  0.12356558136E+04  0.88876680807E+02 0.  0.
         11    1    3    3    0    0 -0.11497425530E+03  0.26026751121E+03 -0.11944601574E+03  0.30858646673E+03  0.00000000000E+00 0. -1.
        -11    1    3    3    0    0 -0.28502853595E+03  0.85035764329E+03 -0.23475132837E+03  0.92706934691E+03  0.00000000000E+00 0.  1.
         22    1    1    2    0    0  0.40000279125E+03 -0.11106251545E+04  0.26907781067E+04  0.29383289956E+04  0.00000000000E+00 0.  1.
<mgrwt>
<rscale>  0 0.34586904E+04</rscale>
<asrwt>0</asrwt>
<pdfrwt beam="1">  1        2 0.50081273E+00 0.34586904E+04</pdfrwt>
<pdfrwt beam="2">  1       -2 0.14133877E+00 0.34586904E+04</pdfrwt>
<totfact> 0.34415223E-01</totfact>
</mgrwt>
</event>
<event>
 6    1  0.1780144E-005  0.2936094E+04  0.7818608E-02  0.8262219E-01
          2   -1    0    0  501    0  0.00000000000E+00  0.00000000000E+00  0.16905642570E+04  0.16905642570E+04  0.00000000000E+00 0. -1.
         -2   -1    0    0    0  501 -0.00000000000E+00 -0.00000000000E+00 -0.12748183977E+04  0.12748183977E+04  0.00000000000E+00 0.  1.
         23    2    1    2    0    0  0.86132638211E+03  0.55497704125E+03 -0.85177027269E+03  0.13355115563E+04  0.90531025784E+02 0.  0.
         13    1    3    3    0    0  0.41585274225E+03  0.27506923913E+03 -0.35630267406E+03  0.61281986349E+03  0.00000000000E+00 0.  1.
        -13    1    3    3    0    0  0.44547363986E+03  0.27990780212E+03 -0.49546759863E+03  0.72269169276E+03  0.00000000000E+00 0. -1.
         22    1    1    2    0    0 -0.86132638211E+03 -0.55497704125E+03  0.12675161320E+04  0.16298710985E+04  0.00000000000E+00 0. -1.
<mgrwt>
<rscale>  0 0.29360943E+04</rscale>
<asrwt>0</asrwt>
<pdfrwt beam="1">  1        2 0.26008681E+00 0.29360943E+04</pdfrwt>
<pdfrwt beam="2">  1       -2 0.19612591E+00 0.29360943E+04</pdfrwt>
<totfact> 0.12051101E+00</totfact>
</mgrwt>
</event>
<event>
 6    1  0.1780144E-005  0.1720218E+04  0.7818608E-02  0.8749917E-01
          1   -1    0    0  501    0  0.00000000000E+00  0.00000000000E+00  0.11435377786E+04  0.11435377786E+04  0.00000000000E+00 0. -1.
         -1   -1    0    0    0  501 -0.00000000000E+00 -0.00000000000E+00 -0.64692851368E+03  0.64692851368E+03  0.00000000000E+00 0.  1.
         23    2    1    2    0    0 -0.76755468449E+03  0.28375905805E+03  0.51825168979E+03  0.97185295784E+03  0.79081989038E+02 0.  0.
         13    1    3    3    0    0 -0.58983210751E+03  0.25245170733E+03  0.39838145181E+03  0.75520961377E+03  0.00000000000E+00 0. -1.
        -13    1    3    3    0    0 -0.17772257697E+03  0.31307350712E+02  0.11987023799E+03  0.21664334407E+03  0.00000000000E+00 0.  1.
         22    1    1    2    0    0  0.76755468449E+03 -0.28375905805E+03 -0.21642424923E+02  0.81861333440E+03  0.00000000000E+00 0.  1.
<mgrwt>
<rscale>  0 0.17202177E+04</rscale>
<asrwt>0</asrwt>
<pdfrwt beam="1">  1        1 0.17592889E+00 0.17202177E+04</pdfrwt>
<pdfrwt beam="2">  1       -1 0.99527464E-01 0.17202177E+04</pdfrwt>
<totfact> 0.10767385E+01</totfact>
</mgrwt>
</event>
<event>
 6    1  0.1780144E-005  0.3268904E+04  0.7818608E-02  0.8170853E-01
          2   -1    0    0  501    0  0.00000000000E+00  0.00000000000E+00  0.31956747936E+04  0.31956747936E+04  0.00000000000E+00 0.  1.
         -2   -1    0    0    0  501 -0.00000000000E+00 -0.00000000000E+00 -0.83595271346E+03  0.83595271346E+03  0.00000000000E+00 0. -1.
         23    2    1    2    0    0 -0.37898376383E+03 -0.90320436036E+03  0.27925807214E+04  0.29607524382E+04  0.90228071771E+02 0.  0.
         13    1    3    3    0    0 -0.19564252520E+03 -0.37395841989E+03  0.11198713697E+04  0.11967592833E+04  0.00000000000E+00 0.  1.
        -13    1    3    3    0    0 -0.18334123863E+03 -0.52924594047E+03  0.16727093517E+04  0.17639931549E+04  0.00000000000E+00 0. -1.
         22    1    1    2    0    0  0.37898376383E+03  0.90320436036E+03 -0.43285864126E+03  0.10708750689E+04  0.00000000000E+00 0. -1.
<mgrwt>
<rscale>  0 0.32689038E+04</rscale>
<asrwt>0</asrwt>
<pdfrwt beam="1">  1        2 0.49164227E+00 0.32689038E+04</pdfrwt>
<pdfrwt beam="2">  1       -2 0.12860811E+00 0.32689038E+04</pdfrwt>
<totfact> 0.48727623E-01</totfact>
</mgrwt>
</event>
<event>
 6    1  0.1780144E-005  0.3219769E+04  0.7818608E-02  0.8183616E-01
         -2   -1    0    0    0  501 -0.00000000000E+00  0.00000000000E+00  0.14152310263E+04  0.14152310263E+04  0.00000000000E+00 0.  1.
          2   -1    0    0  501    0  0.00000000000E+00 -0.00000000000E+00 -0.18313111832E+04  0.18313111832E+04  0.00000000000E+00 0. -1.
         23    2    1    2    0    0 -0.13789991848E+04 -0.81080980088E+03 -0.37869286469E+02  0.16027372492E+04  0.91001771454E+02 0.  0.
         13    1    3    3    0    0 -0.13228124310E+04 -0.79261204933E+03 -0.25048758172E+02  0.15423015362E+04  0.00000000000E+00 0. -1.
        -13    1    3    3    0    0 -0.56186753763E+02 -0.18197751551E+02 -0.12820528297E+02  0.60435713000E+02  0.00000000000E+00 0.  1.
         22    1    1    2    0    0  0.13789991848E+04  0.81080980088E+03 -0.37821087043E+03  0.16438049602E+04  0.00000000000E+00 0. -1.
<mgrwt>
<rscale>  0 0.32197692E+04</rscale>
<asrwt>0</asrwt>
<pdfrwt beam="1">  1        2 0.28174018E+00 0.32197692E+04</pdfrwt>
<pdfrwt beam="2">  1       -2 0.21772785E+00 0.32197692E+04</pdfrwt>
<totfact> 0.71217259E-01</totfact>
</mgrwt>
</event>
<event>
 6    1  0.1780144E-005  0.4472630E+04  0.7818608E-02  0.7915446E-01
          1   -1    0    0  501    0  0.00000000000E+00  0.00000000000E+00  0.29788308996E+04  0.29788308996E+04  0.00000000000E+00 0. -1.
         -1   -1    0    0    0  501 -0.00000000000E+00 -0.00000000000E+00 -0.16788814434E+04  0.16788814434E+04  0.00000000000E+00 0.  1.
         23    2    1    2    0    0  0.11667929803E+04 -0.17340067201E+04 -0.17542524488E+03  0.20994090630E+04  0.92516123412E+02 0.  0.
         11    1    3    3    0    0  0.51142032135E+03 -0.70040255789E+03 -0.41526525509E+02  0.86823898813E+03  0.00000000000E+00 0.  1.
        -11    1    3    3    0    0  0.65537265893E+03 -0.10336041622E+04 -0.13389871937E+03  0.12311700749E+04  0.00000000000E+00 0. -1.
         22    1    1    2    0    0 -0.11667929803E+04  0.17340067201E+04  0.14753747010E+04  0.25583032800E+04  0.00000000000E+00 0. -1.
<mgrwt>
<rscale>  0 0.44726296E+04</rscale>
<asrwt>0</asrwt>
<pdfrwt beam="1">  1        1 0.45828168E+00 0.44726296E+04</pdfrwt>
<pdfrwt beam="2">  1       -1 0.25828945E+00 0.44726296E+04</pdfrwt>
<totfact> 0.28707250E-02</totfact>
</mgrwt>
</event>
<event>
 6    1  0.1780144E-005  0.2035766E+04  0.7818608E-02  0.8590079E-01
         -1   -1    0    0    0  501 -0.00000000000E+00  0.00000000000E+00  0.10324741984E+04  0.10324741984E+04  0.00000000000E+00 0.  1.
          1   -1    0    0  501    0  0.00000000000E+00 -0.00000000000E+00 -0.10034977725E+04  0.10034977725E+04  0.00000000000E+00 0. -1.
         23    2    1    2    0    0 -0.58321835628E+03 -0.42758996594E+03  0.72826127890E+03  0.10300017249E+04  0.86961099712E+02 0.  0.
         11    1    3    3    0    0 -0.48366841646E+03 -0.31637942118E+03  0.60167709997E+03  0.83429395769E+03  0.00000000000E+00 0.  1.
        -11    1    3    3    0    0 -0.99549939826E+02 -0.11121054477E+03  0.12658417893E+03  0.19570776720E+03  0.00000000000E+00 0. -1.
         22    1    1    2    0    0  0.58321835628E+03  0.42758996594E+03 -0.69928485300E+03  0.10059702459E+04  0.00000000000E+00 0. -1.
<mgrwt>
<rscale>  0 0.20357658E+04</rscale>
<asrwt>0</asrwt>
<pdfrwt beam="1">  1        1 0.15438427E+00 0.20357658E+04</pdfrwt>
<pdfrwt beam="2">  1       -1 0.15884218E+00 0.20357658E+04</pdfrwt>
<totfact> 0.41470631E+00</totfact>
</mgrwt>
</event>
<event>
 6    1  0.1780144E-005  0.2562253E+04  0.7818608E-02  0.8381137E-01
          2   -1    0    0  501    0  0.00000000000E+00  0.00000000000E+00  0.12539742224E+04  0.12539742224E+04  0.00000000000E+00 0. -1.
         -2   -1    0    0    0  501 -0.00000000000E+00 -0.00000000000E+00 -0.13088664416E+04  0.13088664416E+04  0.00000000000E+00 0.  1.
         23    2    1    2    0    0 -0.43079866485E+03  0.10236732032E+04  0.60807564699E+03  0.12693876466E+04  0.89970486212E+02 0.  0.
         13    1    3    3    0    0 -0.46808497773E+02  0.85345532146E+02  0.81420166104E+02  0.12690208339E+03  0.00000000000E+00 0. -1.
        -13    1    3    3    0    0 -0.38399016708E+03  0.93832767104E+03  0.52665548089E+03  0.11424855632E+04  0.00000000000E+00 0.  1.
         22    1    1    2    0    0  0.43079866485E+03 -0.10236732032E+04 -0.66296786619E+03  0.12934530174E+04  0.00000000000E+00 0.  1.
<mgrwt>
<rscale>  0 0.25622527E+04</rscale>
<asrwt>0</asrwt>
<pdfrwt beam="1">  1        2 0.19291911E+00 0.25622527E+04</pdfrwt>
<pdfrwt beam="2">  1       -2 0.20136407E+00 0.25622527E+04</pdfrwt>
<totfact> 0.20338025E+00</totfact>
</mgrwt>
</event>
<event>
 6    1  0.1780144E-005  0.6545438E+03  0.7818608E-02  0.9798290E-01
         -2   -1    0    0    0  501 -0.00000000000E+00  0.00000000000E+00  0.23854427313E+03  0.23854427313E+03  0.00000000000E+00 0.  1.
          2   -1    0    0  501    0  0.00000000000E+00 -0.00000000000E+00 -0.44900223270E+03  0.44900223270E+03  0.00000000000E+00 0. -1.
         23    2    1    2    0    0 -0.14348156431E+03  0.22685264910E+03 -0.29185566307E+03  0.40705645283E+03  0.92011651548E+02 0.  0.
         11    1    3    3    0    0 -0.57353213308E+02  0.81942511020E+02 -0.48866869007E+02  0.11131907777E+03  0.00000000000E+00 0. -1.
        -11    1    3    3    0    0 -0.86128351004E+02  0.14491013808E+03 -0.24298879406E+03  0.29573737506E+03  0.00000000000E+00 0.  1.
         22    1    1    2    0    0  0.14348156431E+03 -0.22685264910E+03  0.81397703496E+02  0.28049005300E+03  0.00000000000E+00 0.  1.
<mgrwt>
<rscale>  0 0.65454384E+03</rscale>
<asrwt>0</asrwt>
<pdfrwt beam="1">  1        2 0.69077266E-01 0.65454384E+03</pdfrwt>
<pdfrwt beam="2">  1       -2 0.36699119E-01 0.65454384E+03</pdfrwt>
<totfact> 0.49127527E+02</totfact>
</mgrwt>
</event>
<event>
 6    1  0.1780144E-005  0.1275903E+04  0.7818608E-02  0.9048895E-01
         -3   -1    0    0    0  501 -0.00000000000E+00  0.00000000000E+00  0.10323243227E+04  0.10323243227E+04  0.00000000000E+00 0.  1.
          3   -1    0    0  501    0  0.00000000000E+00 -0.00000000000E+00 -0.39423880787E+03  0.39423880787E+03  0.00000000000E+00 0. -1.
         23    2    1    2    0    0 -0.42059638762E+03 -0.47166982124E+03  0.25295439298E+03  0.68649575355E+03  0.88976138134E+02 0.  0.
         13    1    3    3    0    0 -0.33450665360E+03 -0.42304170705E+03  0.21478121831E+03  0.58050836251E+03  0.00000000000E+00 0. -1.
        -13    1    3    3    0    0 -0.86089734022E+02 -0.48628114190E+02  0.38173174670E+02  0.10598739103E+03  0.00000000000E+00 0.  1.
         22    1    1    2    0    0  0.42059638762E+03  0.47166982124E+03  0.38513112188E+03  0.74006737706E+03  0.00000000000E+00 0. -1.
<mgrwt>
<rscale>  0 0.12759033E+04</rscale>
<asrwt>0</asrwt>
<pdfrwt beam="1">  1        3 0.60652125E-01 0.12759033E+04</pdfrwt>
<pdfrwt beam="2">  1       -3 0.15881913E+00 0.12759033E+04</pdfrwt>
<totfact> 0.18960518E+00</totfact>
</mgrwt>
</event>
<event>
 6    1  0.1780144E-005  0.2076838E+04  0.7818608E-02  0.8571516E-01
         -2   -1    0    0    0  501 -0.00000000000E+00  0.00000000000E+00  0.82039117072E+03  0.82039117072E+03  0.00000000000E+00 0. -1.
          2   -1    0    0  501    0  0.00000000000E+00 -0.00000000000E+00 -0.13143897209E+04  0.13143897209E+04  0.00000000000E+00 0.  1.
         23    2    1    2    0    0  0.55666256877E+03 -0.74319190225E+03  0.22586807682E+03  0.95987009511E+03  0.90148723288E+02 0.  0.
         11    1    3    3    0    0  0.14910271562E+03 -0.25726194925E+03  0.96295150289E+02  0.31255093394E+03  0.00000000000E+00 0.  1.
        -11    1    3    3    0    0  0.40755985315E+03 -0.48592995300E+03  0.12957292653E+03  0.64731916117E+03  0.00000000000E+00 0. -1.
         22    1    1    2    0    0 -0.55666256877E+03  0.74319190225E+03 -0.71986662696E+03  0.11749107965E+04  0.00000000000E+00 0.  1.
<mgrwt>
<rscale>  0 0.20768377E+04</rscale>
<asrwt>0</asrwt>
<pdfrwt beam="1">  1        2 0.20221380E+00 0.20768377E+04</pdfrwt>
<pdfrwt beam="2">  1       -2 0.12621403E+00 0.20768377E+04</pdfrwt>
<totfact> 0.70072871E+00</totfact>
</mgrwt>
</event>
<event>
 6    1  0.1780144E-005  0.1259009E+04  0.7818608E-02  0.9062718E-01
         -2   -1    0    0    0  501 -0.00000000000E+00  0.00000000000E+00  0.28817106818E+03  0.28817106818E+03  0.00000000000E+00 0.  1.
          2   -1    0    0  501    0  0.00000000000E+00 -0.00000000000E+00 -0.13751413029E+04  0.13751413029E+04  0.00000000000E+00 0. -1.
         23    2    1    2    0    0  0.40783349899E+03 -0.25931818994E+03 -0.10726244160E+04  0.11798044714E+04  0.88551490007E+02 0.  0.
         11    1    3    3    0    0  0.75464671752E+02 -0.11974678823E+02 -0.14632221664E+03  0.16507119887E+03  0.00000000000E+00 0.  1.
        -11    1    3    3    0    0  0.33236882724E+03 -0.24734351112E+03 -0.92630219937E+03  0.10147332725E+04  0.00000000000E+00 0. -1.
         22    1    1    2    0    0 -0.40783349899E+03  0.25931818994E+03 -0.14345818702E+02  0.48350789968E+03  0.00000000000E+00 0.  1.
<mgrwt>
<rscale>  0 0.12590090E+04</rscale>
<asrwt>0</asrwt>
<pdfrwt beam="1">  1        2 0.21156020E+00 0.12590090E+04</pdfrwt>
<pdfrwt beam="2">  1       -2 0.44334010E-01 0.12590090E+04</pdfrwt>
<totfact> 0.70888369E+01</totfact>
</mgrwt>
</event>
<event>
 6    1  0.1780144E-005  0.1411313E+04  0.7818608E-02  0.8945670E-01
         -2   -1    0    0    0  501 -0.00000000000E+00  0.00000000000E+00  0.64087830623E+03  0.64087830623E+03  0.00000000000E+00 0.  1.
          2   -1    0    0  501    0  0.00000000000E+00 -0.00000000000E+00 -0.77698189674E+03  0.77698189674E+03  0.00000000000E+00 0. -1.
         23    2    1    2    0    0  0.17396808431E+03 -0.66813634895E+03 -0.20008038778E+03  0.72448865341E+03  0.90446515686E+02 0.  0.
         11    1    3    3    0    0  0.15245719411E+03 -0.41404432993E+03 -0.12114682371E+03  0.45755049565E+03  0.00000000000E+00 0. -1.
        -11    1    3    3    0    0  0.21510890201E+02 -0.25409201902E+03 -0.78933564072E+02  0.26693815776E+03  0.00000000000E+00 0.  1.
         22    1    1    2    0    0 -0.17396808431E+03  0.66813634895E+03  0.63976797279E+02  0.69337154956E+03  0.00000000000E+00 0.  1.
<mgrwt>
<rscale>  0 0.14113126E+04</rscale>
<asrwt>0</asrwt>
<pdfrwt beam="1">  1        2 0.11953568E+00 0.14113126E+04</pdfrwt>
<pdfrwt beam="2">  1       -2 0.98596663E-01 0.14113126E+04</pdfrwt>
<totfact> 0.29747304E+01</totfact>
</mgrwt>
</event>
<event>
 6    1  0.1780144E-005  0.2110311E+04  0.7818608E-02  0.8556715E-01
         -1   -1    0    0    0  501 -0.00000000000E+00  0.00000000000E+00  0.43868670348E+03  0.43868670348E+03  0.00000000000E+00 0.  1.
          1   -1    0    0  501    0  0.00000000000E+00 -0.00000000000E+00 -0.25379233025E+04  0.25379233025E+04  0.00000000000E+00 0. -1.
         23    2    1    2    0    0 -0.92553472954E+03  0.48551317252E+03 -0.86839849869E+03  0.13618964074E+04  0.91149852556E+02 0.  0.
         11    1    3    3    0    0 -0.46112509190E+03  0.20818850101E+03 -0.46442234357E+03  0.68678010712E+03  0.00000000000E+00 0. -1.
        -11    1    3    3    0    0 -0.46440963764E+03  0.27732467151E+03 -0.40397615512E+03  0.67511630025E+03  0.00000000000E+00 0.  1.
         22    1    1    2    0    0  0.92553472954E+03 -0.48551317252E+03 -0.12308381003E+04  0.16147135986E+04  0.00000000000E+00 0.  1.
<mgrwt>
<rscale>  0 0.21103111E+04</rscale>
<asrwt>0</asrwt>
<pdfrwt beam="1">  1        1 0.39044974E+00 0.21103111E+04</pdfrwt>
<pdfrwt beam="2">  1       -1 0.67490262E-01 0.21103111E+04</pdfrwt>
<totfact> 0.26054056E+00</totfact>
</mgrwt>
</event>
<event>
 6    1  0.1780144E-005  0.1406840E+04  0.7818608E-02  0.8948882E-01
          1   -1    0    0  501    0  0.00000000000E+00  0.00000000000E+00  0.19929156274E+04  0.19929156274E+04  0.00000000000E+00 0. -1.
         -1   -1    0    0    0  501 -0.00000000000E+00 -0.00000000000E+00 -0.24827917425E+03  0.24827917425E+03  0.00000000000E+00 0.  1.
         23    2    1    2    0    0 -0.41424380256E+03  0.49193489308E+03  0.43123029677E+03  0.77878801877E+03  0.83386703550E+02 0.  0.
         13    1    3    3    0    0 -0.74546509232E+02  0.70808621415E+02  0.36719174977E+02  0.10917573318E+03  0.00000000000E+00 0. -1.
        -13    1    3    3    0    0 -0.33969729333E+03  0.42112627167E+03  0.39451112179E+03  0.66961228558E+03  0.00000000000E+00 0.  1.
         22    1    1    2    0    0  0.41424380256E+03 -0.49193489308E+03  0.13134061564E+04  0.14624067829E+04  0.00000000000E+00 0. -1.
<mgrwt>
<rscale>  0 0.14068396E+04</rscale>
<asrwt>0</asrwt>
<pdfrwt beam="1">  1        1 0.30660239E+00 0.14068396E+04</pdfrwt>
<pdfrwt beam="2">  1       -1 0.38196797E-01 0.14068396E+04</pdfrwt>
<totfact> 0.19474480E+01</totfact>
</mgrwt>
</event>
<event>
 6    1  0.1780144E-005  0.1413068E+04  0.7818608E-02  0.8944413E-01
         -2   -1    0    0    0  501 -0.00000000000E+00  0.00000000000E+00  0.76179140099E+03  0.76179140099E+03  0.00000000000E+00 0.  1.
          2   -1    0    0  501    0  0.00000000000E+00 -0.00000000000E+00 -0.65528475995E+03  0.65528475995E+03  0.00000000000E+00 0. -1.
         23    2    1    2    0    0 -0.15988565195E+03  0.56124447328E+03 -0.34062963110E+03  0.68189616506E+03  0.91624526427E+02 0.  0.
         13    1    3    3    0    0 -0.70405803324E+02  0.11115213084E+03 -0.67752297485E+02  0.14799374023E+03  0.00000000000E+00 0. -1.
        -13    1    3    3    0    0 -0.89479848624E+02  0.45009234244E+03 -0.27287733362E+03  0.53390242483E+03  0.00000000000E+00 0.  1.
         22    1    1    2    0    0  0.15988565195E+03 -0.56124447328E+03  0.44713627214E+03  0.73517999589E+03  0.00000000000E+00 0.  1.
<mgrwt>
<rscale>  0 0.14130680E+04</rscale>
<asrwt>0</asrwt>
<pdfrwt beam="1">  1        2 0.10081304E+00 0.14130680E+04</pdfrwt>
<pdfrwt beam="2">  1       -2 0.11719868E+00 0.14130680E+04</pdfrwt>
<totfact> 0.24363174E+01</totfact>
</mgrwt>
</event>
<event>
 6    1  0.1780144E-005  0.3910889E+04  0.7818608E-02  0.8022768E-01
          2   -1    0    0  501    0  0.00000000000E+00  0.00000000000E+00  0.25990569979E+04  0.25990569979E+04  0.00000000000E+00 0. -1.
         -2   -1    0    0    0  501 -0.00000000000E+00 -0.00000000000E+00 -0.14712114423E+04  0.14712114423E+04  0.00000000000E+00 0.  1.
         23    2    1    2    0    0  0.92683403470E+03  0.30310142652E+02 -0.12262108591E+04  0.15401455901E+04  0.92278574428E+02 0.  0.
         13    1    3    3    0    0  0.82734020405E+03  0.26702022630E+02 -0.11374223626E+04  0.14067460475E+04  0.00000000000E+00 0.  1.
        -13    1    3    3    0    0  0.99493830650E+02  0.36081200223E+01 -0.88788496467E+02  0.13339954262E+03  0.00000000000E+00 0. -1.
         22    1    1    2    0    0 -0.92683403470E+03 -0.30310142652E+02  0.23540564147E+04  0.25301228500E+04  0.00000000000E+00 0. -1.
<mgrwt>
<rscale>  0 0.39108886E+04</rscale>
<asrwt>0</asrwt>
<pdfrwt beam="1">  1        2 0.39985492E+00 0.39108886E+04</pdfrwt>
<pdfrwt beam="2">  1       -2 0.22634022E+00 0.39108886E+04</pdfrwt>
<totfact> 0.21822017E-01</totfact>
</mgrwt>
</event>
<event>
 6    1  0.1780144E-005  0.1863627E+04  0.7818608E-02  0.8673176E-01
          2   -1    0    0  501    0  0.00000000000E+00  0.00000000000E+00  0.92845303820E+03  0.92845303820E+03  0.00000000000E+00 0. -1.
         -2   -1    0    0    0  501 -0.00000000000E+00 -0.00000000000E+00 -0.93518642516E+03  0.93518642516E+03  0.00000000000E+00 0.  1.
         23    2    1    2    0    0  0.28221852724E+03 -0.53271948970E+03  0.70471196854E+03  0.93112037739E+03  0.83239694657E+02 0.  0.
         11    1    3    3    0    0  0.68286750488E+02 -0.13280942568E+03  0.12279992973E+03  0.19334230418E+03  0.00000000000E+00 0. -1.
        -11    1    3    3    0    0  0.21393177675E+03 -0.39991006402E+03  0.58191203881E+03  0.73777807322E+03  0.00000000000E+00 0.  1.
         22    1    1    2    0    0 -0.28221852724E+03  0.53271948970E+03 -0.71144535551E+03  0.93251908597E+03  0.00000000000E+00 0.  1.
<mgrwt>
<rscale>  0 0.18636273E+04</rscale>
<asrwt>0</asrwt>
<pdfrwt beam="1">  1        2 0.14283893E+00 0.18636273E+04</pdfrwt>
<pdfrwt beam="2">  1       -2 0.14387483E+00 0.18636273E+04</pdfrwt>
<totfact> 0.88128007E+00</totfact>
</mgrwt>
</event>
<event>
 6    1  0.1780144E-005  0.8316114E+03  0.7818608E-02  0.9515355E-01
         -1   -1    0    0    0  501 -0.00000000000E+00  0.00000000000E+00  0.99373319073E+03  0.99373319073E+03  0.00000000000E+00 0.  1.
          1   -1    0    0  501    0  0.00000000000E+00 -0.00000000000E+00 -0.17398471798E+03  0.17398471798E+03  0.00000000000E+00 0. -1.
         23    2    1    2    0    0 -0.33206134688E+03  0.11988630489E+03  0.70975271732E+03  0.79793887955E+03  0.91214426286E+02 0.  0.
         13    1    3    3    0    0 -0.21204016458E+03  0.59823164934E+02  0.52699122612E+03  0.57119138199E+03  0.00000000000E+00 0.  1.
        -13    1    3    3    0    0 -0.12002118230E+03  0.60063139951E+02  0.18276149120E+03  0.22674749756E+03  0.00000000000E+00 0. -1.
         22    1    1    2    0    0  0.33206134688E+03 -0.11988630489E+03  0.10999575543E+03  0.36977902916E+03  0.00000000000E+00 0. -1.
<mgrwt>
<rscale>  0 0.83161142E+03</rscale>
<asrwt>0</asrwt>
<pdfrwt beam="1">  1        1 0.26766880E-01 0.83161142E+03</pdfrwt>
<pdfrwt beam="2">  1       -1 0.15288203E+00 0.83161142E+03</pdfrwt>
<totfact> 0.59923112E+01</totfact>
</mgrwt>
</event>
<event>
 6    1  0.1780144E-005  0.1627403E+04  0.7818608E-02  0.8803888E-01
          2   -1    0    0  501    0  0.00000000000E+00  0.00000000000E+00  0.75711404188E+03  0.75711404188E+03  0.00000000000E+00 0. -1.
         -2   -1    0    0    0  501 -0.00000000000E+00 -0.00000000000E+00 -0.87451887757E+03  0.87451887757E+03  0.00000000000E+00 0.  1.
         23    2    1    2    0    0 -0.16634304813E+03  0.38210525704E+03 -0.75655793720E+03  0.86861842136E+03  0.91889131431E+02 0.  0.
         13    1    3    3    0    0 -0.16744381982E+03  0.31218339906E+03 -0.59331007546E+03  0.69102297580E+03  0.00000000000E+00 0.  1.
        -13    1    3    3    0    0  0.11007716951E+01  0.69921857989E+02 -0.16324786173E+03  0.17759544556E+03  0.00000000000E+00 0. -1.
         22    1    1    2    0    0  0.16634304813E+03 -0.38210525704E+03  0.63915310151E+03  0.76301449808E+03  0.00000000000E+00 0. -1.
<mgrwt>
<rscale>  0 0.16274035E+04</rscale>
<asrwt>0</asrwt>
<pdfrwt beam="1">  1        2 0.11647908E+00 0.16274035E+04</pdfrwt>
<pdfrwt beam="2">  1       -2 0.13454137E+00 0.16274035E+04</pdfrwt>
<totfact> 0.14102022E+01</totfact>
</mgrwt>
</event>
<event>
 6    1  0.1780144E-005  0.3102865E+04  0.7818608E-02  0.8214952E-01
         -1   -1    0    0    0  501 -0.00000000000E+00  0.00000000000E+00  0.71438859207E+03  0.71438859207E+03  0.00000000000E+00 0.  1.
          1   -1    0    0  501    0  0.00000000000E+00 -0.00000000000E+00 -0.33692341479E+04  0.33692341479E+04  0.00000000000E+00 0. -1.
         23    2    1    2    0    0 -0.12209938524E+04 -0.24134804465E+03 -0.11239698325E+03  0.12528773239E+04  0.89407163251E+02 0.  0.
         11    1    3    3    0    0 -0.70339089930E+03 -0.97791871496E+02 -0.82024356768E+02  0.71487761362E+03  0.00000000000E+00 0. -1.
        -11    1    3    3    0    0 -0.51760295307E+03 -0.14355617315E+03 -0.30372626484E+02  0.53799971033E+03  0.00000000000E+00 0.  1.
         22    1    1    2    0    0  0.12209938524E+04  0.24134804465E+03 -0.25424485726E+04  0.28307454161E+04  0.00000000000E+00 0. -1.
<mgrwt>
<rscale>  0 0.31028648E+04</rscale>
<asrwt>0</asrwt>
<pdfrwt beam="1">  1        1 0.51834371E+00 0.31028648E+04</pdfrwt>
<pdfrwt beam="2">  1       -1 0.10990594E+00 0.31028648E+04</pdfrwt>
<totfact> 0.20367500E-01</totfact>
</mgrwt>
</event>
<event>
 6    1  0.1780144E-005  0.2826296E+04  0.7818608E-02  0.8295151E-01
         -2   -1    0    0    0  501 -0.00000000000E+00  0.00000000000E+00  0.73264662822E+03  0.73264662822E+03  0.00000000000E+00 0.  1.
          2   -1    0    0  501    0  0.00000000000E+00 -0.00000000000E+00 -0.27257162610E+04  0.27257162610E+04  0.00000000000E+00 0. -1.
         23    2    1    2    0    0 -0.12005981635E+04  0.36795444274E+03 -0.17868496171E+04  0.21858248280E+04  0.90400234863E+02 0.  0.
         13    1    3    3    0    0 -0.84884207376E+03  0.22923439334E+03 -0.12990635069E+04  0.15686450421E+04  0.00000000000E+00 0. -1.
        -13    1    3    3    0    0 -0.35175608977E+03  0.13872004941E+03 -0.48778611022E+03  0.61717978590E+03  0.00000000000E+00 0.  1.
         22    1    1    2    0    0  0.12005981635E+04 -0.36795444274E+03 -0.20622001562E+03  0.12725380611E+04  0.00000000000E+00 0.  1.
<mgrwt>
<rscale>  0 0.28262957E+04</rscale>
<asrwt>0</asrwt>
<pdfrwt beam="1">  1        2 0.41934096E+00 0.28262957E+04</pdfrwt>
<pdfrwt beam="2">  1       -2 0.11271487E+00 0.28262957E+04</pdfrwt>
<totfact> 0.13776838E+00</totfact>
</mgrwt>
</event>
<event>
 6    1  0.1780144E-005  0.4068892E+04  0.7818608E-02  0.7990791E-01
         -2   -1    0    0    0  501 -0.00000000000E+00  0.00000000000E+00  0.13562912440E+04  0.13562912440E+04  0.00000000000E+00 0.  1.
          2   -1    0    0  501    0  0.00000000000E+00 -0.00000000000E+00 -0.30516826956E+04  0.30516826956E+04  0.00000000000E+00 0. -1.
         23    2    1    2    0    0  0.15029121000E+04 -0.10270717577E+04 -0.18298798659E+04  0.25826771667E+04  0.90221106651E+02 0.  0.
         11    1    3    3    0    0  0.81753496523E+03 -0.60315843005E+03 -0.98394636422E+03  0.14143245592E+04  0.00000000000E+00 0.  1.
        -11    1    3    3    0    0  0.68537713475E+03 -0.42391332768E+03 -0.84593350163E+03  0.11683526075E+04  0.00000000000E+00 0. -1.
         22    1    1    2    0    0 -0.15029121000E+04  0.10270717577E+04  0.13448841426E+03  0.18252967730E+04  0.00000000000E+00 0.  1.
<mgrwt>
<rscale>  0 0.40688920E+04</rscale>
<asrwt>0</asrwt>
<pdfrwt beam="1">  1        2 0.46948964E+00 0.40688920E+04</pdfrwt>
<pdfrwt beam="2">  1       -2 0.20866019E+00 0.40688920E+04</pdfrwt>
<totfact> 0.14792136E-01</totfact>
</mgrwt>
</event>
<event>
 6    1  0.1780144E-005  0.4130466E+04  0.7818608E-02  0.7978733E-01
          1   -1    0    0  501    0  0.00000000000E+00  0.00000000000E+00  0.27243578640E+04  0.27243578640E+04  0.00000000000E+00 0. -1.
         -1   -1    0    0    0  501 -0.00000000000E+00 -0.00000000000E+00 -0.15655749530E+04  0.15655749530E+04  0.00000000000E+00 0.  1.
         23    2    1    2    0    0 -0.15262535211E+04 -0.13291568701E+04  0.15817978860E+03  0.20322095379E+04  0.93525207289E+02 0.  0.
         13    1    3    3    0    0 -0.74793214096E+03 -0.63038465153E+03  0.32329035222E+02  0.97868915540E+03  0.00000000000E+00 0.  1.
        -13    1    3    3    0    0 -0.77832138017E+03 -0.69877221857E+03  0.12585075338E+03  0.10535203825E+04  0.00000000000E+00 0. -1.
         22    1    1    2    0    0  0.15262535211E+04  0.13291568701E+04  0.10006031224E+04  0.22577232790E+04  0.00000000000E+00 0. -1.
<mgrwt>
<rscale>  0 0.41304656E+04</rscale>
<asrwt>0</asrwt>
<pdfrwt beam="1">  1        1 0.41913198E+00 0.41304656E+04</pdfrwt>
<pdfrwt beam="2">  1       -1 0.24085769E+00 0.41304656E+04</pdfrwt>
<totfact> 0.58445822E-02</totfact>
</mgrwt>
</event>
<event>
 6    1  0.1780144E-005  0.2720005E+04  0.7818608E-02  0.8328543E-01
          2   -1    0    0  501    0  0.00000000000E+00  0.00000000000E+00  0.23429609934E+04  0.23429609934E+04  0.00000000000E+00 0.  1.
         -2   -1    0    0    0  501 -0.00000000000E+00 -0.00000000000E+00 -0.78943131940E+03  0.78943131940E+03  0.00000000000E+00 0. -1.
         23    2    1    2    0    0  0.12907593380E+04 -0.13956147504E+03  0.31748492785E+03  0.13398121365E+04  0.93609870355E+02 0.  0.
         13    1    3    3    0    0  0.94722912348E+03 -0.10247813690E+03  0.27521863931E+03  0.99171068379E+03  0.00000000000E+00 0.  1.
        -13    1    3    3    0    0  0.34353021449E+03 -0.37083338145E+02  0.42266288546E+02  0.34810145272E+03  0.00000000000E+00 0. -1.
         22    1    1    2    0    0 -0.12907593380E+04  0.13956147504E+03  0.12360447461E+04  0.17925801762E+04  0.00000000000E+00 0.  1.
<mgrwt>
<rscale>  0 0.27200050E+04</rscale>
<asrwt>0</asrwt>
<pdfrwt beam="1">  1        2 0.36045553E+00 0.27200050E+04</pdfrwt>
<pdfrwt beam="2">  1       -2 0.12145097E+00 0.27200050E+04</pdfrwt>
<totfact> 0.19340344E+00</totfact>
</mgrwt>
</event>
<event>
 6    1  0.1780144E-005  0.2261573E+04  0.7818608E-02  0.8493228E-01
          1   -1    0    0  501    0  0.00000000000E+00  0.00000000000E+00  0.15908088366E+04  0.15908088366E+04  0.00000000000E+00 0. -1.
         -1   -1    0    0    0  501 -0.00000000000E+00 -0.00000000000E+00 -0.80379095118E+03  0.80379095118E+03  0.00000000000E+00 0.  1.
         23    2    1    2    0    0  0.83716523009E+03 -0.63715203582E+03 -0.39156643633E+02  0.10569254284E+04  0.93540254817E+02 0.  0.
         13    1    3    3    0    0  0.50619622177E+03 -0.37922769915E+03 -0.69098719184E+02  0.63625694160E+03  0.00000000000E+00 0.  1.
        -13    1    3    3    0    0  0.33096900833E+03 -0.25792433667E+03  0.29942075552E+02  0.42066848683E+03  0.00000000000E+00 0. -1.
         22    1    1    2    0    0 -0.83716523009E+03  0.63715203582E+03  0.82617452904E+03  0.13376743593E+04  0.00000000000E+00 0. -1.
<mgrwt>
<rscale>  0 0.22615727E+04</rscale>
<asrwt>0</asrwt>
<pdfrwt beam="1">  1        1 0.24473982E+00 0.22615727E+04</pdfrwt>
<pdfrwt beam="2">  1       -1 0.12366015E+00 0.22615727E+04</pdfrwt>
<totfact> 0.29515044E+00</totfact>
</mgrwt>
</event>
<event>
 6    1  0.1780144E-005  0.1037799E+04  0.7818608E-02  0.9268033E-01
          2   -1    0    0  501    0  0.00000000000E+00  0.00000000000E+00  0.11934333908E+04  0.11934333908E+04  0.00000000000E+00 0. -1.
         -2   -1    0    0    0  501 -0.00000000000E+00 -0.00000000000E+00 -0.22561503364E+03  0.22561503364E+03  0.00000000000E+00 0.  1.
         23    2    1    2    0    0  0.50206592406E+03  0.35391250525E+02  0.63895293566E+03  0.81782034946E+03  0.85126595617E+02 0.  0.
         13    1    3    3    0    0  0.38379201535E+03 -0.18477305406E+01  0.51714947857E+03  0.64400567415E+03  0.00000000000E+00 0. -1.
        -13    1    3    3    0    0  0.11827390871E+03  0.37238981065E+02  0.12180345709E+03  0.17381467530E+03  0.00000000000E+00 0.  1.
         22    1    1    2    0    0 -0.50206592406E+03 -0.35391250525E+02  0.32886542153E+03  0.60122807502E+03  0.00000000000E+00 0.  1.
<mgrwt>
<rscale>  0 0.10377987E+04</rscale>
<asrwt>0</asrwt>
<pdfrwt beam="1">  1        2 0.18360513E+00 0.10377987E+04</pdfrwt>
<pdfrwt beam="2">  1       -2 0.34710006E-01 0.10377987E+04</pdfrwt>
<totfact> 0.14805912E+02</totfact>
</mgrwt>
</event>
<event>
 6    1  0.1780144E-005  0.2357244E+04  0.7818608E-02  0.8455686E-01
         -2   -1    0    0    0  501 -0.00000000000E+00  0.00000000000E+00  0.13506670720E+04  0.13506670720E+04  0.00000000000E+00 0.  1.
          2   -1    0    0  501    0  0.00000000000E+00 -0.00000000000E+00 -0.10284916204E+04  0.10284916204E+04  0.00000000000E+00 0. -1.
         23    2    1    2    0    0  0.21568466234E+03  0.88285016167E+03  0.91584553030E+03  0.12936226755E+04  0.93500319815E+02 0.  0.
         11    1    3    3    0    0  0.22572105693E+02  0.25874636478E+02  0.45625514926E+02  0.57102402581E+02  0.00000000000E+00 0. -1.
        -11    1    3    3    0    0  0.19311255665E+03  0.85697552519E+03  0.87022001537E+03  0.12365202730E+04  0.00000000000E+00 0.  1.
         22    1    1    2    0    0 -0.21568466234E+03 -0.88285016167E+03 -0.59367007876E+03  0.10855360169E+04  0.00000000000E+00 0.  1.
<mgrwt>
<rscale>  0 0.23572440E+04</rscale>
<asrwt>0</asrwt>
<pdfrwt beam="1">  1        2 0.15822948E+00 0.23572440E+04</pdfrwt>
<pdfrwt beam="2">  1       -2 0.20779493E+00 0.23572440E+04</pdfrwt>
<totfact> 0.25783900E+00</totfact>
</mgrwt>
</event>
<event>
 6    1  0.1780144E-005  0.4698132E+03  0.7818608E-02  0.1021973E+00
          2   -1    0    0  501    0  0.00000000000E+00  0.00000000000E+00  0.37521600800E+04  0.37521600800E+04  0.00000000000E+00 0. -1.
         -2   -1    0    0    0  501 -0.00000000000E+00 -0.00000000000E+00 -0.14706488585E+02  0.14706488585E+02  0.00000000000E+00 0.  1.
         23    2    1    2    0    0 -0.12444223058E+03 -0.14070255230E+03  0.29501286598E+04  0.29574447842E+04  0.89092455779E+02 0.  0.
         13    1    3    3    0    0 -0.17424466112E+02 -0.85715182859E+02  0.12894392278E+04  0.12924025019E+04  0.00000000000E+00 0.  1.
        -13    1    3    3    0    0 -0.10701776447E+03 -0.54987369443E+02  0.16606894319E+04  0.16650422824E+04  0.00000000000E+00 0. -1.
         22    1    1    2    0    0  0.12444223058E+03  0.14070255230E+03  0.78732493167E+03  0.80942178436E+03  0.00000000000E+00 0.  1.
<mgrwt>
<rscale>  0 0.46981315E+03</rscale>
<asrwt>0</asrwt>
<pdfrwt beam="1">  1        2 0.57725463E+00 0.46981315E+03</pdfrwt>
<pdfrwt beam="2">  1       -2 0.22625397E-02 0.46981315E+03</pdfrwt>
<totfact> 0.42006979E+02</totfact>
</mgrwt>
</event>
<event>
 6    1  0.1780144E-005  0.1054555E+04  0.7818608E-02  0.9250654E-01
         -1   -1    0    0    0  501 -0.00000000000E+00  0.00000000000E+00  0.25232738922E+03  0.25232738922E+03  0.00000000000E+00 0.  1.
          1   -1    0    0  501    0  0.00000000000E+00 -0.00000000000E+00 -0.11018280660E+04  0.11018280660E+04  0.00000000000E+00 0. -1.
         23    2    1    2    0    0  0.45479516164E+02  0.89083005888E+02 -0.10874751138E+04  0.10960159561E+04  0.92976796738E+02 0.  0.
         11    1    3    3    0    0 -0.24436064912E+02  0.34553374339E+02 -0.22096886296E+03  0.22498510028E+03  0.00000000000E+00 0.  1.
        -11    1    3    3    0    0  0.69915581076E+02  0.54529631549E+02 -0.86650625079E+03  0.87103085585E+03  0.00000000000E+00 0. -1.
         22    1    1    2    0    0 -0.45479516164E+02 -0.89083005888E+02  0.23797443698E+03  0.25813949908E+03  0.00000000000E+00 0.  1.
<mgrwt>
<rscale>  0 0.10545547E+04</rscale>
<asrwt>0</asrwt>
<pdfrwt beam="1">  1        1 0.16951202E+00 0.10545547E+04</pdfrwt>
<pdfrwt beam="2">  1       -1 0.38819597E-01 0.10545547E+04</pdfrwt>
<totfact> 0.81191112E+01</totfact>
</mgrwt>
</event>
<event>
 6    1  0.1780144E-005  0.3750221E+04  0.7818608E-02  0.8056922E-01
         -1   -1    0    0    0  501 -0.00000000000E+00  0.00000000000E+00  0.20121373867E+04  0.20121373867E+04  0.00000000000E+00 0.  1.
          1   -1    0    0  501    0  0.00000000000E+00 -0.00000000000E+00 -0.17474154551E+04  0.17474154551E+04  0.00000000000E+00 0. -1.
         23    2    1    2    0    0 -0.21601144178E+03  0.11398128621E+04 -0.13430423250E+04  0.17769433976E+04  0.89055307729E+02 0.  0.
         11    1    3    3    0    0 -0.16705940361E+03  0.94069837078E+03 -0.11526209827E+04  0.14971163612E+04  0.00000000000E+00 0.  1.
        -11    1    3    3    0    0 -0.48952038168E+02  0.19911449131E+03 -0.19042134225E+03  0.27982703635E+03  0.00000000000E+00 0. -1.
         22    1    1    2    0    0  0.21601144178E+03 -0.11398128621E+04  0.16077642566E+04  0.19826094442E+04  0.00000000000E+00 0.  1.
<mgrwt>
<rscale>  0 0.37502213E+04</rscale>
<asrwt>0</asrwt>
<pdfrwt beam="1">  1        1 0.26883315E+00 0.37502213E+04</pdfrwt>
<pdfrwt beam="2">  1       -1 0.30955960E+00 0.37502213E+04</pdfrwt>
<totfact> 0.10116591E-01</totfact>
</mgrwt>
</event>
<event>
 6    1  0.1780144E-005  0.1802136E+04  0.7818608E-02  0.8705164E-01
         -2   -1    0    0    0  501 -0.00000000000E+00  0.00000000000E+00  0.54375416238E+03  0.54375416238E+03  0.00000000000E+00 0.  1.
          2   -1    0    0  501    0  0.00000000000E+00 -0.00000000000E+00 -0.14931810475E+04  0.14931810475E+04  0.00000000000E+00 0. -1.
         23    2    1    2    0    0 -0.24581121748E+03  0.81178349736E+03 -0.13972857633E+03  0.86431977741E+03  0.90049993729E+02 0.  0.
         13    1    3    3    0    0 -0.16201400165E+03  0.46862033457E+03 -0.40959006088E+02  0.49752506960E+03  0.00000000000E+00 0.  1.
        -13    1    3    3    0    0 -0.83797215827E+02  0.34316316279E+03 -0.98769570242E+02  0.36679470782E+03  0.00000000000E+00 0. -1.
         22    1    1    2    0    0  0.24581121748E+03 -0.81178349736E+03 -0.80969830882E+03  0.11726154325E+04  0.00000000000E+00 0. -1.
<mgrwt>
<rscale>  0 0.18021359E+04</rscale>
<asrwt>0</asrwt>
<pdfrwt beam="1">  1        2 0.22972016E+00 0.18021359E+04</pdfrwt>
<pdfrwt beam="2">  1       -2 0.83654486E-01 0.18021359E+04</pdfrwt>
<totfact> 0.15104488E+01</totfact>
</mgrwt>
</event>
<event>
 6    1  0.1780144E-005  0.4824884E+04  0.7818608E-02  0.7856103E-01
         -2   -1    0    0    0  501 -0.00000000000E+00  0.00000000000E+00  0.27887733777E+04  0.27887733777E+04  0.00000000000E+00 0.  1.
          2   -1    0    0  501    0  0.00000000000E+00 -0.00000000000E+00 -0.20868943271E+04  0.20868943271E+04  0.00000000000E+00 0. -1.
         23    2    1    2    0    0  0.19034873538E+04 -0.68797453135E+03  0.16760162447E+04  0.26294450233E+04  0.91529318044E+02 0.  0.
         13    1    3    3    0    0  0.99112708979E+03 -0.31038803467E+03  0.84836855932E+03  0.13410454327E+04  0.00000000000E+00 0.  1.
        -13    1    3    3    0    0  0.91236026401E+03 -0.37758649669E+03  0.82764768541E+03  0.12883995906E+04  0.00000000000E+00 0. -1.
         22    1    1    2    0    0 -0.19034873538E+04  0.68797453135E+03 -0.97413719409E+03  0.22462226815E+04  0.00000000000E+00 0. -1.
<mgrwt>
<rscale>  0 0.48248836E+04</rscale>
<asrwt>0</asrwt>
<pdfrwt beam="1">  1        2 0.32106067E+00 0.48248836E+04</pdfrwt>
<pdfrwt beam="2">  1       -2 0.42904206E+00 0.48248836E+04</pdfrwt>
<totfact> 0.21104179E-02</totfact>
</mgrwt>
</event>
<event>
 6    1  0.1780144E-005  0.3853363E+04  0.7818608E-02  0.8034799E-01
          2   -1    0    0  501    0  0.00000000000E+00  0.00000000000E+00  0.28869809130E+04  0.28869809130E+04  0.00000000000E+00 0. -1.
         -2   -1    0    0    0  501 -0.00000000000E+00 -0.00000000000E+00 -0.12858072588E+04  0.12858072588E+04  0.00000000000E+00 0.  1.
         23    2    1    2    0    0 -0.11117125746E+04  0.70098831371E+03 -0.72304025041E+03  0.15027208057E+04  0.89961946356E+02 0.  0.
         11    1    3    3    0    0 -0.62405984997E+03  0.36487855037E+03 -0.35436871786E+03  0.80508648049E+03  0.00000000000E+00 0. -1.
        -11    1    3    3    0    0 -0.48765272465E+03  0.33610976334E+03 -0.36867153255E+03  0.69763432526E+03  0.00000000000E+00 0.  1.
         22    1    1    2    0    0  0.11117125746E+04 -0.70098831371E+03  0.23242139046E+04  0.26700673660E+04  0.00000000000E+00 0. -1.
<mgrwt>
<rscale>  0 0.38533627E+04</rscale>
<asrwt>0</asrwt>
<pdfrwt beam="1">  1        2 0.44415091E+00 0.38533627E+04</pdfrwt>
<pdfrwt beam="2">  1       -2 0.19781650E+00 0.38533627E+04</pdfrwt>
<totfact> 0.22450485E-01</totfact>
</mgrwt>
</event>
<event>
 6    1  0.1780144E-005  0.1112448E+04  0.7818608E-02  0.9193144E-01
         -1   -1    0    0    0  501 -0.00000000000E+00  0.00000000000E+00  0.71283002922E+03  0.71283002922E+03  0.00000000000E+00 0.  1.
          1   -1    0    0  501    0  0.00000000000E+00 -0.00000000000E+00 -0.43402345042E+03  0.43402345042E+03  0.00000000000E+00 0. -1.
         23    2    1    2    0    0  0.25863955722E+03 -0.20693421002E+03 -0.31562424902E+03  0.46636527483E+03  0.90342211407E+02 0.  0.
         13    1    3    3    0    0  0.20920422299E+03 -0.11603657893E+03 -0.23309593628E+03  0.33401288909E+03  0.00000000000E+00 0. -1.
        -13    1    3    3    0    0  0.49435334231E+02 -0.90897631085E+02 -0.82528312739E+02  0.13235238574E+03  0.00000000000E+00 0.  1.
         22    1    1    2    0    0 -0.25863955722E+03  0.20693421002E+03  0.59443082782E+03  0.68048820482E+03  0.00000000000E+00 0.  1.
<mgrwt>
<rscale>  0 0.11124477E+04</rscale>
<asrwt>0</asrwt>
<pdfrwt beam="1">  1        1 0.66772839E-01 0.11124477E+04</pdfrwt>
<pdfrwt beam="2">  1       -1 0.10966616E+00 0.11124477E+04</pdfrwt>
<totfact> 0.41175285E+01</totfact>
</mgrwt>
</event>
<event>
 6    1  0.1780144E-005  0.3117650E+04  0.7818608E-02  0.8210911E-01
          2   -1    0    0  501    0  0.00000000000E+00  0.00000000000E+00  0.21163456817E+04  0.21163456817E+04  0.00000000000E+00 0. -1.
         -2   -1    0    0    0  501 -0.00000000000E+00 -0.00000000000E+00 -0.11481751950E+04  0.11481751950E+04  0.00000000000E+00 0.  1.
         23    2    1    2    0    0  0.10988007265E+04 -0.10812542155E+04  0.25148004225E+03  0.15644859041E+04  0.88883167793E+02 0.  0.
         11    1    3    3    0    0  0.80784314982E+03 -0.77308596966E+03  0.21918925355E+03  0.11394368785E+04  0.00000000000E+00 0. -1.
        -11    1    3    3    0    0  0.29095757666E+03 -0.30816824582E+03  0.32290788700E+02  0.42504902562E+03  0.00000000000E+00 0.  1.
         22    1    1    2    0    0 -0.10988007265E+04  0.10812542155E+04  0.71669044439E+03  0.17000349726E+04  0.00000000000E+00 0. -1.
<mgrwt>
<rscale>  0 0.31176502E+04</rscale>
<asrwt>0</asrwt>
<pdfrwt beam="1">  1        2 0.32559164E+00 0.31176502E+04</pdfrwt>
<pdfrwt beam="2">  1       -2 0.17664234E+00 0.31176502E+04</pdfrwt>
<totfact> 0.93333224E-01</totfact>
</mgrwt>
</event>
<event>
 6    1  0.1780144E-005  0.3099368E+04  0.7818608E-02  0.8215911E-01
          1   -1    0    0  501    0  0.00000000000E+00  0.00000000000E+00  0.13192884131E+04  0.13192884131E+04  0.00000000000E+00 0. -1.
         -1   -1    0    0    0  501 -0.00000000000E+00 -0.00000000000E+00 -0.18203147368E+04  0.18203147368E+04  0.00000000000E+00 0.  1.
         23    2    1    2    0    0 -0.10246546999E+04  0.34898878295E+02  0.92465168735E+03  0.13835584532E+04  0.90100304389E+02 0.  0.
         13    1    3    3    0    0 -0.55087399621E+03 -0.14565414522E+02  0.45529101879E+03  0.71481761505E+03  0.00000000000E+00 0. -1.
        -13    1    3    3    0    0 -0.47378070368E+03  0.49464292817E+02  0.46936066856E+03  0.66874083817E+03  0.00000000000E+00 0.  1.
         22    1    1    2    0    0  0.10246546999E+04 -0.34898878295E+02 -0.14256780110E+04  0.17560446967E+04  0.00000000000E+00 0.  1.
<mgrwt>
<rscale>  0 0.30993678E+04</rscale>
<asrwt>0</asrwt>
<pdfrwt beam="1">  1        1 0.20296745E+00 0.30993678E+04</pdfrwt>
<pdfrwt beam="2">  1       -1 0.28004842E+00 0.30993678E+04</pdfrwt>
<totfact> 0.32886172E-01</totfact>
</mgrwt>
</event>
<event>
 6    1  0.1780144E-005  0.3721234E+04  0.7818608E-02  0.8063272E-01
         -2   -1    0    0    0  501 -0.00000000000E+00  0.00000000000E+00  0.11349661789E+04  0.11349661789E+04  0.00000000000E+00 0.  1.
          2   -1    0    0  501    0  0.00000000000E+00 -0.00000000000E+00 -0.30502187679E+04  0.30502187679E+04  0.00000000000E+00 0. -1.
         23    2    1    2    0    0 -0.92261586711E+03  0.78692087699E+03 -0.25437295303E+04  0.28193709878E+04  0.88477899400E+02 0.  0.
         13    1    3    3    0    0 -0.59646923182E+03  0.54263869906E+03 -0.16122024512E+04  0.18026172766E+04  0.00000000000E+00 0.  1.
        -13    1    3    3    0    0 -0.32614663528E+03  0.24428217793E+03 -0.93152707911E+03  0.10167537112E+04  0.00000000000E+00 0. -1.
         22    1    1    2    0    0  0.92261586711E+03 -0.78692087699E+03  0.62847694134E+03  0.13658139590E+04  0.00000000000E+00 0.  1.
<mgrwt>
<rscale>  0 0.37212337E+04</rscale>
<asrwt>0</asrwt>
<pdfrwt beam="1">  1        2 0.46926442E+00 0.37212337E+04</pdfrwt>
<pdfrwt beam="2">  1       -2 0.17461018E+00 0.37212337E+04</pdfrwt>
<totfact> 0.25809668E-01</totfact>
</mgrwt>
</event>
<event>
 6    1  0.1780144E-005  0.6734186E+04  0.7818608E-02  0.7605488E-01
          2   -1    0    0  501    0  0.00000000000E+00  0.00000000000E+00  0.43944787743E+04  0.43944787743E+04  0.00000000000E+00 0. -1.
         -2   -1    0    0    0  501 -0.00000000000E+00 -0.00000000000E+00 -0.25799001666E+04  0.25799001666E+04  0.00000000000E+00 0.  1.
         23    2    1    2    0    0  0.18528362567E+04 -0.78356597518E+03 -0.18881145967E+04  0.27604834988E+04  0.91184347635E+02 0.  0.
         11    1    3    3    0    0  0.41017928308E+03 -0.14638173448E+03 -0.37071161413E+03  0.57192810501E+03  0.00000000000E+00 0. -1.
        -11    1    3    3    0    0  0.14426569737E+04 -0.63718424070E+03 -0.15174029826E+04  0.21885553938E+04  0.00000000000E+00 0.  1.
         22    1    1    2    0    0 -0.18528362567E+04  0.78356597518E+03  0.37026932043E+04  0.42138954421E+04  0.00000000000E+00 0. -1.
<mgrwt>
<rscale>  0 0.67341864E+04</rscale>
<asrwt>0</asrwt>
<pdfrwt beam="1">  1        2 0.67607366E+00 0.67341864E+04</pdfrwt>
<pdfrwt beam="2">  1       -2 0.39690772E+00 0.67341864E+04</pdfrwt>
<totfact> 0.76107059E-04</totfact>
</mgrwt>
</event>
<event>
 6    1  0.1780144E-005  0.3950484E+04  0.7818608E-02  0.8014611E-01
         -1   -1    0    0    0  501 -0.00000000000E+00  0.00000000000E+00  0.93895040863E+03  0.93895040863E+03  0.00000000000E+00 0.  1.
          1   -1    0    0  501    0  0.00000000000E+00 -0.00000000000E+00 -0.41552577215E+04  0.41552577215E+04  0.00000000000E+00 0. -1.
         23    2    1    2    0    0 -0.11348003341E+04  0.69367318526E+03 -0.34904634884E+04  0.37362258420E+04  0.84225248368E+02 0.  0.
         13    1    3    3    0    0 -0.43741454339E+03  0.22002588030E+03 -0.12936166840E+04  0.13831800302E+04  0.00000000000E+00 0. -1.
        -13    1    3    3    0    0 -0.69738579069E+03  0.47364730496E+03 -0.21968468044E+04  0.23530458118E+04  0.00000000000E+00 0.  1.
         22    1    1    2    0    0  0.11348003341E+04 -0.69367318526E+03  0.27415617556E+03  0.13579822881E+04  0.00000000000E+00 0.  1.
<mgrwt>
<rscale>  0 0.39504840E+04</rscale>
<asrwt>0</asrwt>
<pdfrwt beam="1">  1        1 0.63927042E+00 0.39504840E+04</pdfrwt>
<pdfrwt beam="2">  1       -1 0.14445391E+00 0.39504840E+04</pdfrwt>
<totfact> 0.21015650E-02</totfact>
</mgrwt>
</event>
<event>
 6    1  0.1780144E-005  0.3173867E+04  0.7818608E-02  0.8195753E-01
          1   -1    0    0  501    0  0.00000000000E+00  0.00000000000E+00  0.17647056770E+04  0.17647056770E+04  0.00000000000E+00 0. -1.
         -1   -1    0    0    0  501 -0.00000000000E+00 -0.00000000000E+00 -0.14270697436E+04  0.14270697436E+04  0.00000000000E+00 0.  1.
         23    2    1    2    0    0  0.14628936731E+04 -0.11968090690E+03 -0.43421515853E+03  0.15334221632E+04  0.91974499974E+02 0.  0.
         13    1    3    3    0    0  0.72524396589E+03 -0.97845504732E+02 -0.18979154208E+03  0.75602472334E+03  0.00000000000E+00 0.  1.
        -13    1    3    3    0    0  0.73764970718E+03 -0.21835402164E+02 -0.24442361645E+03  0.77739743990E+03  0.00000000000E+00 0. -1.
         22    1    1    2    0    0 -0.14628936731E+04  0.11968090690E+03  0.77185109189E+03  0.16583532574E+04  0.00000000000E+00 0. -1.
<mgrwt>
<rscale>  0 0.31738671E+04</rscale>
<asrwt>0</asrwt>
<pdfrwt beam="1">  1        1 0.27149318E+00 0.31738671E+04</pdfrwt>
<pdfrwt beam="2">  1       -1 0.21954919E+00 0.31738671E+04</pdfrwt>
<totfact> 0.40012517E-01</totfact>
</mgrwt>
</event>
<event>
 6    1  0.1780144E-005  0.1563622E+04  0.7818608E-02  0.8843214E-01
          1   -1    0    0  501    0  0.00000000000E+00  0.00000000000E+00  0.85840717531E+03  0.85840717531E+03  0.00000000000E+00 0. -1.
         -1   -1    0    0    0  501 -0.00000000000E+00 -0.00000000000E+00 -0.71204930815E+03  0.71204930815E+03  0.00000000000E+00 0.  1.
         23    2    1    2    0    0  0.18991572609E+03  0.12551924487E+03  0.82180898361E+03  0.85767511828E+03  0.91725346069E+02 0.  0.
         13    1    3    3    0    0  0.17713218611E+03  0.85541027839E+02  0.74038372773E+03  0.76606862818E+03  0.00000000000E+00 0. -1.
        -13    1    3    3    0    0  0.12783539983E+02  0.39978217028E+02  0.81425255884E+02  0.91606490092E+02  0.00000000000E+00 0.  1.
         22    1    1    2    0    0 -0.18991572609E+03 -0.12551924487E+03 -0.67545111644E+03  0.71278136519E+03  0.00000000000E+00 0.  1.
<mgrwt>
<rscale>  0 0.15636217E+04</rscale>
<asrwt>0</asrwt>
<pdfrwt beam="1">  1        1 0.13206264E+00 0.15636217E+04</pdfrwt>
<pdfrwt beam="2">  1       -1 0.10954605E+00 0.15636217E+04</pdfrwt>
<totfact> 0.14618532E+01</totfact>
</mgrwt>
</event>
<event>
 6    1  0.1780144E-005  0.2041502E+04  0.7818608E-02  0.8587459E-01
         -2   -1    0    0    0  501 -0.00000000000E+00  0.00000000000E+00  0.40004721329E+03  0.40004721329E+03  0.00000000000E+00 0.  1.
          2   -1    0    0  501    0  0.00000000000E+00 -0.00000000000E+00 -0.26045253512E+04  0.26045253512E+04  0.00000000000E+00 0. -1.
         23    2    1    2    0    0 -0.51562024286E+03 -0.66997646689E+03 -0.19407059700E+04  0.21189606531E+04  0.94455737063E+02 0.  0.
         11    1    3    3    0    0 -0.43279923662E+03 -0.58961194531E+03 -0.16002193885E+04  0.17594486399E+04  0.00000000000E+00 0.  1.
        -11    1    3    3    0    0 -0.82821006239E+02 -0.80364521578E+02 -0.34048658158E+03  0.35951201320E+03  0.00000000000E+00 0. -1.
         22    1    1    2    0    0  0.51562024286E+03  0.66997646689E+03 -0.26377216787E+03  0.88561191138E+03  0.00000000000E+00 0.  1.
<mgrwt>
<rscale>  0 0.20415025E+04</rscale>
<asrwt>0</asrwt>
<pdfrwt beam="1">  1        2 0.40069621E+00 0.20415025E+04</pdfrwt>
<pdfrwt beam="2">  1       -2 0.61545724E-01 0.20415025E+04</pdfrwt>
<totfact> 0.68770906E+00</totfact>
</mgrwt>
</event>
<event>
 6    1  0.1780144E-005  0.2900150E+04  0.7818608E-02  0.8272833E-01
         -2   -1    0    0    0  501 -0.00000000000E+00  0.00000000000E+00  0.19104996859E+04  0.19104996859E+04  0.00000000000E+00 0.  1.
          2   -1    0    0  501    0  0.00000000000E+00 -0.00000000000E+00 -0.11006110496E+04  0.11006110496E+04  0.00000000000E+00 0. -1.
         23    2    1    2    0    0  0.43828719668E+03 -0.40387908170E+03  0.17762676577E+04  0.18757242848E+04  0.89447310507E+02 0.  0.
         13    1    3    3    0    0  0.19734523143E+03 -0.20479283076E+03  0.97579516701E+03  0.10163963065E+04  0.00000000000E+00 0.  1.
        -13    1    3    3    0    0  0.24094196524E+03 -0.19908625094E+03  0.80047249072E+03  0.85932797833E+03  0.00000000000E+00 0. -1.
         22    1    1    2    0    0 -0.43828719668E+03  0.40387908170E+03 -0.96637902138E+03  0.11353864507E+04  0.00000000000E+00 0. -1.
<mgrwt>
<rscale>  0 0.29001497E+04</rscale>
<asrwt>0</asrwt>
<pdfrwt beam="1">  1        2 0.16932478E+00 0.29001497E+04</pdfrwt>
<pdfrwt beam="2">  1       -2 0.29392303E+00 0.29001497E+04</pdfrwt>
<totfact> 0.65043685E-01</totfact>
</mgrwt>
</event>
<event>
 6    1  0.1780144E-005  0.1095180E+04  0.7818608E-02  0.9209903E-01
         -2   -1    0    0    0  501 -0.00000000000E+00  0.00000000000E+00  0.54816460324E+03  0.54816460324E+03  0.00000000000E+00 0.  1.
          2   -1    0    0  501    0  0.00000000000E+00 -0.00000000000E+00 -0.54701551978E+03  0.54701551978E+03  0.00000000000E+00 0. -1.
         23    2    1    2    0    0  0.35852392240E+03  0.11689984836E+03  0.39220312252E+03  0.55192305777E+03  0.92686541153E+02 0.  0.
         13    1    3    3    0    0  0.19563349143E+03  0.30168093937E+02  0.25040625844E+03  0.31919566276E+03  0.00000000000E+00 0.  1.
        -13    1    3    3    0    0  0.16289043097E+03  0.86731754419E+02  0.14179686408E+03  0.23272739501E+03  0.00000000000E+00 0. -1.
         22    1    1    2    0    0 -0.35852392240E+03 -0.11689984836E+03 -0.39105403906E+03  0.54325706525E+03  0.00000000000E+00 0. -1.
<mgrwt>
<rscale>  0 0.10951795E+04</rscale>
<asrwt>0</asrwt>
<pdfrwt beam="1">  1        2 0.84156233E-01 0.10951795E+04</pdfrwt>
<pdfrwt beam="2">  1       -2 0.84333016E-01 0.10951795E+04</pdfrwt>
<totfact> 0.67544075E+01</totfact>
</mgrwt>
</event>
<event>
 6    1  0.1852274E-005  0.3082941E+04  0.7818608E-02  0.8220435E-01
         -1   -1    0    0    0  501 -0.00000000000E+00  0.00000000000E+00  0.12686546174E+04  0.12686546174E+04  0.00000000000E+00 0.  1.
          1   -1    0    0  501    0  0.00000000000E+00 -0.00000000000E+00 -0.18729540983E+04  0.18729540983E+04  0.00000000000E+00 0. -1.
         23    2    1    2    0    0 -0.99999822937E+03 -0.69352842028E+03 -0.12641178963E+04  0.17572899411E+04  0.95371655476E+02 0.  0.
         11    1    3    3    0    0 -0.75416220037E+03 -0.48779689124E+03 -0.88687662264E+03  0.12622426769E+04  0.00000000000E+00 0. -1.
        -11    1    3    3    0    0 -0.24583602900E+03 -0.20573152904E+03 -0.37724127368E+03  0.49504726417E+03  0.00000000000E+00 0.  1.
         22    1    1    2    0    0  0.99999822937E+03  0.69352842028E+03  0.65981841545E+03  0.13843187746E+04  0.00000000000E+00 0.  1.
<mgrwt>
<rscale>  0 0.30829414E+04</rscale>
<asrwt>0</asrwt>
<pdfrwt beam="1">  1        1 0.28814678E+00 0.30829414E+04</pdfrwt>
<pdfrwt beam="2">  1       -1 0.19517763E+00 0.30829414E+04</pdfrwt>
<totfact> 0.49929204E-01</totfact>
</mgrwt>
</event>
<event>
 6    1  0.1780144E-005  0.1063226E+04  0.7818608E-02  0.9241795E-01
          1   -1    0    0  501    0  0.00000000000E+00  0.00000000000E+00  0.75710329222E+03  0.75710329222E+03  0.00000000000E+00 0. -1.
         -1   -1    0    0    0  501 -0.00000000000E+00 -0.00000000000E+00 -0.37328112837E+03  0.37328112837E+03  0.00000000000E+00 0.  1.
         23    2    1    2    0    0 -0.17563846988E+03 -0.29959608986E+03 -0.22922799074E+03  0.42580143669E+03  0.90303391882E+02 0.  0.
         11    1    3    3    0    0 -0.89341270902E+02 -0.20890832086E+03 -0.18510562029E+03  0.29306763703E+03  0.00000000000E+00 0. -1.
        -11    1    3    3    0    0 -0.86297198978E+02 -0.90687768998E+02 -0.44122370450E+02  0.13273379966E+03  0.00000000000E+00 0.  1.
         22    1    1    2    0    0  0.17563846988E+03  0.29959608986E+03  0.61305015459E+03  0.70458298391E+03  0.00000000000E+00 0. -1.
<mgrwt>
<rscale>  0 0.10632260E+04</rscale>
<asrwt>0</asrwt>
<pdfrwt beam="1">  1        1 0.11647743E+00 0.10632260E+04</pdfrwt>
<pdfrwt beam="2">  1       -1 0.57427866E-01 0.10632260E+04</pdfrwt>
<totfact> 0.74022564E+01</totfact>
</mgrwt>
</event>
<event>
 6    1  0.1780144E-005  0.2212043E+04  0.7818608E-02  0.8513432E-01
          2   -1    0    0  501    0  0.00000000000E+00  0.00000000000E+00  0.24001142364E+04  0.24001142364E+04  0.00000000000E+00 0. -1.
         -2   -1    0    0    0  501 -0.00000000000E+00 -0.00000000000E+00 -0.50967743209E+03  0.50967743209E+03  0.00000000000E+00 0.  1.
         23    2    1    2    0    0  0.49060760564E+03 -0.26129731009E+02 -0.35409502584E+03  0.61211855811E+03  0.89035140842E+02 0.  0.
         11    1    3    3    0    0  0.34053061163E+03  0.17611079620E+02 -0.26768039695E+03  0.43350206747E+03  0.00000000000E+00 0.  1.
        -11    1    3    3    0    0  0.15007699401E+03 -0.43740810630E+02 -0.86414628892E+02  0.17861649065E+03  0.00000000000E+00 0. -1.
         22    1    1    2    0    0 -0.49060760564E+03  0.26129731009E+02  0.22445318301E+04  0.22976731103E+04  0.00000000000E+00 0. -1.
<mgrwt>
<rscale>  0 0.22120435E+04</rscale>
<asrwt>0</asrwt>
<pdfrwt beam="1">  1        2 0.36924834E+00 0.22120435E+04</pdfrwt>
<pdfrwt beam="2">  1       -2 0.78411914E-01 0.22120435E+04</pdfrwt>
<totfact> 0.52482245E+00</totfact>
</mgrwt>
</event>
<event>
 6    1  0.1780144E-005  0.1233191E+04  0.7818608E-02  0.9084291E-01
          1   -1    0    0  501    0  0.00000000000E+00  0.00000000000E+00  0.13437657084E+04  0.13437657084E+04  0.00000000000E+00 0. -1.
         -1   -1    0    0    0  501 -0.00000000000E+00 -0.00000000000E+00 -0.28292878828E+03  0.28292878828E+03  0.00000000000E+00 0.  1.
         23    2    1    2    0    0 -0.34702857366E+03  0.10472812174E+03 -0.11899120857E+03  0.39243713953E+03  0.91930355940E+02 0.  0.
         11    1    3    3    0    0 -0.29436009050E+03  0.12151522844E+03 -0.96471520598E+02  0.33274700286E+03  0.00000000000E+00 0. -1.
        -11    1    3    3    0    0 -0.52668483162E+02 -0.16787106698E+02 -0.22519687974E+02  0.59690136675E+02  0.00000000000E+00 0.  1.
         22    1    1    2    0    0  0.34702857366E+03 -0.10472812174E+03  0.11798281287E+04  0.12342573571E+04  0.00000000000E+00 0. -1.
<mgrwt>
<rscale>  0 0.12331910E+04</rscale>
<asrwt>0</asrwt>
<pdfrwt beam="1">  1        1 0.20673318E+00 0.12331910E+04</pdfrwt>
<pdfrwt beam="2">  1       -1 0.43527507E-01 0.12331910E+04</pdfrwt>
<totfact> 0.43300500E+01</totfact>
</mgrwt>
</event>
<event>
 6    1  0.1780144E-005  0.1188124E+04  0.7818608E-02  0.9123316E-01
          1   -1    0    0  501    0  0.00000000000E+00  0.00000000000E+00  0.13817372885E+04  0.13817372885E+04  0.00000000000E+00 0. -1.
         -1   -1    0    0    0  501 -0.00000000000E+00 -0.00000000000E+00 -0.25540997227E+03  0.25540997227E+03  0.00000000000E+00 0.  1.
         23    2    1    2    0    0  0.43916656077E+03 -0.39439505627E+03  0.54206001393E+03  0.80661549795E+03  0.91568413367E+02 0.  0.
         11    1    3    3    0    0  0.32734184456E+03 -0.31805018760E+03  0.36921397135E+03  0.58704988005E+03  0.00000000000E+00 0. -1.
        -11    1    3    3    0    0  0.11182471621E+03 -0.76344868677E+02  0.17284604258E+03  0.21956561790E+03  0.00000000000E+00 0.  1.
         22    1    1    2    0    0 -0.43916656077E+03  0.39439505627E+03  0.58426730228E+03  0.83053176280E+03  0.00000000000E+00 0. -1.
<mgrwt>
<rscale>  0 0.11881237E+04</rscale>
<asrwt>0</asrwt>
<pdfrwt beam="1">  1        1 0.21257496E+00 0.11881237E+04</pdfrwt>
<pdfrwt beam="2">  1       -1 0.39293843E-01 0.11881237E+04</pdfrwt>
<totfact> 0.49309380E+01</totfact>
</mgrwt>
</event>
<event>
 6    1  0.1780144E-005  0.1213445E+04  0.7818608E-02  0.9101168E-01
          1   -1    0    0  501    0  0.00000000000E+00  0.00000000000E+00  0.27664668553E+03  0.27664668553E+03  0.00000000000E+00 0. -1.
         -1   -1    0    0    0  501 -0.00000000000E+00 -0.00000000000E+00 -0.13306231713E+04  0.13306231713E+04  0.00000000000E+00 0.  1.
         23    2    1    2    0    0  0.12818060891E+03  0.14101958105E+03 -0.12881808045E+04  0.13053287141E+04  0.90313211165E+02 0.  0.
         11    1    3    3    0    0  0.69788065466E+02  0.43411236767E+02 -0.79325504648E+03  0.79750139707E+03  0.00000000000E+00 0. -1.
        -11    1    3    3    0    0  0.58392543449E+02  0.97608344280E+02 -0.49492575803E+03  0.50782731707E+03  0.00000000000E+00 0.  1.
         22    1    1    2    0    0 -0.12818060891E+03 -0.14101958105E+03  0.23420431873E+03  0.30194114269E+03  0.00000000000E+00 0. -1.
<mgrwt>
<rscale>  0 0.12134455E+04</rscale>
<asrwt>0</asrwt>
<pdfrwt beam="1">  1        1 0.42561028E-01 0.12134455E+04</pdfrwt>
<pdfrwt beam="2">  1       -1 0.20471126E+00 0.12134455E+04</pdfrwt>
<totfact> 0.13465955E+01</totfact>
</mgrwt>
</event>
<event>
 6    1  0.1780144E-005  0.2171872E+04  0.7818608E-02  0.8530227E-01
          1   -1    0    0  501    0  0.00000000000E+00  0.00000000000E+00  0.21471274225E+04  0.21471274225E+04  0.00000000000E+00 0. -1.
         -1   -1    0    0    0  501 -0.00000000000E+00 -0.00000000000E+00 -0.54922565121E+03  0.54922565121E+03  0.00000000000E+00 0.  1.
         23    2    1    2    0    0 -0.56203303833E+03  0.91655215951E+02 -0.34477616097E+03  0.67193232612E+03  0.91327076638E+02 0.  0.
         11    1    3    3    0    0 -0.36225193526E+03  0.10244972987E+03 -0.21663984437E+03  0.43434460273E+03  0.00000000000E+00 0.  1.
        -11    1    3    3    0    0 -0.19978110307E+03 -0.10794513923E+02 -0.12813631660E+03  0.23758772339E+03  0.00000000000E+00 0. -1.
         22    1    1    2    0    0  0.56203303833E+03 -0.91655215951E+02  0.19426779322E+04  0.20244207476E+04  0.00000000000E+00 0. -1.
<mgrwt>
<rscale>  0 0.21718724E+04</rscale>
<asrwt>0</asrwt>
<pdfrwt beam="1">  1        1 0.33032729E+00 0.21718724E+04</pdfrwt>
<pdfrwt beam="2">  1       -1 0.84496255E-01 0.21718724E+04</pdfrwt>
<totfact> 0.29998702E+00</totfact>
</mgrwt>
</event>
<event>
 6    1  0.1780144E-005  0.1870754E+04  0.7818608E-02  0.8669552E-01
         -2   -1    0    0    0  501 -0.00000000000E+00  0.00000000000E+00  0.22838887421E+04  0.22838887421E+04  0.00000000000E+00 0.  1.
          2   -1    0    0  501    0  0.00000000000E+00 -0.00000000000E+00 -0.38308802666E+03  0.38308802666E+03  0.00000000000E+00 0. -1.
         23    2    1    2    0    0  0.70343081295E+03 -0.61124306515E+03  0.10194532609E+04  0.13843208021E+04  0.92877007614E+02 0.  0.
         13    1    3    3    0    0  0.51312678483E+03 -0.41991540286E+03  0.77804534342E+03  0.10222439040E+04  0.00000000000E+00 0. -1.
        -13    1    3    3    0    0  0.19030402812E+03 -0.19132766229E+03  0.24140791749E+03  0.36207689805E+03  0.00000000000E+00 0.  1.
         22    1    1    2    0    0 -0.70343081295E+03  0.61124306515E+03  0.88134745456E+03  0.12826559667E+04  0.00000000000E+00 0.  1.
<mgrwt>
<rscale>  0 0.18707543E+04</rscale>
<asrwt>0</asrwt>
<pdfrwt beam="1">  1        2 0.58936620E-01 0.18707543E+04</pdfrwt>
<pdfrwt beam="2">  1       -2 0.35136749E+00 0.18707543E+04</pdfrwt>
<totfact> 0.11992565E+00</totfact>
</mgrwt>
</event>
<event>
 6    1  0.1780144E-005  0.3119648E+04  0.7818608E-02  0.8210366E-01
          2   -1    0    0  501    0  0.00000000000E+00  0.00000000000E+00  0.14439311234E+04  0.14439311234E+04  0.00000000000E+00 0. -1.
         -2   -1    0    0    0  501 -0.00000000000E+00 -0.00000000000E+00 -0.16850191532E+04  0.16850191532E+04  0.00000000000E+00 0.  1.
         23    2    1    2    0    0  0.83940676099E+03 -0.92521036904E+03 -0.10551808839E+04  0.16378550038E+04  0.92435806267E+02 0.  0.
         13    1    3    3    0    0  0.15559037354E+03 -0.15393688993E+03 -0.22981576379E+03  0.31736448400E+03  0.00000000000E+00 0.  1.
        -13    1    3    3    0    0  0.68381638745E+03 -0.77127347911E+03 -0.82536512012E+03  0.13204905198E+04  0.00000000000E+00 0. -1.
         22    1    1    2    0    0 -0.83940676099E+03  0.92521036904E+03  0.81409285416E+03  0.14910952728E+04  0.00000000000E+00 0. -1.
<mgrwt>
<rscale>  0 0.31196484E+04</rscale>
<asrwt>0</asrwt>
<pdfrwt beam="1">  1        2 0.22214325E+00 0.31196484E+04</pdfrwt>
<pdfrwt beam="2">  1       -2 0.25923372E+00 0.31196484E+04</pdfrwt>
<totfact> 0.65295499E-01</totfact>
</mgrwt>
</event>
<event>
 6    1  0.1780144E-005  0.2001466E+04  0.7818608E-02  0.8605936E-01
          2   -1    0    0  501    0  0.00000000000E+00  0.00000000000E+00  0.74827757711E+03  0.74827757711E+03  0.00000000000E+00 0. -1.
         -2   -1    0    0    0  501 -0.00000000000E+00 -0.00000000000E+00 -0.13383621239E+04  0.13383621239E+04  0.00000000000E+00 0.  1.
         23    2    1    2    0    0  0.58407594935E+03  0.63139373553E+03  0.23345593817E+03  0.89583254019E+03  0.90617333470E+02 0.  0.
         11    1    3    3    0    0  0.35304942311E+03  0.44495608063E+03  0.15234170409E+03  0.58807975960E+03  0.00000000000E+00 0.  1.
        -11    1    3    3    0    0  0.23102652624E+03  0.18643765490E+03  0.81114234078E+02  0.30775278059E+03  0.00000000000E+00 0. -1.
         22    1    1    2    0    0 -0.58407594935E+03 -0.63139373553E+03 -0.82354048496E+03  0.11908071608E+04  0.00000000000E+00 0.  1.
<mgrwt>
<rscale>  0 0.20014658E+04</rscale>
<asrwt>0</asrwt>
<pdfrwt beam="1">  1        2 0.11511963E+00 0.20014658E+04</pdfrwt>
<pdfrwt beam="2">  1       -2 0.20590186E+00 0.20014658E+04</pdfrwt>
<totfact> 0.42500329E+00</totfact>
</mgrwt>
</event>
<event>
 6    1  0.1780144E-005  0.1843278E+04  0.7818608E-02  0.8683617E-01
          1   -1    0    0  501    0  0.00000000000E+00  0.00000000000E+00  0.28040435095E+04  0.28040435095E+04  0.00000000000E+00 0. -1.
         -1   -1    0    0    0  501 -0.00000000000E+00 -0.00000000000E+00 -0.30292626641E+03  0.30292626641E+03  0.00000000000E+00 0.  1.
         23    2    1    2    0    0  0.42798789488E+03  0.24668566582E+03 -0.52925501631E+02  0.50559287170E+03  0.93784792492E+02 0.  0.
         11    1    3    3    0    0  0.24346728068E+03  0.14345594230E+03 -0.76739465377E+02  0.29282224931E+03  0.00000000000E+00 0.  1.
        -11    1    3    3    0    0  0.18452061420E+03  0.10322972353E+03  0.23813963746E+02  0.21277062240E+03  0.00000000000E+00 0. -1.
         22    1    1    2    0    0 -0.42798789488E+03 -0.24668566582E+03  0.25540427447E+04  0.26013769042E+04  0.00000000000E+00 0. -1.
<mgrwt>
<rscale>  0 0.18432780E+04</rscale>
<asrwt>0</asrwt>
<pdfrwt beam="1">  1        1 0.43139129E+00 0.18432780E+04</pdfrwt>
<pdfrwt beam="2">  1       -1 0.46604043E-01 0.18432780E+04</pdfrwt>
<totfact> 0.35761955E+00</totfact>
</mgrwt>
</event>
<event>
 6    1  0.1780144E-005  0.2716678E+04  0.7818608E-02  0.8329614E-01
          2   -1    0    0  501    0  0.00000000000E+00  0.00000000000E+00  0.97864245670E+03  0.97864245670E+03  0.00000000000E+00 0. -1.
         -2   -1    0    0    0  501 -0.00000000000E+00 -0.00000000000E+00 -0.18853508927E+04  0.18853508927E+04  0.00000000000E+00 0.  1.
         23    2    1    2    0    0  0.10858353536E+04  0.62433961691E+02 -0.13090158278E+04  0.17043435521E+04  0.91258377880E+02 0.  0.
         13    1    3    3    0    0  0.72108277890E+03  0.32611126881E+02 -0.93311309668E+03  0.11797134868E+04  0.00000000000E+00 0. -1.
        -13    1    3    3    0    0  0.36475257473E+03  0.29822834809E+02 -0.37590273108E+03  0.52463006536E+03  0.00000000000E+00 0.  1.
         22    1    1    2    0    0 -0.10858353536E+04 -0.62433961691E+02  0.40230739179E+03  0.11596497973E+04  0.00000000000E+00 0. -1.
<mgrwt>
<rscale>  0 0.27166777E+04</rscale>
<asrwt>0</asrwt>
<pdfrwt beam="1">  1        2 0.15056038E+00 0.27166777E+04</pdfrwt>
<pdfrwt beam="2">  1       -2 0.29005398E+00 0.27166777E+04</pdfrwt>
<totfact> 0.83291382E-01</totfact>
</mgrwt>
</event>
<event>
 6    1  0.1780144E-005  0.3014774E+04  0.7818608E-02  0.8239525E-01
         -1   -1    0    0    0  501 -0.00000000000E+00  0.00000000000E+00  0.10055569864E+04  0.10055569864E+04  0.00000000000E+00 0.  1.
          1   -1    0    0  501    0  0.00000000000E+00 -0.00000000000E+00 -0.22596584621E+04  0.22596584621E+04  0.00000000000E+00 0. -1.
         23    2    1    2    0    0  0.13025901656E+04  0.36471125870E+03 -0.13446856588E+04  0.19095012691E+04  0.90885279032E+02 0.  0.
         11    1    3    3    0    0  0.92472873692E+03  0.21677691880E+03 -0.95505888729E+03  0.13469420728E+04  0.00000000000E+00 0. -1.
        -11    1    3    3    0    0  0.37786142869E+03  0.14793433990E+03 -0.38962677155E+03  0.56255919628E+03  0.00000000000E+00 0.  1.
         22    1    1    2    0    0 -0.13025901656E+04 -0.36471125870E+03  0.90584183132E+02  0.13557141793E+04  0.00000000000E+00 0.  1.
<mgrwt>
<rscale>  0 0.30147739E+04</rscale>
<asrwt>0</asrwt>
<pdfrwt beam="1">  1        1 0.34763976E+00 0.30147739E+04</pdfrwt>
<pdfrwt beam="2">  1       -1 0.15470108E+00 0.30147739E+04</pdfrwt>
<totfact> 0.54075106E-01</totfact>
</mgrwt>
</event>
<event>
 6    1  0.1780144E-005  0.1080471E+04  0.7818608E-02  0.9224438E-01
         -1   -1    0    0    0  501 -0.00000000000E+00  0.00000000000E+00  0.19894979123E+03  0.19894979123E+03  0.00000000000E+00 0.  1.
          1   -1    0    0  501    0  0.00000000000E+00 -0.00000000000E+00 -0.14669755886E+04  0.14669755886E+04  0.00000000000E+00 0. -1.
         23    2    1    2    0    0  0.36500122405E+01  0.24934734149E+03 -0.13706537950E+04  0.13962590579E+04  0.93059722435E+02 0.  0.
         13    1    3    3    0    0 -0.66237120348E+01  0.22249355747E+03 -0.99915677254E+03  0.10236510698E+04  0.00000000000E+00 0.  1.
        -13    1    3    3    0    0  0.10273724275E+02  0.26853784024E+02 -0.37149702242E+03  0.37260798809E+03  0.00000000000E+00 0. -1.
         22    1    1    2    0    0 -0.36500122405E+01 -0.24934734149E+03  0.10262799755E+03  0.26966632192E+03  0.00000000000E+00 0.  1.
<mgrwt>
<rscale>  0 0.10804712E+04</rscale>
<asrwt>0</asrwt>
<pdfrwt beam="1">  1        1 0.22568855E+00 0.10804712E+04</pdfrwt>
<pdfrwt beam="2">  1       -1 0.30607660E-01 0.10804712E+04</pdfrwt>
<totfact> 0.67755870E+01</totfact>
</mgrwt>
</event>
<event>
 6    1  0.1780144E-005  0.4018238E+04  0.7818608E-02  0.8000877E-01
         -1   -1    0    0    0  501 -0.00000000000E+00  0.00000000000E+00  0.13970001544E+04  0.13970001544E+04  0.00000000000E+00 0.  1.
          1   -1    0    0  501    0  0.00000000000E+00 -0.00000000000E+00 -0.28894480365E+04  0.28894480365E+04  0.00000000000E+00 0. -1.
         23    2    1    2    0    0 -0.10924120824E+04  0.16835048180E+04 -0.81968221000E+03  0.21698078626E+04  0.92922576748E+02 0.  0.
         11    1    3    3    0    0 -0.72381325365E+03  0.11365456740E+04 -0.59551801430E+03  0.14731881755E+04  0.00000000000E+00 0. -1.
        -11    1    3    3    0    0 -0.36859882875E+03  0.54695914398E+03 -0.22416419570E+03  0.69661968704E+03  0.00000000000E+00 0.  1.
         22    1    1    2    0    0  0.10924120824E+04 -0.16835048180E+04 -0.67276567218E+03  0.21166403283E+04  0.00000000000E+00 0. -1.
<mgrwt>
<rscale>  0 0.40182381E+04</rscale>
<asrwt>0</asrwt>
<pdfrwt beam="1">  1        1 0.44453046E+00 0.40182381E+04</pdfrwt>
<pdfrwt beam="2">  1       -1 0.21492310E+00 0.40182381E+04</pdfrwt>
<totfact> 0.66870064E-02</totfact>
</mgrwt>
</event>
<event>
 6    1  0.1780144E-005  0.1708101E+04  0.7818608E-02  0.8756757E-01
          2   -1    0    0  501    0  0.00000000000E+00  0.00000000000E+00  0.86525362295E+03  0.86525362295E+03  0.00000000000E+00 0. -1.
         -2   -1    0    0    0  501 -0.00000000000E+00 -0.00000000000E+00 -0.84299268592E+03  0.84299268592E+03  0.00000000000E+00 0.  1.
         23    2    1    2    0    0 -0.31952053586E+03  0.68333127301E+02  0.79767092414E+03  0.86680502319E+03  0.91155119982E+02 0.  0.
         11    1    3    3    0    0 -0.62449814801E+02  0.28412458288E+02  0.26872559038E+03  0.27734579513E+03  0.00000000000E+00 0. -1.
        -11    1    3    3    0    0 -0.25707072106E+03  0.39920669013E+02  0.52894533376E+03  0.58945922806E+03  0.00000000000E+00 0.  1.
         22    1    1    2    0    0  0.31952053586E+03 -0.68333127301E+02 -0.77540998711E+03  0.84144128567E+03  0.00000000000E+00 0.  1.
<mgrwt>
<rscale>  0 0.17081013E+04</rscale>
<asrwt>0</asrwt>
<pdfrwt beam="1">  1        2 0.13311594E+00 0.17081013E+04</pdfrwt>
<pdfrwt beam="2">  1       -2 0.12969118E+00 0.17081013E+04</pdfrwt>
<totfact> 0.12867513E+01</totfact>
</mgrwt>
</event>
<event>
 6    1  0.1780144E-005  0.1464927E+04  0.7818608E-02  0.8908117E-01
         -1   -1    0    0    0  501 -0.00000000000E+00  0.00000000000E+00  0.47329871132E+03  0.47329871132E+03  0.00000000000E+00 0.  1.
          1   -1    0    0  501    0  0.00000000000E+00 -0.00000000000E+00 -0.11335396907E+04  0.11335396907E+04  0.00000000000E+00 0. -1.
         23    2    1    2    0    0  0.46545175571E+03  0.52554925521E+03 -0.11501731370E+03  0.71795359387E+03  0.96855686212E+02 0.  0.
         11    1    3    3    0    0  0.30501451971E+03  0.27864357698E+03 -0.86818800201E+02  0.42215353166E+03  0.00000000000E+00 0. -1.
        -11    1    3    3    0    0  0.16043723600E+03  0.24690567823E+03 -0.28198513502E+02  0.29580006221E+03  0.00000000000E+00 0.  1.
         22    1    1    2    0    0 -0.46545175571E+03 -0.52554925521E+03 -0.54522366570E+03  0.88888480817E+03  0.00000000000E+00 0.  1.
<mgrwt>
<rscale>  0 0.14649271E+04</rscale>
<asrwt>0</asrwt>
<pdfrwt beam="1">  1        1 0.17439072E+00 0.14649271E+04</pdfrwt>
<pdfrwt beam="2">  1       -1 0.72815187E-01 0.14649271E+04</pdfrwt>
<totfact> 0.22075365E+01</totfact>
</mgrwt>
</event>
<event>
 6    1  0.1780144E-005  0.4727382E+04  0.7818608E-02  0.7871995E-01
         -2   -1    0    0    0  501 -0.00000000000E+00  0.00000000000E+00  0.16631252682E+04  0.16631252682E+04  0.00000000000E+00 0.  1.
          2   -1    0    0  501    0  0.00000000000E+00 -0.00000000000E+00 -0.33593596407E+04  0.33593596407E+04  0.00000000000E+00 0. -1.
         23    2    1    2    0    0 -0.21785663075E+04 -0.88036324921E+03 -0.11120822678E+04  0.26012405412E+04  0.92383851964E+02 0.  0.
         11    1    3    3    0    0 -0.17252127761E+04 -0.72576624453E+03 -0.91409954610E+03  0.20829483298E+04  0.00000000000E+00 0. -1.
        -11    1    3    3    0    0 -0.45335353137E+03 -0.15459700468E+03 -0.19798272169E+03  0.51829221136E+03  0.00000000000E+00 0.  1.
         22    1    1    2    0    0  0.21785663075E+04  0.88036324921E+03 -0.58415210471E+03  0.24212443677E+04  0.00000000000E+00 0.  1.
<mgrwt>
<rscale>  0 0.47273823E+04</rscale>
<asrwt>0</asrwt>
<pdfrwt beam="1">  1        2 0.51682456E+00 0.47273823E+04</pdfrwt>
<pdfrwt beam="2">  1       -2 0.25586543E+00 0.47273823E+04</pdfrwt>
<totfact> 0.44641845E-02</totfact>
</mgrwt>
</event>
<event>
 6    1  0.1780144E-005  0.2605383E+04  0.7818608E-02  0.8366375E-01
          2   -1    0    0  501    0  0.00000000000E+00  0.00000000000E+00  0.12232352212E+04  0.12232352212E+04  0.00000000000E+00 0. -1.
         -2   -1    0    0    0  501 -0.00000000000E+00 -0.00000000000E+00 -0.13873089162E+04  0.13873089162E+04  0.00000000000E+00 0.  1.
         23    2    1    2    0    0  0.44464809933E+03  0.80701313714E+03  0.83828074973E+03  0.12490388790E+04  0.91658988882E+02 0.  0.
         11    1    3    3    0    0  0.25758844808E+03  0.46832313524E+03  0.42458551687E+03  0.68260620325E+03  0.00000000000E+00 0.  1.
        -11    1    3    3    0    0  0.18705965125E+03  0.33869000190E+03  0.41369523285E+03  0.56643267579E+03  0.00000000000E+00 0. -1.
         22    1    1    2    0    0 -0.44464809933E+03 -0.80701313714E+03 -0.10023544447E+04  0.13615052584E+04  0.00000000000E+00 0.  1.
<mgrwt>
<rscale>  0 0.26053830E+04</rscale>
<asrwt>0</asrwt>
<pdfrwt beam="1">  1        2 0.18819003E+00 0.26053830E+04</pdfrwt>
<pdfrwt beam="2">  1       -2 0.21343214E+00 0.26053830E+04</pdfrwt>
<totfact> 0.17653892E+00</totfact>
</mgrwt>
</event>
<event>
 6    1  0.1780144E-005  0.2515899E+04  0.7818608E-02  0.8397343E-01
         -1   -1    0    0    0  501 -0.00000000000E+00  0.00000000000E+00  0.95137938770E+03  0.95137938770E+03  0.00000000000E+00 0.  1.
          1   -1    0    0  501    0  0.00000000000E+00 -0.00000000000E+00 -0.16633078602E+04  0.16633078602E+04  0.00000000000E+00 0. -1.
         23    2    1    2    0    0  0.16899405924E+03 -0.70562650383E+03  0.70853187936E+03  0.10196401119E+04  0.10573920142E+03 0.  0.
         13    1    3    3    0    0  0.14874963217E+03 -0.50371092751E+03  0.45496826141E+03  0.69487212525E+03  0.00000000000E+00 0. -1.
        -13    1    3    3    0    0  0.20244427067E+02 -0.20191557631E+03  0.25356361795E+03  0.32476798662E+03  0.00000000000E+00 0.  1.
         22    1    1    2    0    0 -0.16899405924E+03  0.70562650383E+03 -0.14204603519E+04  0.15950471360E+04  0.00000000000E+00 0. -1.
<mgrwt>
<rscale>  0 0.25158989E+04</rscale>
<asrwt>0</asrwt>
<pdfrwt beam="1">  1        1 0.25589352E+00 0.25158989E+04</pdfrwt>
<pdfrwt beam="2">  1       -1 0.14636606E+00 0.25158989E+04</pdfrwt>
<totfact> 0.16693407E+00</totfact>
</mgrwt>
</event>
<event>
 6    1  0.1859410E-005  0.3316725E+04  0.7818608E-02  0.8158653E-01
          2   -1    0    0  501    0  0.00000000000E+00  0.00000000000E+00  0.20365159950E+04  0.20365159950E+04  0.00000000000E+00 0. -1.
         -2   -1    0    0    0  501 -0.00000000000E+00 -0.00000000000E+00 -0.13504270539E+04  0.13504270539E+04  0.00000000000E+00 0.  1.
         23    2    1    2    0    0 -0.22454131803E+03 -0.11572869771E+04 -0.84589812124E+03  0.14538842525E+04  0.92216253954E+02 0.  0.
         11    1    3    3    0    0 -0.15053725268E+03 -0.58913531190E+03 -0.47152932197E+03  0.76946850595E+03  0.00000000000E+00 0. -1.
        -11    1    3    3    0    0 -0.74004065345E+02 -0.56815166517E+03 -0.37436879926E+03  0.68441574659E+03  0.00000000000E+00 0.  1.
         22    1    1    2    0    0  0.22454131803E+03  0.11572869771E+04  0.15319870623E+04  0.19330587963E+04  0.00000000000E+00 0. -1.
<mgrwt>
<rscale>  0 0.33167251E+04</rscale>
<asrwt>0</asrwt>
<pdfrwt beam="1">  1        2 0.31331015E+00 0.33167251E+04</pdfrwt>
<pdfrwt beam="2">  1       -2 0.20775801E+00 0.33167251E+04</pdfrwt>
<totfact> 0.62957466E-01</totfact>
</mgrwt>
</event>
<event>
 6    1  0.1780144E-005  0.3140195E+04  0.7818608E-02  0.8204792E-01
         -2   -1    0    0    0  501 -0.00000000000E+00  0.00000000000E+00  0.11599456933E+04  0.11599456933E+04  0.00000000000E+00 0.  1.
          2   -1    0    0  501    0  0.00000000000E+00 -0.00000000000E+00 -0.21252778316E+04  0.21252778316E+04  0.00000000000E+00 0. -1.
         23    2    1    2    0    0 -0.74734611076E+03 -0.38301517814E+03  0.90306217280E+03  0.12367792035E+04  0.94205490302E+02 0.  0.
         13    1    3    3    0    0 -0.69382881684E+03 -0.32527113073E+03  0.82168298004E+03  0.11235491334E+04  0.00000000000E+00 0.  1.
        -13    1    3    3    0    0 -0.53517293914E+02 -0.57744047408E+02  0.81379192763E+02  0.11323007009E+03  0.00000000000E+00 0. -1.
         22    1    1    2    0    0  0.74734611076E+03  0.38301517814E+03 -0.18683943111E+04  0.20484443214E+04  0.00000000000E+00 0. -1.
<mgrwt>
<rscale>  0 0.31401955E+04</rscale>
<asrwt>0</asrwt>
<pdfrwt beam="1">  1        2 0.32696581E+00 0.31401955E+04</pdfrwt>
<pdfrwt beam="2">  1       -2 0.17845319E+00 0.31401955E+04</pdfrwt>
<totfact> 0.89455821E-01</totfact>
</mgrwt>
</event>
<event>
 6    1  0.1780144E-005  0.1573880E+04  0.7818608E-02  0.8836757E-01
          1   -1    0    0  501    0  0.00000000000E+00  0.00000000000E+00  0.15739137186E+04  0.15739137186E+04  0.00000000000E+00 0.  1.
         -1   -1    0    0    0  501 -0.00000000000E+00 -0.00000000000E+00 -0.39346156757E+03  0.39346156757E+03  0.00000000000E+00 0. -1.
         23    2    1    2    0    0 -0.17510588167E+03 -0.35505443112E+03 -0.25422872853E+03  0.47907593960E+03  0.90309416128E+02 0.  0.
         11    1    3    3    0    0 -0.70939974877E+02 -0.11656840659E+03 -0.13794752538E+03  0.19403657699E+03  0.00000000000E+00 0.  1.
        -11    1    3    3    0    0 -0.10416590679E+03 -0.23848602452E+03 -0.11628120315E+03  0.28503936261E+03  0.00000000000E+00 0. -1.
         22    1    1    2    0    0  0.17510588167E+03  0.35505443112E+03  0.14346808795E+04  0.14882993465E+04  0.00000000000E+00 0.  1.
<mgrwt>
<rscale>  0 0.15738800E+04</rscale>
<asrwt>0</asrwt>
<pdfrwt beam="1">  1        1 0.24214057E+00 0.15738800E+04</pdfrwt>
<pdfrwt beam="2">  1       -1 0.60532550E-01 0.15738800E+04</pdfrwt>
<totfact> 0.15476019E+01</totfact>
</mgrwt>
</event>
<event>
 6    1  0.1780144E-005  0.5101013E+04  0.7818608E-02  0.7813111E-01
         -2   -1    0    0    0  501 -0.00000000000E+00  0.00000000000E+00  0.46573284434E+04  0.46573284434E+04  0.00000000000E+00 0. -1.
          2   -1    0    0  501    0  0.00000000000E+00 -0.00000000000E+00 -0.13967413558E+04  0.13967413558E+04  0.00000000000E+00 0.  1.
         23    2    1    2    0    0 -0.29151166074E+02 -0.12542911173E+04  0.42651753072E+04  0.44468070676E+04  0.90976356004E+02 0.  0.
         13    1    3    3    0    0 -0.35137529112E+01 -0.60164359863E+03  0.22018494901E+04  0.22825705998E+04  0.00000000000E+00 0.  1.
        -13    1    3    3    0    0 -0.25637413162E+02 -0.65264751869E+03  0.20633258171E+04  0.21642364677E+04  0.00000000000E+00 0. -1.
         22    1    1    2    0    0  0.29151166074E+02  0.12542911173E+04 -0.10045882197E+04  0.16072627317E+04  0.00000000000E+00 0.  1.
<mgrwt>
<rscale>  0 0.51010129E+04</rscale>
<asrwt>0</asrwt>
<pdfrwt beam="1">  1        2 0.21488329E+00 0.51010129E+04</pdfrwt>
<pdfrwt beam="2">  1       -2 0.71651206E+00 0.51010129E+04</pdfrwt>
<totfact> 0.20934629E-03</totfact>
</mgrwt>
</event>
<event>
 6    1  0.1780144E-005  0.1296732E+04  0.7818608E-02  0.9032161E-01
          4   -1    0    0  501    0  0.00000000000E+00  0.00000000000E+00  0.47738375899E+03  0.47738375899E+03  0.00000000000E+00 0. -1.
         -4   -1    0    0    0  501 -0.00000000000E+00 -0.00000000000E+00 -0.88058745352E+03  0.88058745352E+03  0.00000000000E+00 0.  1.
         23    2    1    2    0    0 -0.25591837333E+03  0.97721586628E+02  0.40885881935E+03  0.50094773047E+03  0.93484609461E+02 0.  0.
         11    1    3    3    0    0 -0.19404836594E+03  0.32979010964E+02  0.24559731789E+03  0.31473866309E+03  0.00000000000E+00 0.  1.
        -11    1    3    3    0    0 -0.61870007394E+02  0.64742575664E+02  0.16326150146E+03  0.18620906739E+03  0.00000000000E+00 0. -1.
         22    1    1    2    0    0  0.25591837333E+03 -0.97721586628E+02 -0.81206251389E+03  0.85702348204E+03  0.00000000000E+00 0.  1.
<mgrwt>
<rscale>  0 0.12967315E+04</rscale>
<asrwt>0</asrwt>
<pdfrwt beam="1">  1        4 0.73443655E-01 0.12967315E+04</pdfrwt>
<pdfrwt beam="2">  1       -4 0.13547499E+00 0.12967315E+04</pdfrwt>
<totfact> 0.12817745E+00</totfact>
</mgrwt>
</event>
<event>
 6    1  0.1780144E-005  0.4442491E+04  0.7818608E-02  0.7920783E-01
         -2   -1    0    0    0  501 -0.00000000000E+00  0.00000000000E+00  0.12386391988E+04  0.12386391988E+04  0.00000000000E+00 0. -1.
          2   -1    0    0  501    0  0.00000000000E+00 -0.00000000000E+00 -0.39833487241E+04  0.39833487241E+04  0.00000000000E+00 0.  1.
         23    2    1    2    0    0 -0.62186970804E+03  0.18467992356E+04 -0.12213977000E+03  0.19546860588E+04  0.92141818532E+02 0.  0.
         11    1    3    3    0    0 -0.43240832629E+03  0.11572816434E+04 -0.59094035759E+02  0.12368386587E+04  0.00000000000E+00 0. -1.
        -11    1    3    3    0    0 -0.18946138174E+03  0.68951759220E+03 -0.63045734240E+02  0.71784740003E+03  0.00000000000E+00 0.  1.
         22    1    1    2    0    0  0.62186970804E+03 -0.18467992356E+04 -0.26225697552E+04  0.32673018641E+04  0.00000000000E+00 0. -1.
<mgrwt>
<rscale>  0 0.44424911E+04</rscale>
<asrwt>0</asrwt>
<pdfrwt beam="1">  1        2 0.61282287E+00 0.44424911E+04</pdfrwt>
<pdfrwt beam="2">  1       -2 0.19055988E+00 0.44424911E+04</pdfrwt>
<totfact> 0.41111630E-02</totfact>
</mgrwt>
</event>
<event>
 6    1  0.1780144E-005  0.3663569E+04  0.7818608E-02  0.8076084E-01
         -2   -1    0    0    0  501 -0.00000000000E+00  0.00000000000E+00  0.88227996564E+03  0.88227996564E+03  0.00000000000E+00 0.  1.
          2   -1    0    0  501    0  0.00000000000E+00 -0.00000000000E+00 -0.38031392328E+04  0.38031392328E+04  0.00000000000E+00 0. -1.
         23    2    1    2    0    0  0.16862899352E+03  0.18227158424E+04 -0.14756146974E+04  0.23531540665E+04  0.95742079478E+02 0.  0.
         13    1    3    3    0    0  0.16001302904E+03  0.12496313290E+04 -0.10190500040E+04  0.16203843799E+04  0.00000000000E+00 0.  1.
        -13    1    3    3    0    0  0.86159644810E+01  0.57308451333E+03 -0.45656469347E+03  0.73276968659E+03  0.00000000000E+00 0. -1.
         22    1    1    2    0    0 -0.16862899352E+03 -0.18227158424E+04 -0.14452445697E+04  0.23322651320E+04  0.00000000000E+00 0.  1.
<mgrwt>
<rscale>  0 0.36635685E+04</rscale>
<asrwt>0</asrwt>
<pdfrwt beam="1">  1        2 0.58509833E+00 0.36635685E+04</pdfrwt>
<pdfrwt beam="2">  1       -2 0.13573538E+00 0.36635685E+04</pdfrwt>
<totfact> 0.15369614E-01</totfact>
</mgrwt>
</event>
<event>
 6    1  0.1780144E-005  0.2985441E+04  0.7818608E-02  0.8247901E-01
         -1   -1    0    0    0  501 -0.00000000000E+00  0.00000000000E+00  0.24433515824E+04  0.24433515824E+04  0.00000000000E+00 0.  1.
          1   -1    0    0  501    0  0.00000000000E+00 -0.00000000000E+00 -0.91194981982E+03  0.91194981982E+03  0.00000000000E+00 0. -1.
         23    2    1    2    0    0 -0.14079153089E+04  0.23165324017E+03  0.28108155534E+03  0.14581484401E+04  0.10630753458E+03 0.  0.
         11    1    3    3    0    0 -0.10623621729E+04  0.15186589805E+03  0.17020663036E+03  0.10865757840E+04  0.00000000000E+00 0. -1.
        -11    1    3    3    0    0 -0.34555313607E+03  0.79787342125E+02  0.11087492498E+03  0.37157265615E+03  0.00000000000E+00 0.  1.
         22    1    1    2    0    0  0.14079153089E+04 -0.23165324017E+03  0.12503202072E+04  0.18971529621E+04  0.00000000000E+00 0.  1.
<mgrwt>
<rscale>  0 0.29854407E+04</rscale>
<asrwt>0</asrwt>
<pdfrwt beam="1">  1        1 0.14029997E+00 0.29854407E+04</pdfrwt>
<pdfrwt beam="2">  1       -1 0.37590024E+00 0.29854407E+04</pdfrwt>
<totfact> 0.15802075E-01</totfact>
</mgrwt>
</event>
<event>
 6    1  0.1780144E-005  0.1308369E+04  0.7818608E-02  0.9022955E-01
         -2   -1    0    0    0  501 -0.00000000000E+00  0.00000000000E+00  0.56348452604E+03  0.56348452604E+03  0.00000000000E+00 0.  1.
          2   -1    0    0  501    0  0.00000000000E+00 -0.00000000000E+00 -0.75948377015E+03  0.75948377015E+03  0.00000000000E+00 0. -1.
         23    2    1    2    0    0  0.23232797438E+03 -0.17745446660E+03  0.48970951136E+03  0.57754031663E+03  0.90945238617E+02 0.  0.
         13    1    3    3    0    0  0.11244883264E+03 -0.38577162266E+02  0.23831923832E+03  0.26632498337E+03  0.00000000000E+00 0. -1.
        -13    1    3    3    0    0  0.11987914174E+03 -0.13887730434E+03  0.25139027303E+03  0.31121533327E+03  0.00000000000E+00 0.  1.
         22    1    1    2    0    0 -0.23232797438E+03  0.17745446660E+03 -0.68570875547E+03  0.74542797957E+03  0.00000000000E+00 0. -1.
<mgrwt>
<rscale>  0 0.13083690E+04</rscale>
<asrwt>0</asrwt>
<pdfrwt beam="1">  1        2 0.11684366E+00 0.13083690E+04</pdfrwt>
<pdfrwt beam="2">  1       -2 0.86689927E-01 0.13083690E+04</pdfrwt>
<totfact> 0.41645635E+01</totfact>
</mgrwt>
</event>
<event>
 6    1  0.1780144E-005  0.2659314E+04  0.7818608E-02  0.8348328E-01
         -2   -1    0    0    0  501 -0.00000000000E+00  0.00000000000E+00  0.20617206949E+04  0.20617206949E+04  0.00000000000E+00 0.  1.
          2   -1    0    0  501    0  0.00000000000E+00 -0.00000000000E+00 -0.85753045338E+03  0.85753045338E+03  0.00000000000E+00 0. -1.
         23    2    1    2    0    0  0.11069393442E+04 -0.51177481676E+03  0.11802544752E+04  0.16994966256E+04  0.89777388609E+02 0.  0.
         11    1    3    3    0    0  0.36005761857E+03 -0.12145871611E+03  0.35643712648E+03  0.52100012816E+03  0.00000000000E+00 0.  1.
        -11    1    3    3    0    0  0.74688172561E+03 -0.39031610066E+03  0.82381734868E+03  0.11784964974E+04  0.00000000000E+00 0. -1.
         22    1    1    2    0    0 -0.11069393442E+04  0.51177481676E+03  0.23935766374E+02  0.12197545227E+04  0.00000000000E+00 0. -1.
<mgrwt>
<rscale>  0 0.26593144E+04</rscale>
<asrwt>0</asrwt>
<pdfrwt beam="1">  1        2 0.13192776E+00 0.26593144E+04</pdfrwt>
<pdfrwt beam="2">  1       -2 0.31718780E+00 0.26593144E+04</pdfrwt>
<totfact> 0.68793768E-01</totfact>
</mgrwt>
</event>
<event>
 6    1  0.1780144E-005  0.3114394E+04  0.7818608E-02  0.8211799E-01
          2   -1    0    0  501    0  0.00000000000E+00  0.00000000000E+00  0.10731278079E+04  0.10731278079E+04  0.00000000000E+00 0. -1.
         -2   -1    0    0    0  501 -0.00000000000E+00 -0.00000000000E+00 -0.22596207247E+04  0.22596207247E+04  0.00000000000E+00 0.  1.
         23    2    1    2    0    0 -0.21958087672E+03  0.10285591038E+02 -0.22419318471E+04  0.22546609246E+04  0.94424167223E+02 0.  0.
         13    1    3    3    0    0 -0.13551694863E+03  0.45169811722E+02 -0.15904922344E+04  0.15968940801E+04  0.00000000000E+00 0. -1.
        -13    1    3    3    0    0 -0.84063928081E+02 -0.34884220684E+02 -0.65143961264E+03  0.65776684454E+03  0.00000000000E+00 0.  1.
         22    1    1    2    0    0  0.21958087672E+03 -0.10285591038E+02  0.10554389303E+04  0.10780876080E+04  0.00000000000E+00 0. -1.
<mgrwt>
<rscale>  0 0.31143936E+04</rscale>
<asrwt>0</asrwt>
<pdfrwt beam="1">  1        2 0.16509659E+00 0.31143936E+04</pdfrwt>
<pdfrwt beam="2">  1       -2 0.34763396E+00 0.31143936E+04</pdfrwt>
<totfact> 0.30902817E-01</totfact>
</mgrwt>
</event>
<event>
 6    1  0.2816619E-005  0.3830399E+04  0.7818608E-02  0.8039663E-01
         -2   -1    0    0    0  501 -0.00000000000E+00  0.00000000000E+00  0.12640030816E+04  0.12640030816E+04  0.00000000000E+00 0.  1.
          2   -1    0    0  501    0  0.00000000000E+00 -0.00000000000E+00 -0.29018823609E+04  0.29018823609E+04  0.00000000000E+00 0. -1.
         23    2    1    2    0    0 -0.11953809634E+03 -0.95563607295E+03  0.98029559400E+03  0.13761956161E+04  0.73520485773E+02 0.  0.
         11    1    3    3    0    0 -0.39860340817E+02 -0.58136402727E+03  0.57002167041E+03  0.81516727345E+03  0.00000000000E+00 0. -1.
        -11    1    3    3    0    0 -0.79677755521E+02 -0.37427204568E+03  0.41027392360E+03  0.56102834267E+03  0.00000000000E+00 0.  1.
         22    1    1    2    0    0  0.11953809634E+03  0.95563607295E+03 -0.26181748733E+04  0.27896898264E+04  0.00000000000E+00 0. -1.
<mgrwt>
<rscale>  0 0.38303985E+04</rscale>
<asrwt>0</asrwt>
<pdfrwt beam="1">  1        2 0.44644344E+00 0.38303985E+04</pdfrwt>
<pdfrwt beam="2">  1       -2 0.19446201E+00 0.38303985E+04</pdfrwt>
<totfact> 0.23179745E-01</totfact>
</mgrwt>
</event>
<event>
 6    1  0.1780144E-005  0.1749958E+04  0.7818608E-02  0.8733373E-01
          2   -1    0    0  501    0  0.00000000000E+00  0.00000000000E+00  0.32091850879E+04  0.32091850879E+04  0.00000000000E+00 0. -1.
         -2   -1    0    0    0  501 -0.00000000000E+00 -0.00000000000E+00 -0.23856164563E+03  0.23856164563E+03  0.00000000000E+00 0.  1.
         23    2    1    2    0    0 -0.25357451548E+03 -0.44908045941E+03  0.28760583473E+04  0.29234225484E+04  0.93351406770E+02 0.  0.
         11    1    3    3    0    0 -0.13082397848E+03 -0.28401638741E+03  0.19389598080E+04  0.19640125659E+04  0.00000000000E+00 0.  1.
        -11    1    3    3    0    0 -0.12275053701E+03 -0.16506407200E+03  0.93709853930E+03  0.95940998252E+03  0.00000000000E+00 0. -1.
         22    1    1    2    0    0  0.25357451548E+03  0.44908045941E+03  0.94565094888E+02  0.52432418512E+03  0.00000000000E+00 0.  1.
<mgrwt>
<rscale>  0 0.17499583E+04</rscale>
<asrwt>0</asrwt>
<pdfrwt beam="1">  1        2 0.49372075E+00 0.17499583E+04</pdfrwt>
<pdfrwt beam="2">  1       -2 0.36701794E-01 0.17499583E+04</pdfrwt>
<totfact> 0.85279246E+00</totfact>
</mgrwt>
</event>
<event>
 6    1  0.1780144E-005  0.1414346E+04  0.7818608E-02  0.8943499E-01
          1   -1    0    0  501    0  0.00000000000E+00  0.00000000000E+00  0.37381006236E+03  0.37381006236E+03  0.00000000000E+00 0. -1.
         -1   -1    0    0    0  501 -0.00000000000E+00 -0.00000000000E+00 -0.13378290327E+04  0.13378290327E+04  0.00000000000E+00 0.  1.
         23    2    1    2    0    0 -0.12016845923E+03 -0.22944936876E+03  0.30851908434E+03  0.41300882742E+03  0.91130646380E+02 0.  0.
         13    1    3    3    0    0 -0.10172778367E+03 -0.23436518213E+03  0.28678888725E+03  0.38408781082E+03  0.00000000000E+00 0. -1.
        -13    1    3    3    0    0 -0.18440675557E+02  0.49158133711E+01  0.21730197086E+02  0.28921016606E+02  0.00000000000E+00 0.  1.
         22    1    1    2    0    0  0.12016845923E+03  0.22944936876E+03 -0.12725380547E+04  0.12986302676E+04  0.00000000000E+00 0.  1.
<mgrwt>
<rscale>  0 0.14143464E+04</rscale>
<asrwt>0</asrwt>
<pdfrwt beam="1">  1        1 0.57509241E-01 0.14143464E+04</pdfrwt>
<pdfrwt beam="2">  1       -1 0.20581985E+00 0.14143464E+04</pdfrwt>
<totfact> 0.87769161E+00</totfact>
</mgrwt>
</event>
<event>
 6    1  0.1780144E-005  0.6593108E+04  0.7818608E-02  0.7620919E-01
         -2   -1    0    0    0  501 -0.00000000000E+00  0.00000000000E+00  0.27223868067E+04  0.27223868067E+04  0.00000000000E+00 0.  1.
          2   -1    0    0  501    0  0.00000000000E+00 -0.00000000000E+00 -0.39918164445E+04  0.39918164445E+04  0.00000000000E+00 0. -1.
         23    2    1    2    0    0  0.18758412380E+04  0.12654506974E+04 -0.30752702127E+04  0.38191719906E+04  0.92962331881E+02 0.  0.
         13    1    3    3    0    0  0.10607329238E+04  0.77071614553E+03 -0.17874148240E+04  0.22167565192E+04  0.00000000000E+00 0. -1.
        -13    1    3    3    0    0  0.81510831414E+03  0.49473455189E+03 -0.12878553887E+04  0.16024154713E+04  0.00000000000E+00 0.  1.
         22    1    1    2    0    0 -0.18758412380E+04 -0.12654506974E+04  0.18058405749E+04  0.28950312605E+04  0.00000000000E+00 0.  1.
<mgrwt>
<rscale>  0 0.65931080E+04</rscale>
<asrwt>0</asrwt>
<pdfrwt beam="1">  1        2 0.61412561E+00 0.65931080E+04</pdfrwt>
<pdfrwt beam="2">  1       -2 0.41882874E+00 0.65931080E+04</pdfrwt>
<totfact> 0.12432722E-03</totfact>
</mgrwt>
</event>
<event>
 6    1  0.1780144E-005  0.2434136E+04  0.7818608E-02  0.8426833E-01
         -2   -1    0    0    0  501 -0.00000000000E+00  0.00000000000E+00  0.55610389729E+03  0.55610389729E+03  0.00000000000E+00 0. -1.
          2   -1    0    0  501    0  0.00000000000E+00 -0.00000000000E+00 -0.26636292157E+04  0.26636292157E+04  0.00000000000E+00 0.  1.
         23    2    1    2    0    0  0.55857471627E+03 -0.10016137421E+04 -0.52387289335E+03  0.12644349758E+04  0.95484017668E+02 0.  0.
         11    1    3    3    0    0  0.23478865609E+03 -0.50292661227E+03 -0.22418984057E+03  0.59860001251E+03  0.00000000000E+00 0.  1.
        -11    1    3    3    0    0  0.32378606018E+03 -0.49868712981E+03 -0.29968305277E+03  0.66583496328E+03  0.00000000000E+00 0. -1.
         22    1    1    2    0    0 -0.55857471627E+03  0.10016137421E+04 -0.15836524251E+04  0.19552981372E+04  0.00000000000E+00 0.  1.
<mgrwt>
<rscale>  0 0.24341361E+04</rscale>
<asrwt>0</asrwt>
<pdfrwt beam="1">  1        2 0.40978911E+00 0.24341361E+04</pdfrwt>
<pdfrwt beam="2">  1       -2 0.85554446E-01 0.24341361E+04</pdfrwt>
<totfact> 0.29711121E+00</totfact>
</mgrwt>
</event>
<event>
 6    1  0.2776588E-005  0.3568342E+04  0.7818608E-02  0.8097782E-01
          1   -1    0    0  501    0  0.00000000000E+00  0.00000000000E+00  0.26044838527E+04  0.26044838527E+04  0.00000000000E+00 0. -1.
         -1   -1    0    0    0  501 -0.00000000000E+00 -0.00000000000E+00 -0.12222252404E+04  0.12222252404E+04  0.00000000000E+00 0.  1.
         23    2    1    2    0    0  0.10889356158E+03  0.13478660959E+04  0.19380250094E+04  0.23646977701E+04  0.85169164543E+02 0.  0.
         13    1    3    3    0    0  0.83755592305E+02  0.77387255876E+03  0.10510707013E+04  0.13079156531E+04  0.00000000000E+00 0.  1.
        -13    1    3    3    0    0  0.25137969279E+02  0.57399353714E+03  0.88695430809E+03  0.10567821170E+04  0.00000000000E+00 0. -1.
         22    1    1    2    0    0 -0.10889356158E+03 -0.13478660959E+04 -0.55576639709E+03  0.14620113229E+04  0.00000000000E+00 0.  1.
<mgrwt>
<rscale>  0 0.35683419E+04</rscale>
<asrwt>0</asrwt>
<pdfrwt beam="1">  1        1 0.40068982E+00 0.35683419E+04</pdfrwt>
<pdfrwt beam="2">  1       -1 0.18803465E+00 0.35683419E+04</pdfrwt>
<totfact> 0.16947508E-01</totfact>
</mgrwt>
</event>
<event>
 6    1  0.1780144E-005  0.2153467E+04  0.7818608E-02  0.8538050E-01
          2   -1    0    0  501    0  0.00000000000E+00  0.00000000000E+00  0.11212142027E+04  0.11212142027E+04  0.00000000000E+00 0. -1.
         -2   -1    0    0    0  501 -0.00000000000E+00 -0.00000000000E+00 -0.10340169694E+04  0.10340169694E+04  0.00000000000E+00 0.  1.
         23    2    1    2    0    0  0.64651962599E+03 -0.49777208855E+03 -0.65521802549E+03  0.10520788274E+04  0.10860257469E+03 0.  0.
         13    1    3    3    0    0  0.59049946459E+03 -0.42342859064E+03 -0.60933108077E+03  0.94829623802E+03  0.00000000000E+00 0.  1.
        -13    1    3    3    0    0  0.56020161394E+02 -0.74343497907E+02 -0.45886944722E+02  0.10378258939E+03  0.00000000000E+00 0. -1.
         22    1    1    2    0    0 -0.64651962599E+03  0.49777208855E+03  0.74241525880E+03  0.11031523446E+04  0.00000000000E+00 0. -1.
<mgrwt>
<rscale>  0 0.21534665E+04</rscale>
<asrwt>0</asrwt>
<pdfrwt beam="1">  1        2 0.17249449E+00 0.21534665E+04</pdfrwt>
<pdfrwt beam="2">  1       -2 0.15907953E+00 0.21534665E+04</pdfrwt>
<totfact> 0.49633429E+00</totfact>
</mgrwt>
</event>
<event>
 6    1  0.1780144E-005  0.3152081E+04  0.7818608E-02  0.8201588E-01
         -2   -1    0    0    0  501 -0.00000000000E+00  0.00000000000E+00  0.14226774574E+04  0.14226774574E+04  0.00000000000E+00 0.  1.
          2   -1    0    0  501    0  0.00000000000E+00 -0.00000000000E+00 -0.17459353934E+04  0.17459353934E+04  0.00000000000E+00 0. -1.
         23    2    1    2    0    0  0.13911862684E+04 -0.38229992687E+03  0.47260865421E+03  0.15209004679E+04  0.90701851950E+02 0.  0.
         13    1    3    3    0    0  0.35405267022E+03 -0.12577160081E+03  0.92893204204E+02  0.38704125910E+03  0.00000000000E+00 0.  1.
        -13    1    3    3    0    0  0.10371335982E+04 -0.25652832605E+03  0.37971545000E+03  0.11338592088E+04  0.00000000000E+00 0. -1.
         22    1    1    2    0    0 -0.13911862684E+04  0.38229992687E+03 -0.79586659023E+03  0.16477123829E+04  0.00000000000E+00 0. -1.
<mgrwt>
<rscale>  0 0.31520805E+04</rscale>
<asrwt>0</asrwt>
<pdfrwt beam="1">  1        2 0.26860544E+00 0.31520805E+04</pdfrwt>
<pdfrwt beam="2">  1       -2 0.21887346E+00 0.31520805E+04</pdfrwt>
<totfact> 0.78548162E-01</totfact>
</mgrwt>
</event>
<event>
 6    1  0.1780144E-005  0.3540562E+04  0.7818608E-02  0.8104244E-01
          1   -1    0    0  501    0  0.00000000000E+00  0.00000000000E+00  0.36839434678E+04  0.36839434678E+04  0.00000000000E+00 0. -1.
         -1   -1    0    0    0  501 -0.00000000000E+00 -0.00000000000E+00 -0.85069002276E+03  0.85069002276E+03  0.00000000000E+00 0.  1.
         23    2    1    2    0    0 -0.14333749060E+04  0.96414758786E+03  0.92863074081E+03  0.19633046828E+04  0.89811093292E+02 0.  0.
         13    1    3    3    0    0 -0.11909251267E+04  0.76141756143E+03  0.74640483134E+03  0.15984928941E+04  0.00000000000E+00 0.  1.
        -13    1    3    3    0    0 -0.24244977923E+03  0.20273002643E+03  0.18222590947E+03  0.36481178866E+03  0.00000000000E+00 0. -1.
         22    1    1    2    0    0  0.14333749060E+04 -0.96414758786E+03  0.19046227043E+04  0.25713288078E+04  0.00000000000E+00 0. -1.
<mgrwt>
<rscale>  0 0.35405615E+04</rscale>
<asrwt>0</asrwt>
<pdfrwt beam="1">  1        1 0.56676052E+00 0.35405615E+04</pdfrwt>
<pdfrwt beam="2">  1       -1 0.13087539E+00 0.35405615E+04</pdfrwt>
<totfact> 0.71958199E-02</totfact>
</mgrwt>
</event>
<event>
 6    1  0.2028698E-005  0.3685258E+04  0.7818608E-02  0.8071237E-01
          2   -1    0    0  501    0  0.00000000000E+00  0.00000000000E+00  0.19726533134E+04  0.19726533134E+04  0.00000000000E+00 0.  1.
         -2   -1    0    0    0  501 -0.00000000000E+00 -0.00000000000E+00 -0.17211752495E+04  0.17211752495E+04  0.00000000000E+00 0. -1.
         23    2    1    2    0    0  0.97777997741E+03  0.15377865930E+04 -0.14039570770E+03  0.18298526127E+04  0.88364810498E+02 0.  0.
         13    1    3    3    0    0  0.22704068258E+03  0.41755298204E+03 -0.15308290955E+02  0.47553370872E+03  0.00000000000E+00 0.  1.
        -13    1    3    3    0    0  0.75073929483E+03  0.11202336109E+04 -0.12508741674E+03  0.13543189040E+04  0.00000000000E+00 0. -1.
         22    1    1    2    0    0 -0.97777997741E+03 -0.15377865930E+04  0.39187377160E+03  0.18639759501E+04  0.00000000000E+00 0.  1.
<mgrwt>
<rscale>  0 0.36852582E+04</rscale>
<asrwt>0</asrwt>
<pdfrwt beam="1">  1        2 0.30348512E+00 0.36852582E+04</pdfrwt>
<pdfrwt beam="2">  1       -2 0.26479619E+00 0.36852582E+04</pdfrwt>
<totfact> 0.29207603E-01</totfact>
</mgrwt>
</event>
<event>
 6    1  0.1780144E-005  0.8998501E+03  0.7818608E-02  0.9425769E-01
         -2   -1    0    0    0  501 -0.00000000000E+00  0.00000000000E+00  0.28749195660E+03  0.28749195660E+03  0.00000000000E+00 0.  1.
          2   -1    0    0  501    0  0.00000000000E+00 -0.00000000000E+00 -0.70413298700E+03  0.70413298700E+03  0.00000000000E+00 0. -1.
         23    2    1    2    0    0 -0.48878374189E+02 -0.30068659966E+03  0.14710639147E+03  0.35083427392E+03  0.92967040755E+02 0.  0.
         11    1    3    3    0    0 -0.64094995417E+02 -0.17831700804E+03  0.12089218759E+03  0.22476664524E+03  0.00000000000E+00 0.  1.
        -11    1    3    3    0    0  0.15216621227E+02 -0.12236959163E+03  0.26214203881E+02  0.12606762868E+03  0.00000000000E+00 0. -1.
         22    1    1    2    0    0  0.48878374189E+02  0.30068659966E+03 -0.56374742187E+03  0.64079066968E+03  0.00000000000E+00 0. -1.
<mgrwt>
<rscale>  0 0.89985014E+03</rscale>
<asrwt>0</asrwt>
<pdfrwt beam="1">  1        2 0.10832815E+00 0.89985014E+03</pdfrwt>
<pdfrwt beam="2">  1       -2 0.44229533E-01 0.89985014E+03</pdfrwt>
<totfact> 0.19769492E+02</totfact>
</mgrwt>
</event>
<event>
 6    1  0.1780144E-005  0.3202249E+04  0.7818608E-02  0.8188223E-01
         -2   -1    0    0    0  501 -0.00000000000E+00  0.00000000000E+00  0.86685500322E+03  0.86685500322E+03  0.00000000000E+00 0.  1.
          2   -1    0    0  501    0  0.00000000000E+00 -0.00000000000E+00 -0.29573572390E+04  0.29573572390E+04  0.00000000000E+00 0. -1.
         23    2    1    2    0    0 -0.75242398659E+03 -0.24568440080E+03 -0.27064116881E+04  0.28212929365E+04  0.92341364321E+02 0.  0.
         13    1    3    3    0    0 -0.55221147676E+03 -0.22034753128E+03 -0.20643333341E+04  0.21482464160E+04  0.00000000000E+00 0. -1.
        -13    1    3    3    0    0 -0.20021250982E+03 -0.25336869525E+02 -0.64207835398E+03  0.67304652046E+03  0.00000000000E+00 0.  1.
         22    1    1    2    0    0  0.75242398659E+03  0.24568440080E+03  0.61590945232E+03  0.10029193057E+04  0.00000000000E+00 0.  1.
<mgrwt>
<rscale>  0 0.32022492E+04</rscale>
<asrwt>0</asrwt>
<pdfrwt beam="1">  1        2 0.45497803E+00 0.32022492E+04</pdfrwt>
<pdfrwt beam="2">  1       -2 0.13336231E+00 0.32022492E+04</pdfrwt>
<totfact> 0.63395092E-01</totfact>
</mgrwt>
</event>
<event>
 6    1  0.1780144E-005  0.9358205E+03  0.7818608E-02  0.9381880E-01
         -1   -1    0    0    0  501 -0.00000000000E+00  0.00000000000E+00  0.18819560608E+03  0.18819560608E+03  0.00000000000E+00 0.  1.
          1   -1    0    0  501    0  0.00000000000E+00 -0.00000000000E+00 -0.11633640254E+04  0.11633640254E+04  0.00000000000E+00 0. -1.
         23    2    1    2    0    0 -0.19572747943E+03 -0.16434441968E+03 -0.10505243871E+04  0.10851072786E+04  0.92401209654E+02 0.  0.
         11    1    3    3    0    0 -0.50553097769E+02 -0.10034034640E+02 -0.11709705158E+03  0.12793755130E+03  0.00000000000E+00 0.  1.
        -11    1    3    3    0    0 -0.14517438166E+03 -0.15431038504E+03 -0.93342733555E+03  0.95716972726E+03  0.00000000000E+00 0. -1.
         22    1    1    2    0    0  0.19572747943E+03  0.16434441968E+03  0.75355967832E+02  0.26645235291E+03  0.00000000000E+00 0.  1.
<mgrwt>
<rscale>  0 0.93582049E+03</rscale>
<asrwt>0</asrwt>
<pdfrwt beam="1">  1        1 0.17897908E+00 0.93582049E+03</pdfrwt>
<pdfrwt beam="2">  1       -1 0.28953170E-01 0.93582049E+03</pdfrwt>
<totfact> 0.12406683E+02</totfact>
</mgrwt>
</event>
<event>
 6    1  0.1780144E-005  0.1299745E+04  0.7818608E-02  0.9029768E-01
          2   -1    0    0  501    0  0.00000000000E+00  0.00000000000E+00  0.26395241403E+04  0.26395241403E+04  0.00000000000E+00 0. -1.
         -2   -1    0    0    0  501 -0.00000000000E+00 -0.00000000000E+00 -0.16000389814E+03  0.16000389814E+03  0.00000000000E+00 0.  1.
         23    2    1    2    0    0 -0.14960838515E+03  0.43322570092E+03  0.22286003597E+04  0.22770072597E+04  0.89639948200E+02 0.  0.
         13    1    3    3    0    0 -0.15570068830E+03  0.37090224461E+03  0.19956285393E+04  0.20357663045E+04  0.00000000000E+00 0.  1.
        -13    1    3    3    0    0  0.60923031577E+01  0.62323456317E+02  0.23297182040E+03  0.24124095520E+03  0.00000000000E+00 0. -1.
         22    1    1    2    0    0  0.14960838515E+03 -0.43322570092E+03  0.25091988242E+03  0.52252077877E+03  0.00000000000E+00 0.  1.
<mgrwt>
<rscale>  0 0.12997448E+04</rscale>
<asrwt>0</asrwt>
<pdfrwt beam="1">  1        2 0.40608061E+00 0.12997448E+04</pdfrwt>
<pdfrwt beam="2">  1       -2 0.24615986E-01 0.12997448E+04</pdfrwt>
<totfact> 0.41980314E+01</totfact>
</mgrwt>
</event>
<event>
 6    1  0.1780144E-005  0.3777311E+04  0.7818608E-02  0.8051041E-01
          2   -1    0    0  501    0  0.00000000000E+00  0.00000000000E+00  0.26142263272E+04  0.26142263272E+04  0.00000000000E+00 0. -1.
         -2   -1    0    0    0  501 -0.00000000000E+00 -0.00000000000E+00 -0.13644649192E+04  0.13644649192E+04  0.00000000000E+00 0.  1.
         23    2    1    2    0    0 -0.47039679891E+02 -0.13325177063E+04  0.20326946205E+04  0.24324698573E+04  0.85123543088E+02 0.  0.
         13    1    3    3    0    0 -0.20584784171E+02 -0.69402105192E+03  0.98122133864E+03  0.12020333894E+04  0.00000000000E+00 0. -1.
        -13    1    3    3    0    0 -0.26454895720E+02 -0.63849665436E+03  0.10514732818E+04  0.12304364679E+04  0.00000000000E+00 0.  1.
         22    1    1    2    0    0  0.47039679891E+02  0.13325177063E+04 -0.78293321242E+03  0.15462213891E+04  0.00000000000E+00 0.  1.
<mgrwt>
<rscale>  0 0.37773113E+04</rscale>
<asrwt>0</asrwt>
<pdfrwt beam="1">  1        2 0.40218867E+00 0.37773113E+04</pdfrwt>
<pdfrwt beam="2">  1       -2 0.20991768E+00 0.37773113E+04</pdfrwt>
<totfact> 0.27489115E-01</totfact>
</mgrwt>
</event>
<event>
 6    1  0.1780144E-005  0.1485128E+04  0.7818608E-02  0.8894403E-01
          1   -1    0    0  501    0  0.00000000000E+00  0.00000000000E+00  0.13245518277E+04  0.13245518277E+04  0.00000000000E+00 0.  1.
         -1   -1    0    0    0  501 -0.00000000000E+00 -0.00000000000E+00 -0.41629268306E+03  0.41629268306E+03  0.00000000000E+00 0. -1.
         23    2    1    2    0    0  0.39990308920E+03  0.58372250843E+03  0.20249967147E+03  0.74146926512E+03  0.90089436476E+02 0.  0.
         11    1    3    3    0    0  0.18840809205E+03  0.23471137077E+03  0.46356526818E+02  0.30452580235E+03  0.00000000000E+00 0.  1.
        -11    1    3    3    0    0  0.21149499715E+03  0.34901113766E+03  0.15614314465E+03  0.43694346277E+03  0.00000000000E+00 0. -1.
         22    1    1    2    0    0 -0.39990308920E+03 -0.58372250843E+03  0.70575947314E+03  0.99937524561E+03  0.00000000000E+00 0.  1.
<mgrwt>
<rscale>  0 0.14851279E+04</rscale>
<asrwt>0</asrwt>
<pdfrwt beam="1">  1        1 0.20377720E+00 0.14851279E+04</pdfrwt>
<pdfrwt beam="2">  1       -1 0.64045029E-01 0.14851279E+04</pdfrwt>
<totfact> 0.20802486E+01</totfact>
</mgrwt>
</event>
<event>
 6    1  0.1780144E-005  0.3856778E+04  0.7818608E-02  0.8034079E-01
          1   -1    0    0  501    0  0.00000000000E+00  0.00000000000E+00  0.17098226886E+04  0.17098226886E+04  0.00000000000E+00 0. -1.
         -1   -1    0    0    0  501 -0.00000000000E+00 -0.00000000000E+00 -0.21748941911E+04  0.21748941911E+04  0.00000000000E+00 0.  1.
         23    2    1    2    0    0  0.72844642673E+03  0.61477242521E+03  0.14545912210E+04  0.17414286809E+04  0.90326625270E+02 0.  0.
         13    1    3    3    0    0  0.40014457960E+03  0.31911966306E+03  0.70251562678E+03  0.86918424388E+03  0.00000000000E+00 0.  1.
        -13    1    3    3    0    0  0.32830184713E+03  0.29565276215E+03  0.75207559418E+03  0.87224443704E+03  0.00000000000E+00 0. -1.
         22    1    1    2    0    0 -0.72844642673E+03 -0.61477242521E+03 -0.19196627234E+04  0.21432881988E+04  0.00000000000E+00 0.  1.
<mgrwt>
<rscale>  0 0.38567776E+04</rscale>
<asrwt>0</asrwt>
<pdfrwt beam="1">  1        1 0.26304964E+00 0.38567776E+04</pdfrwt>
<pdfrwt beam="2">  1       -1 0.33459911E+00 0.38567776E+04</pdfrwt>
<totfact> 0.72960510E-02</totfact>
</mgrwt>
</event>
<event>
 6    1  0.1780144E-005  0.3582230E+04  0.7818608E-02  0.8094574E-01
         -2   -1    0    0    0  501 -0.00000000000E+00  0.00000000000E+00  0.14077393267E+04  0.14077393267E+04  0.00000000000E+00 0.  1.
          2   -1    0    0  501    0  0.00000000000E+00 -0.00000000000E+00 -0.22788967499E+04  0.22788967499E+04  0.00000000000E+00 0. -1.
         23    2    1    2    0    0 -0.13529379998E+04 -0.98548839569E+03 -0.10885247023E+04  0.19987743691E+04  0.92651723891E+02 0.  0.
         13    1    3    3    0    0 -0.34834111703E+03 -0.22567474441E+03 -0.30965958835E+03  0.51784137024E+03  0.00000000000E+00 0. -1.
        -13    1    3    3    0    0 -0.10045968828E+04 -0.75981365128E+03 -0.77886511392E+03  0.14809329989E+04  0.00000000000E+00 0.  1.
         22    1    1    2    0    0  0.13529379998E+04  0.98548839569E+03  0.21736727906E+03  0.16878617074E+04  0.00000000000E+00 0.  1.
<mgrwt>
<rscale>  0 0.35822298E+04</rscale>
<asrwt>0</asrwt>
<pdfrwt beam="1">  1        2 0.35059950E+00 0.35822298E+04</pdfrwt>
<pdfrwt beam="2">  1       -2 0.21657528E+00 0.35822298E+04</pdfrwt>
<totfact> 0.39528591E-01</totfact>
</mgrwt>
</event>
<event>
 6    1  0.1780144E-005  0.7556450E+04  0.7818608E-02  0.7522621E-01
          2   -1    0    0  501    0  0.00000000000E+00  0.00000000000E+00  0.38384249339E+04  0.38384249339E+04  0.00000000000E+00 0. -1.
         -2   -1    0    0    0  501 -0.00000000000E+00 -0.00000000000E+00 -0.37189688161E+04  0.37189688161E+04  0.00000000000E+00 0.  1.
         23    2    1    2    0    0  0.31236167241E+04  0.21207937467E+04 -0.66165069041E+02  0.37772875636E+04  0.93680128892E+02 0.  0.
         13    1    3    3    0    0  0.21326249099E+04  0.14254130064E+04 -0.84497140462E+02  0.25665211887E+04  0.00000000000E+00 0. -1.
        -13    1    3    3    0    0  0.99099181423E+03  0.69538074028E+03  0.18332071421E+02  0.12107663749E+04  0.00000000000E+00 0.  1.
         22    1    1    2    0    0 -0.31236167241E+04 -0.21207937467E+04  0.18562118678E+03  0.37801061864E+04  0.00000000000E+00 0.  1.
<mgrwt>
<rscale>  0 0.75564496E+04</rscale>
<asrwt>0</asrwt>
<pdfrwt beam="1">  1        2 0.59052691E+00 0.75564496E+04</pdfrwt>
<pdfrwt beam="2">  1       -2 0.57214905E+00 0.75564496E+04</pdfrwt>
<totfact> 0.18781766E-04</totfact>
</mgrwt>
</event>
<event>
 6    1  0.1780144E-005  0.1824193E+04  0.7818608E-02  0.8693539E-01
          1   -1    0    0  501    0  0.00000000000E+00  0.00000000000E+00  0.45087534102E+03  0.45087534102E+03  0.00000000000E+00 0. -1.
         -1   -1    0    0    0  501 -0.00000000000E+00 -0.00000000000E+00 -0.18451224253E+04  0.18451224253E+04  0.00000000000E+00 0.  1.
         23    2    1    2    0    0  0.67937204535E+02 -0.86972109325E+03 -0.10239159717E+04  0.13482766171E+04  0.91736989888E+02 0.  0.
         13    1    3    3    0    0 -0.18427003928E+02 -0.33707193018E+03 -0.39372795988E+03  0.51863161009E+03  0.00000000000E+00 0. -1.
        -13    1    3    3    0    0  0.86364208463E+02 -0.53264916307E+03 -0.63018801179E+03  0.82964500699E+03  0.00000000000E+00 0.  1.
         22    1    1    2    0    0 -0.67937204535E+02  0.86972109325E+03 -0.37033111265E+03  0.94772114928E+03  0.00000000000E+00 0. -1.
<mgrwt>
<rscale>  0 0.18241932E+04</rscale>
<asrwt>0</asrwt>
<pdfrwt beam="1">  1        1 0.69365437E-01 0.18241932E+04</pdfrwt>
<pdfrwt beam="2">  1       -1 0.28386499E+00 0.18241932E+04</pdfrwt>
<totfact> 0.20219119E+00</totfact>
</mgrwt>
</event>
<event>
 6    1  0.1780144E-005  0.9518161E+03  0.7818608E-02  0.9363030E-01
          2   -1    0    0  501    0  0.00000000000E+00  0.00000000000E+00  0.91698647725E+03  0.91698647725E+03  0.00000000000E+00 0. -1.
         -2   -1    0    0    0  501 -0.00000000000E+00 -0.00000000000E+00 -0.24699217894E+03  0.24699217894E+03  0.00000000000E+00 0.  1.
         23    2    1    2    0    0 -0.30236437080E+03 -0.32619867275E+03  0.52907205964E+03  0.69740726382E+03  0.92897042492E+02 0.  0.
         11    1    3    3    0    0 -0.16544591020E+03 -0.11930602603E+03  0.20405282597E+03  0.28852007354E+03  0.00000000000E+00 0. -1.
        -11    1    3    3    0    0 -0.13691846060E+03 -0.20689264672E+03  0.32501923367E+03  0.40888719028E+03  0.00000000000E+00 0.  1.
         22    1    1    2    0    0  0.30236437080E+03  0.32619867275E+03  0.14092223867E+03  0.46657139237E+03  0.00000000000E+00 0. -1.
<mgrwt>
<rscale>  0 0.95181613E+03</rscale>
<asrwt>0</asrwt>
<pdfrwt beam="1">  1        2 0.14107484E+00 0.95181613E+03</pdfrwt>
<pdfrwt beam="2">  1       -2 0.37998797E-01 0.95181613E+03</pdfrwt>
<totfact> 0.18663851E+02</totfact>
</mgrwt>
</event>
<event>
 6    1  0.1780144E-005  0.3579512E+04  0.7818608E-02  0.8095201E-01
          2   -1    0    0  501    0  0.00000000000E+00  0.00000000000E+00  0.31443808359E+04  0.31443808359E+04  0.00000000000E+00 0. -1.
         -2   -1    0    0    0  501 -0.00000000000E+00 -0.00000000000E+00 -0.10187142854E+04  0.10187142854E+04  0.00000000000E+00 0.  1.
         23    2    1    2    0    0 -0.27962521290E+02 -0.99775318029E+03  0.27895780804E+04  0.29643158127E+04  0.95546110272E+02 0.  0.
         11    1    3    3    0    0 -0.18094153840E+02 -0.43465128755E+03  0.10783338726E+04  0.11627781736E+04  0.00000000000E+00 0. -1.
        -11    1    3    3    0    0 -0.98683674506E+01 -0.56310189274E+03  0.17112442079E+04  0.18015376391E+04  0.00000000000E+00 0.  1.
         22    1    1    2    0    0  0.27962521290E+02  0.99775318029E+03 -0.66391152993E+03  0.11987793087E+04  0.00000000000E+00 0.  1.
<mgrwt>
<rscale>  0 0.35795115E+04</rscale>
<asrwt>0</asrwt>
<pdfrwt beam="1">  1        2 0.48375089E+00 0.35795115E+04</pdfrwt>
<pdfrwt beam="2">  1       -2 0.15672528E+00 0.35795115E+04</pdfrwt>
<totfact> 0.30624556E-01</totfact>
</mgrwt>
</event>
<event>
 6    1  0.1780144E-005  0.1900151E+04  0.7818608E-02  0.8654781E-01
         -3   -1    0    0    0  501 -0.00000000000E+00  0.00000000000E+00  0.87890927808E+03  0.87890927808E+03  0.00000000000E+00 0.  1.
          3   -1    0    0  501    0  0.00000000000E+00 -0.00000000000E+00 -0.10270040435E+04  0.10270040435E+04  0.00000000000E+00 0. -1.
         23    2    1    2    0    0 -0.65405303590E+03  0.60354041531E+01 -0.76234426440E+03  0.10086261619E+04  0.91302558627E+02 0.  0.
         13    1    3    3    0    0 -0.22523123242E+03 -0.32489299161E+02 -0.30454039621E+03  0.38017037699E+03  0.00000000000E+00 0. -1.
        -13    1    3    3    0    0 -0.42882180348E+03  0.38524703314E+02 -0.45780386818E+03  0.62845578495E+03  0.00000000000E+00 0.  1.
         22    1    1    2    0    0  0.65405303590E+03 -0.60354041531E+01  0.61424949898E+03  0.89728715965E+03  0.00000000000E+00 0.  1.
<mgrwt>
<rscale>  0 0.19001509E+04</rscale>
<asrwt>0</asrwt>
<pdfrwt beam="1">  1        3 0.15800062E+00 0.19001509E+04</pdfrwt>
<pdfrwt beam="2">  1       -3 0.13521681E+00 0.19001509E+04</pdfrwt>
<totfact> 0.29089791E-01</totfact>
</mgrwt>
</event>
<event>
 6    1  0.1780144E-005  0.1488577E+04  0.7818608E-02  0.8892085E-01
         -1   -1    0    0    0  501 -0.00000000000E+00  0.00000000000E+00  0.16925620350E+04  0.16925620350E+04  0.00000000000E+00 0.  1.
          1   -1    0    0  501    0  0.00000000000E+00 -0.00000000000E+00 -0.32729394229E+03  0.32729394229E+03  0.00000000000E+00 0. -1.
         23    2    1    2    0    0  0.21871040517E+03 -0.66341549799E+03  0.10204766370E+04  0.12408594996E+04  0.10200669974E+03 0.  0.
         11    1    3    3    0    0  0.26737560987E+02 -0.21361258873E+03  0.35141266513E+03  0.41211175238E+03  0.00000000000E+00 0.  1.
        -11    1    3    3    0    0  0.19197284419E+03 -0.44980290927E+03  0.66906397184E+03  0.82874774721E+03  0.00000000000E+00 0. -1.
         22    1    1    2    0    0 -0.21871040517E+03  0.66341549799E+03  0.34479145570E+03  0.77899647767E+03  0.00000000000E+00 0.  1.
<mgrwt>
<rscale>  0 0.14885769E+04</rscale>
<asrwt>0</asrwt>
<pdfrwt beam="1">  1        1 0.50352915E-01 0.14885769E+04</pdfrwt>
<pdfrwt beam="2">  1       -1 0.26039415E+00 0.14885769E+04</pdfrwt>
<totfact> 0.45223889E+00</totfact>
</mgrwt>
</event>
<event>
 6    1  0.1780144E-005  0.1010352E+04  0.7818608E-02  0.9297263E-01
         -2   -1    0    0    0  501 -0.00000000000E+00  0.00000000000E+00  0.11614740952E+03  0.11614740952E+03  0.00000000000E+00 0.  1.
          2   -1    0    0  501    0  0.00000000000E+00 -0.00000000000E+00 -0.21972338261E+04  0.21972338261E+04  0.00000000000E+00 0. -1.
         23    2    1    2    0    0 -0.12358789738E+03 -0.48524363202E+03 -0.10738183527E+04  0.11885148865E+04  0.93522350865E+02 0.  0.
         11    1    3    3    0    0 -0.30753498883E+02 -0.27690888829E+03 -0.52908589155E+03  0.59796002437E+03  0.00000000000E+00 0.  1.
        -11    1    3    3    0    0 -0.92834398497E+02 -0.20833474373E+03 -0.54473246113E+03  0.59055486214E+03  0.00000000000E+00 0. -1.
         22    1    1    2    0    0  0.12358789738E+03  0.48524363202E+03 -0.10072680639E+04  0.11248663491E+04  0.00000000000E+00 0.  1.
<mgrwt>
<rscale>  0 0.10103524E+04</rscale>
<asrwt>0</asrwt>
<pdfrwt beam="1">  1        2 0.33803597E+00 0.10103524E+04</pdfrwt>
<pdfrwt beam="2">  1       -2 0.17868832E-01 0.10103524E+04</pdfrwt>
<totfact> 0.13541475E+02</totfact>
</mgrwt>
</event>
<event>
 6    1  0.1780144E-005  0.3049358E+04  0.7818608E-02  0.8229775E-01
         -1   -1    0    0    0  501 -0.00000000000E+00  0.00000000000E+00  0.17861616311E+04  0.17861616311E+04  0.00000000000E+00 0.  1.
          1   -1    0    0  501    0  0.00000000000E+00 -0.00000000000E+00 -0.13014755795E+04  0.13014755795E+04  0.00000000000E+00 0. -1.
         23    2    1    2    0    0 -0.11111318337E+04 -0.10165728924E+04  0.10721031326E+02  0.15088157394E+04  0.91518289996E+02 0.  0.
         11    1    3    3    0    0 -0.67593102788E+03 -0.58595383076E+03 -0.31680087986E+02  0.89511355380E+03  0.00000000000E+00 0. -1.
        -11    1    3    3    0    0 -0.43520080587E+03 -0.43061906169E+03  0.42401119311E+02  0.61370218563E+03  0.00000000000E+00 0.  1.
         22    1    1    2    0    0  0.11111318337E+04  0.10165728924E+04  0.47396502027E+03  0.15788214712E+04  0.00000000000E+00 0.  1.
<mgrwt>
<rscale>  0 0.30493578E+04</rscale>
<asrwt>0</asrwt>
<pdfrwt beam="1">  1        1 0.20022701E+00 0.30493578E+04</pdfrwt>
<pdfrwt beam="2">  1       -1 0.27479410E+00 0.30493578E+04</pdfrwt>
<totfact> 0.36781324E-01</totfact>
</mgrwt>
</event>
<event>
 6    1  0.1780144E-005  0.1916526E+04  0.7818608E-02  0.8646674E-01
          2   -1    0    0  501    0  0.00000000000E+00  0.00000000000E+00  0.88488695944E+03  0.88488695944E+03  0.00000000000E+00 0. -1.
         -2   -1    0    0    0  501 -0.00000000000E+00 -0.00000000000E+00 -0.10377239128E+04  0.10377239128E+04  0.00000000000E+00 0.  1.
         23    2    1    2    0    0 -0.67243706951E+03  0.72031337832E+02  0.60146650295E+03  0.90952951802E+03  0.90121384227E+02 0.  0.
         13    1    3    3    0    0 -0.24501875660E+03  0.51338800543E+02  0.27041862160E+03  0.36850521629E+03  0.00000000000E+00 0. -1.
        -13    1    3    3    0    0 -0.42741831291E+03  0.20692537289E+02  0.33104788134E+03  0.54102430172E+03  0.00000000000E+00 0.  1.
         22    1    1    2    0    0  0.67243706951E+03 -0.72031337832E+02 -0.75430345635E+03  0.10130813543E+04  0.00000000000E+00 0.  1.
<mgrwt>
<rscale>  0 0.19165264E+04</rscale>
<asrwt>0</asrwt>
<pdfrwt beam="1">  1        2 0.13613646E+00 0.19165264E+04</pdfrwt>
<pdfrwt beam="2">  1       -2 0.15964983E+00 0.19165264E+04</pdfrwt>
<totfact> 0.71139233E+00</totfact>
</mgrwt>
</event>
<event>
 6    1  0.1780144E-005  0.1268544E+04  0.7818608E-02  0.9054889E-01
          2   -1    0    0  501    0  0.00000000000E+00  0.00000000000E+00  0.13860171153E+04  0.13860171153E+04  0.00000000000E+00 0. -1.
         -2   -1    0    0    0  501 -0.00000000000E+00 -0.00000000000E+00 -0.29025665993E+03  0.29025665993E+03  0.00000000000E+00 0.  1.
         23    2    1    2    0    0 -0.30516698221E+03  0.28613376823E+03 -0.71293895170E+02  0.43650957286E+03  0.10226615942E+03 0.  0.
         11    1    3    3    0    0 -0.11094917674E+03  0.81819657622E+02 -0.70004043261E+02  0.15461158516E+03  0.00000000000E+00 0. -1.
        -11    1    3    3    0    0 -0.19421780547E+03  0.20431411061E+03 -0.12898519095E+01  0.28189798771E+03  0.00000000000E+00 0.  1.
         22    1    1    2    0    0  0.30516698221E+03 -0.28613376823E+03  0.11670543505E+04  0.12397642024E+04  0.00000000000E+00 0. -1.
<mgrwt>
<rscale>  0 0.12685436E+04</rscale>
<asrwt>0</asrwt>
<pdfrwt beam="1">  1        2 0.21323340E+00 0.12685436E+04</pdfrwt>
<pdfrwt beam="2">  1       -2 0.44654872E-01 0.12685436E+04</pdfrwt>
<totfact> 0.68832120E+01</totfact>
</mgrwt>
</event>
<event>
 6    1  0.1780144E-005  0.2520466E+04  0.7818608E-02  0.8395730E-01
         -2   -1    0    0    0  501 -0.00000000000E+00  0.00000000000E+00  0.41554947313E+03  0.41554947313E+03  0.00000000000E+00 0.  1.
          2   -1    0    0  501    0  0.00000000000E+00 -0.00000000000E+00 -0.38218974096E+04  0.38218974096E+04  0.00000000000E+00 0. -1.
         23    2    1    2    0    0 -0.39783805588E+03 -0.43771214429E+03  0.16204687336E+03  0.62036123834E+03  0.93390775327E+02 0.  0.
         13    1    3    3    0    0 -0.13074730371E+03 -0.19812613809E+03  0.36167714207E+02  0.24011856982E+03  0.00000000000E+00 0. -1.
        -13    1    3    3    0    0 -0.26709075217E+03 -0.23958600620E+03  0.12587915915E+03  0.38024266853E+03  0.00000000000E+00 0.  1.
         22    1    1    2    0    0  0.39783805588E+03  0.43771214429E+03 -0.35683948098E+04  0.36170856444E+04  0.00000000000E+00 0. -1.
<mgrwt>
<rscale>  0 0.25204662E+04</rscale>
<asrwt>0</asrwt>
<pdfrwt beam="1">  1        2 0.58798420E+00 0.25204662E+04</pdfrwt>
<pdfrwt beam="2">  1       -2 0.63930690E-01 0.25204662E+04</pdfrwt>
<totfact> 0.95421157E-01</totfact>
</mgrwt>
</event>
<event>
 6    1  0.1780144E-005  0.3186528E+04  0.7818608E-02  0.8192384E-01
         -2   -1    0    0    0  501 -0.00000000000E+00  0.00000000000E+00  0.96126512209E+03  0.96126512209E+03  0.00000000000E+00 0.  1.
          2   -1    0    0  501    0  0.00000000000E+00 -0.00000000000E+00 -0.26407800709E+04  0.26407800709E+04  0.00000000000E+00 0. -1.
         23    2    1    2    0    0 -0.13804292670E+04  0.18967760901E+03 -0.17107188208E+04  0.22082962061E+04  0.91927653869E+02 0.  0.
         11    1    3    3    0    0 -0.41039135449E+03  0.15441223658E+02 -0.51966494720E+03  0.66235274030E+03  0.00000000000E+00 0. -1.
        -11    1    3    3    0    0 -0.97003791255E+03  0.17423638536E+03 -0.11910538736E+04  0.15459434658E+04  0.00000000000E+00 0.  1.
         22    1    1    2    0    0  0.13804292670E+04 -0.18967760901E+03  0.31203872001E+02  0.13937489868E+04  0.00000000000E+00 0.  1.
<mgrwt>
<rscale>  0 0.31865278E+04</rscale>
<asrwt>0</asrwt>
<pdfrwt beam="1">  1        2 0.40627385E+00 0.31865278E+04</pdfrwt>
<pdfrwt beam="2">  1       -2 0.14788694E+00 0.31865278E+04</pdfrwt>
<totfact> 0.75486919E-01</totfact>
</mgrwt>
</event>
<event>
 6    1  0.1780144E-005  0.1684890E+04  0.7818608E-02  0.8770029E-01
          1   -1    0    0  501    0  0.00000000000E+00  0.00000000000E+00  0.65692907259E+03  0.65692907259E+03  0.00000000000E+00 0. -1.
         -1   -1    0    0    0  501 -0.00000000000E+00 -0.00000000000E+00 -0.10803505609E+04  0.10803505609E+04  0.00000000000E+00 0.  1.
         23    2    1    2    0    0 -0.20387584810E+03 -0.59568177529E+03  0.36018321171E+03  0.73207395068E+03  0.98985778874E+02 0.  0.
         13    1    3    3    0    0 -0.13399490246E+03 -0.39341548965E+03  0.18244363659E+03  0.45388992268E+03  0.00000000000E+00 0.  1.
        -13    1    3    3    0    0 -0.69880945637E+02 -0.20226628564E+03  0.17773957512E+03  0.27818402799E+03  0.00000000000E+00 0. -1.
         22    1    1    2    0    0  0.20387584810E+03  0.59568177529E+03 -0.78360469999E+03  0.10052056828E+04  0.00000000000E+00 0.  1.
<mgrwt>
<rscale>  0 0.16848901E+04</rscale>
<asrwt>0</asrwt>
<pdfrwt beam="1">  1        1 0.10106601E+00 0.16848901E+04</pdfrwt>
<pdfrwt beam="2">  1       -1 0.16620778E+00 0.16848901E+04</pdfrwt>
<totfact> 0.74977171E+00</totfact>
</mgrwt>
</event>
<event>
 6    1  0.1780144E-005  0.1019390E+04  0.7818608E-02  0.9287531E-01
          1   -1    0    0  501    0  0.00000000000E+00  0.00000000000E+00  0.35748058441E+03  0.35748058441E+03  0.00000000000E+00 0. -1.
         -1   -1    0    0    0  501 -0.00000000000E+00 -0.00000000000E+00 -0.72672130073E+03  0.72672130073E+03  0.00000000000E+00 0.  1.
         23    2    1    2    0    0  0.38229876141E+03  0.32505646153E+03 -0.25117374019E+03  0.56868868743E+03  0.92220004867E+02 0.  0.
         11    1    3    3    0    0  0.24760870316E+03  0.26491702004E+03 -0.18338857000E+03  0.40635263626E+03  0.00000000000E+00 0. -1.
        -11    1    3    3    0    0  0.13469005824E+03  0.60139441488E+02 -0.67785170192E+02  0.16233605117E+03  0.00000000000E+00 0.  1.
         22    1    1    2    0    0 -0.38229876141E+03 -0.32505646153E+03 -0.11806697612E+03  0.51551319770E+03  0.00000000000E+00 0.  1.
<mgrwt>
<rscale>  0 0.10193895E+04</rscale>
<asrwt>0</asrwt>
<pdfrwt beam="1">  1        1 0.54997014E-01 0.10193895E+04</pdfrwt>
<pdfrwt beam="2">  1       -1 0.11180328E+00 0.10193895E+04</pdfrwt>
<totfact> 0.51241919E+01</totfact>
</mgrwt>
</event>
<event>
 6    1  0.1780144E-005  0.1014281E+04  0.7818608E-02  0.9293019E-01
         -2   -1    0    0    0  501 -0.00000000000E+00  0.00000000000E+00  0.13547620357E+03  0.13547620357E+03  0.00000000000E+00 0.  1.
          2   -1    0    0  501    0  0.00000000000E+00 -0.00000000000E+00 -0.18984261014E+04  0.18984261014E+04  0.00000000000E+00 0. -1.
         23    2    1    2    0    0 -0.18572503176E+03  0.30318436833E+03 -0.16020869738E+04  0.16436569604E+04  0.92254990119E+02 0.  0.
         11    1    3    3    0    0 -0.15232255076E+03  0.28368074229E+03 -0.13085748844E+04  0.13476071947E+04  0.00000000000E+00 0.  1.
        -11    1    3    3    0    0 -0.33402480997E+02  0.19503626043E+02 -0.29351208944E+03  0.29604976577E+03  0.00000000000E+00 0. -1.
         22    1    1    2    0    0  0.18572503176E+03 -0.30318436833E+03 -0.16086292399E+03  0.39024534454E+03  0.00000000000E+00 0.  1.
<mgrwt>
<rscale>  0 0.10142811E+04</rscale>
<asrwt>0</asrwt>
<pdfrwt beam="1">  1        2 0.29206553E+00 0.10142811E+04</pdfrwt>
<pdfrwt beam="2">  1       -2 0.20842494E-01 0.10142811E+04</pdfrwt>
<totfact> 0.15119545E+02</totfact>
</mgrwt>
</event>
<event>
 6    1  0.1780144E-005  0.2344219E+04  0.7818608E-02  0.8460687E-01
          1   -1    0    0  501    0  0.00000000000E+00  0.00000000000E+00  0.17140228187E+04  0.17140228187E+04  0.00000000000E+00 0. -1.
         -1   -1    0    0    0  501 -0.00000000000E+00 -0.00000000000E+00 -0.80153004577E+03  0.80153004577E+03  0.00000000000E+00 0.  1.
         23    2    1    2    0    0  0.11540453762E+04  0.16649420395E+03  0.56648908738E+03  0.12993046987E+04  0.87987293119E+02 0.  0.
         11    1    3    3    0    0  0.82600881228E+03  0.12678693193E+03  0.36201760771E+03  0.91072621153E+03  0.00000000000E+00 0. -1.
        -11    1    3    3    0    0  0.32803656392E+03  0.39707272022E+02  0.20447147967E+03  0.38857848720E+03  0.00000000000E+00 0.  1.
         22    1    1    2    0    0 -0.11540453762E+04 -0.16649420395E+03  0.34600368558E+03  0.12162481658E+04  0.00000000000E+00 0. -1.
<mgrwt>
<rscale>  0 0.23442191E+04</rscale>
<asrwt>0</asrwt>
<pdfrwt beam="1">  1        1 0.26369582E+00 0.23442191E+04</pdfrwt>
<pdfrwt beam="2">  1       -1 0.12331232E+00 0.23442191E+04</pdfrwt>
<totfact> 0.24298909E+00</totfact>
</mgrwt>
</event>
<event>
 6    1  0.1780144E-005  0.1127983E+04  0.7818608E-02  0.9178339E-01
         -2   -1    0    0    0  501 -0.00000000000E+00  0.00000000000E+00  0.14726088959E+03  0.14726088959E+03  0.00000000000E+00 0.  1.
          2   -1    0    0  501    0  0.00000000000E+00 -0.00000000000E+00 -0.21600212383E+04  0.21600212383E+04  0.00000000000E+00 0. -1.
         23    2    1    2    0    0  0.42735130330E+03  0.25659809402E+03 -0.50142219505E+03  0.71586303381E+03  0.11208901467E+03 0.  0.
         13    1    3    3    0    0  0.28549212218E+03  0.15455100761E+03 -0.39487484180E+03  0.51119263146E+03  0.00000000000E+00 0.  1.
        -13    1    3    3    0    0  0.14185918113E+03  0.10204708641E+03 -0.10654735325E+03  0.20467040235E+03  0.00000000000E+00 0. -1.
         22    1    1    2    0    0 -0.42735130330E+03 -0.25659809402E+03 -0.15113381537E+04  0.15914190941E+04  0.00000000000E+00 0. -1.
<mgrwt>
<rscale>  0 0.11279834E+04</rscale>
<asrwt>0</asrwt>
<pdfrwt beam="1">  1        2 0.33231091E+00 0.11279834E+04</pdfrwt>
<pdfrwt beam="2">  1       -2 0.22655525E-01 0.11279834E+04</pdfrwt>
<totfact> 0.92673210E+01</totfact>
</mgrwt>
</event>
<event>
 6    1  0.1780144E-005  0.5003614E+04  0.7818608E-02  0.7827950E-01
          2   -1    0    0  501    0  0.00000000000E+00  0.00000000000E+00  0.25894311167E+04  0.25894311167E+04  0.00000000000E+00 0. -1.
         -2   -1    0    0    0  501 -0.00000000000E+00 -0.00000000000E+00 -0.24171477780E+04  0.24171477780E+04  0.00000000000E+00 0.  1.
         23    2    1    2    0    0 -0.20477987342E+04 -0.13878921247E+04  0.45407889753E+03  0.25167730905E+04  0.90746562156E+02 0.  0.
         13    1    3    3    0    0 -0.43604297629E+03 -0.32927025977E+03  0.12598287246E+03  0.56073528986E+03  0.00000000000E+00 0. -1.
        -13    1    3    3    0    0 -0.16117557579E+04 -0.10586218649E+04  0.32809602507E+03  0.19560378007E+04  0.00000000000E+00 0.  1.
         22    1    1    2    0    0  0.20477987342E+04  0.13878921247E+04 -0.28179555876E+03  0.24898058042E+04  0.00000000000E+00 0. -1.
<mgrwt>
<rscale>  0 0.50036138E+04</rscale>
<asrwt>0</asrwt>
<pdfrwt beam="1">  1        2 0.39837402E+00 0.50036138E+04</pdfrwt>
<pdfrwt beam="2">  1       -2 0.37186889E+00 0.50036138E+04</pdfrwt>
<totfact> 0.25381300E-02</totfact>
</mgrwt>
</event>
<event>
 6    1  0.1780144E-005  0.2201113E+04  0.7818608E-02  0.8517965E-01
          2   -1    0    0  501    0  0.00000000000E+00  0.00000000000E+00  0.13477758656E+04  0.13477758656E+04  0.00000000000E+00 0. -1.
         -2   -1    0    0    0  501 -0.00000000000E+00 -0.00000000000E+00 -0.89868418869E+03  0.89868418869E+03  0.00000000000E+00 0.  1.
         23    2    1    2    0    0  0.10273165426E+04 -0.30997076520E+03 -0.15521370236E+02  0.10771327103E+04  0.92264883944E+02 0.  0.
         11    1    3    3    0    0  0.30147766946E+03 -0.13434745393E+03 -0.13831276606E+02  0.33034728359E+03  0.00000000000E+00 0. -1.
        -11    1    3    3    0    0  0.72583887309E+03 -0.17562331127E+03 -0.16900936307E+01  0.74678542672E+03  0.00000000000E+00 0.  1.
         22    1    1    2    0    0 -0.10273165426E+04  0.30997076520E+03  0.46461304719E+03  0.11693273440E+04  0.00000000000E+00 0.  1.
<mgrwt>
<rscale>  0 0.22011132E+04</rscale>
<asrwt>0</asrwt>
<pdfrwt beam="1">  1        2 0.20735013E+00 0.22011132E+04</pdfrwt>
<pdfrwt beam="2">  1       -2 0.13825911E+00 0.22011132E+04</pdfrwt>
<totfact> 0.52595329E+00</totfact>
</mgrwt>
</event>
<event>
 6    1  0.1780144E-005  0.7447962E+03  0.7818608E-02  0.9643550E-01
         -1   -1    0    0    0  501 -0.00000000000E+00  0.00000000000E+00  0.51025105685E+02  0.51025105685E+02  0.00000000000E+00 0.  1.
          1   -1    0    0  501    0  0.00000000000E+00 -0.00000000000E+00 -0.27178846673E+04  0.27178846673E+04  0.00000000000E+00 0. -1.
         23    2    1    2    0    0  0.33546177635E+03  0.14455340537E+03 -0.14822349580E+04  0.15292462130E+04  0.90239785843E+02 0.  0.
         11    1    3    3    0    0  0.39859882730E+02 -0.10366424141E+02 -0.12640026930E+03  0.13294096840E+03  0.00000000000E+00 0.  1.
        -11    1    3    3    0    0  0.29560189362E+03  0.15491982952E+03 -0.13558346887E+04  0.13963052446E+04  0.00000000000E+00 0. -1.
         22    1    1    2    0    0 -0.33546177635E+03 -0.14455340537E+03 -0.11846246036E+04  0.12396635600E+04  0.00000000000E+00 0. -1.
<mgrwt>
<rscale>  0 0.74479622E+03</rscale>
<asrwt>0</asrwt>
<pdfrwt beam="1">  1        1 0.41813614E+00 0.74479622E+03</pdfrwt>
<pdfrwt beam="2">  1       -1 0.78500155E-02 0.74479622E+03</pdfrwt>
<totfact> 0.92398248E+01</totfact>
</mgrwt>
</event>
<event>
 6    1  0.1780144E-005  0.1360963E+04  0.7818608E-02  0.8982570E-01
          2   -1    0    0  501    0  0.00000000000E+00  0.00000000000E+00  0.13842950808E+04  0.13842950808E+04  0.00000000000E+00 0. -1.
         -2   -1    0    0    0  501 -0.00000000000E+00 -0.00000000000E+00 -0.33450610810E+03  0.33450610810E+03  0.00000000000E+00 0.  1.
         23    2    1    2    0    0 -0.40884325874E+03 -0.21078808877E+02  0.12088243204E+04  0.12796094674E+04  0.92450122460E+02 0.  0.
         11    1    3    3    0    0 -0.26155527234E+03 -0.46266496221E+02  0.67858691414E+03  0.72871938989E+03  0.00000000000E+00 0. -1.
        -11    1    3    3    0    0 -0.14728798639E+03  0.25187687344E+02  0.53023740628E+03  0.55089007756E+03  0.00000000000E+00 0.  1.
         22    1    1    2    0    0  0.40884325874E+03  0.21078808877E+02 -0.15903534769E+03  0.43919172148E+03  0.00000000000E+00 0.  1.
<mgrwt>
<rscale>  0 0.13609631E+04</rscale>
<asrwt>0</asrwt>
<pdfrwt beam="1">  1        2 0.21296847E+00 0.13609631E+04</pdfrwt>
<pdfrwt beam="2">  1       -2 0.51462479E-01 0.13609631E+04</pdfrwt>
<totfact> 0.51426371E+01</totfact>
</mgrwt>
</event>
<event>
 6    1  0.1780144E-005  0.1968545E+04  0.7818608E-02  0.8621470E-01
          2   -1    0    0  501    0  0.00000000000E+00  0.00000000000E+00  0.26071480784E+04  0.26071480784E+04  0.00000000000E+00 0. -1.
         -2   -1    0    0    0  501 -0.00000000000E+00 -0.00000000000E+00 -0.37159090386E+03  0.37159090386E+03  0.00000000000E+00 0.  1.
         23    2    1    2    0    0 -0.68861180091E+03  0.69368207754E+03  0.97782496019E+03  0.13858575177E+04  0.95280478538E+02 0.  0.
         11    1    3    3    0    0 -0.42956307107E+03  0.40463017516E+03  0.52951372526E+03  0.79286492918E+03  0.00000000000E+00 0. -1.
        -11    1    3    3    0    0 -0.25904872984E+03  0.28905190238E+03  0.44831123493E+03  0.59299258854E+03  0.00000000000E+00 0.  1.
         22    1    1    2    0    0  0.68861180091E+03 -0.69368207754E+03  0.12577322143E+04  0.15928814645E+04  0.00000000000E+00 0.  1.
<mgrwt>
<rscale>  0 0.19685452E+04</rscale>
<asrwt>0</asrwt>
<pdfrwt beam="1">  1        2 0.40109969E+00 0.19685452E+04</pdfrwt>
<pdfrwt beam="2">  1       -2 0.57167833E-01 0.19685452E+04</pdfrwt>
<totfact> 0.80579441E+00</totfact>
</mgrwt>
</event>
<event>
 6    1  0.1780144E-005  0.1638953E+04  0.7818608E-02  0.8796969E-01
         -2   -1    0    0    0  501 -0.00000000000E+00  0.00000000000E+00  0.82952943838E+03  0.82952943838E+03  0.00000000000E+00 0.  1.
          2   -1    0    0  501    0  0.00000000000E+00 -0.00000000000E+00 -0.80954513883E+03  0.80954513883E+03  0.00000000000E+00 0. -1.
         23    2    1    2    0    0 -0.20593287770E+03 -0.32760433860E+03 -0.70958931714E+03  0.81323523753E+03  0.90008887202E+02 0.  0.
         13    1    3    3    0    0 -0.13031849928E+03 -0.22762784379E+03 -0.55769975164E+03  0.61630054316E+03  0.00000000000E+00 0.  1.
        -13    1    3    3    0    0 -0.75614378423E+02 -0.99976494807E+02 -0.15188956550E+03  0.19693469437E+03  0.00000000000E+00 0. -1.
         22    1    1    2    0    0  0.20593287770E+03  0.32760433860E+03  0.72957361670E+03  0.82583933968E+03  0.00000000000E+00 0.  1.
<mgrwt>
<rscale>  0 0.16389527E+04</rscale>
<asrwt>0</asrwt>
<pdfrwt beam="1">  1        2 0.12454541E+00 0.16389527E+04</pdfrwt>
<pdfrwt beam="2">  1       -2 0.12761991E+00 0.16389527E+04</pdfrwt>
<totfact> 0.14749267E+01</totfact>
</mgrwt>
</event>
<event>
 6    1  0.1780144E-005  0.3973437E+04  0.7818608E-02  0.8009927E-01
         -2   -1    0    0    0  501 -0.00000000000E+00  0.00000000000E+00  0.17644801522E+04  0.17644801522E+04  0.00000000000E+00 0.  1.
          2   -1    0    0  501    0  0.00000000000E+00 -0.00000000000E+00 -0.22369480227E+04  0.22369480227E+04  0.00000000000E+00 0. -1.
         23    2    1    2    0    0  0.90611584259E+03 -0.16877258192E+04  0.28971385459E+03  0.19397819048E+04  0.96723106892E+02 0.  0.
         11    1    3    3    0    0  0.32763340671E+03 -0.66204577794E+03  0.15239636246E+03  0.75423664229E+03  0.00000000000E+00 0.  1.
        -11    1    3    3    0    0  0.57848243588E+03 -0.10256800413E+04  0.13731749212E+03  0.11855452625E+04  0.00000000000E+00 0. -1.
         22    1    1    2    0    0 -0.90611584259E+03  0.16877258192E+04 -0.76218172503E+03  0.20616462701E+04  0.00000000000E+00 0.  1.
<mgrwt>
<rscale>  0 0.39734370E+04</rscale>
<asrwt>0</asrwt>
<pdfrwt beam="1">  1        2 0.34414585E+00 0.39734370E+04</pdfrwt>
<pdfrwt beam="2">  1       -2 0.27145849E+00 0.39734370E+04</pdfrwt>
<totfact> 0.18477810E-01</totfact>
</mgrwt>
</event>
<event>
 6    1  0.1780144E-005  0.2057649E+04  0.7818608E-02  0.8580132E-01
         -1   -1    0    0    0  501 -0.00000000000E+00  0.00000000000E+00  0.94058604960E+03  0.94058604960E+03  0.00000000000E+00 0. -1.
          1   -1    0    0  501    0  0.00000000000E+00 -0.00000000000E+00 -0.11253403742E+04  0.11253403742E+04  0.00000000000E+00 0.  1.
         23    2    1    2    0    0 -0.80457806427E+03  0.55869994875E+03  0.21544268543E+03  0.10077916776E+04  0.98676342086E+02 0.  0.
         13    1    3    3    0    0 -0.22733716447E+03  0.21312962760E+03  0.74897075745E+02  0.32049336416E+03  0.00000000000E+00 0.  1.
        -13    1    3    3    0    0 -0.57724089979E+03  0.34557032115E+03  0.14054560968E+03  0.68729831344E+03  0.00000000000E+00 0. -1.
         22    1    1    2    0    0  0.80457806427E+03 -0.55869994875E+03 -0.40019700999E+03  0.10581347462E+04  0.00000000000E+00 0.  1.
<mgrwt>
<rscale>  0 0.20576486E+04</rscale>
<asrwt>0</asrwt>
<pdfrwt beam="1">  1        1 0.17312929E+00 0.20576486E+04</pdfrwt>
<pdfrwt beam="2">  1       -1 0.14470555E+00 0.20576486E+04</pdfrwt>
<totfact> 0.43034053E+00</totfact>
</mgrwt>
</event>
<event>
 6    1  0.1780144E-005  0.2157085E+04  0.7818608E-02  0.8536506E-01
         -2   -1    0    0    0  501 -0.00000000000E+00  0.00000000000E+00  0.37847886611E+03  0.37847886611E+03  0.00000000000E+00 0.  1.
          2   -1    0    0  501    0  0.00000000000E+00 -0.00000000000E+00 -0.30734973777E+04  0.30734973777E+04  0.00000000000E+00 0. -1.
         23    2    1    2    0    0  0.48335947322E+03 -0.99332213995E+02  0.18112612643E+03  0.53380708354E+03  0.92951921324E+02 0.  0.
         11    1    3    3    0    0  0.10281272625E+03 -0.46752269633E+02  0.10413926892E+02  0.11342257830E+03  0.00000000000E+00 0.  1.
        -11    1    3    3    0    0  0.38054674697E+03 -0.52579944362E+02  0.17071219954E+03  0.42038450524E+03  0.00000000000E+00 0. -1.
         22    1    1    2    0    0 -0.48335947322E+03  0.99332213995E+02 -0.28761446380E+04  0.29181691602E+04  0.00000000000E+00 0. -1.
<mgrwt>
<rscale>  0 0.21570849E+04</rscale>
<asrwt>0</asrwt>
<pdfrwt beam="1">  1        2 0.47284575E+00 0.21570849E+04</pdfrwt>
<pdfrwt beam="2">  1       -2 0.58227518E-01 0.21570849E+04</pdfrwt>
<totfact> 0.39667410E+00</totfact>
</mgrwt>
</event>
<event>
 6    1  0.1780144E-005  0.1040998E+04  0.7818608E-02  0.9264687E-01
          2   -1    0    0  501    0  0.00000000000E+00  0.00000000000E+00  0.68644057295E+03  0.68644057295E+03  0.00000000000E+00 0. -1.
         -2   -1    0    0    0  501 -0.00000000000E+00 -0.00000000000E+00 -0.39467285061E+03  0.39467285061E+03  0.00000000000E+00 0.  1.
         23    2    1    2    0    0  0.25949052318E+03 -0.30262556789E+03  0.48871248459E+03  0.63647333838E+03  0.85678771638E+02 0.  0.
         11    1    3    3    0    0  0.61460924664E+02 -0.13403266230E+03  0.16685198976E+03  0.22266967982E+03  0.00000000000E+00 0. -1.
        -11    1    3    3    0    0  0.19802959852E+03 -0.16859290559E+03  0.32186049484E+03  0.41380365857E+03  0.00000000000E+00 0.  1.
         22    1    1    2    0    0 -0.25949052318E+03  0.30262556789E+03 -0.19694476226E+03  0.44464008518E+03  0.00000000000E+00 0.  1.
<mgrwt>
<rscale>  0 0.10409985E+04</rscale>
<asrwt>0</asrwt>
<pdfrwt beam="1">  1        2 0.10560624E+00 0.10409985E+04</pdfrwt>
<pdfrwt beam="2">  1       -2 0.60718900E-01 0.10409985E+04</pdfrwt>
<totfact> 0.10571650E+02</totfact>
</mgrwt>
</event>
<event>
 6    1  0.1780144E-005  0.4082418E+04  0.7818608E-02  0.7988124E-01
          1   -1    0    0  501    0  0.00000000000E+00  0.00000000000E+00  0.21888590214E+04  0.21888590214E+04  0.00000000000E+00 0. -1.
         -1   -1    0    0    0  501 -0.00000000000E+00 -0.00000000000E+00 -0.19035183716E+04  0.19035183716E+04  0.00000000000E+00 0.  1.
         23    2    1    2    0    0 -0.23059341620E+03  0.11839418425E+04  0.17921711414E+04  0.21622401594E+04  0.92268611869E+02 0.  0.
         11    1    3    3    0    0 -0.17805282229E+03  0.78920465652E+03  0.11350486466E+04  0.13938731031E+04  0.00000000000E+00 0. -1.
        -11    1    3    3    0    0 -0.52540593913E+02  0.39473718601E+03  0.65712249472E+03  0.76836705623E+03  0.00000000000E+00 0.  1.
         22    1    1    2    0    0  0.23059341620E+03 -0.11839418425E+04 -0.15068304916E+04  0.19301372336E+04  0.00000000000E+00 0.  1.
<mgrwt>
<rscale>  0 0.40824176E+04</rscale>
<asrwt>0</asrwt>
<pdfrwt beam="1">  1        1 0.33674754E+00 0.40824176E+04</pdfrwt>
<pdfrwt beam="2">  1       -1 0.29284898E+00 0.40824176E+04</pdfrwt>
<totfact> 0.63331528E-02</totfact>
</mgrwt>
</event>
<event>
 6    1  0.1780144E-005  0.1192706E+04  0.7818608E-02  0.9119265E-01
         -2   -1    0    0    0  501 -0.00000000000E+00  0.00000000000E+00  0.41812772337E+03  0.41812772337E+03  0.00000000000E+00 0.  1.
          2   -1    0    0  501    0  0.00000000000E+00 -0.00000000000E+00 -0.85054670445E+03  0.85054670445E+03  0.00000000000E+00 0. -1.
         23    2    1    2    0    0  0.49932450348E+02 -0.17067628933E+03 -0.81913346207E+03  0.84303169601E+03  0.89995369085E+02 0.  0.
         11    1    3    3    0    0  0.24238948566E+02 -0.86533320624E+02 -0.22275011349E+03  0.24019399507E+03  0.00000000000E+00 0. -1.
        -11    1    3    3    0    0  0.25693501782E+02 -0.84142968710E+02 -0.59638334858E+03  0.60283770094E+03  0.00000000000E+00 0.  1.
         22    1    1    2    0    0 -0.49932450348E+02  0.17067628933E+03  0.38671448099E+03  0.42564273181E+03  0.00000000000E+00 0.  1.
<mgrwt>
<rscale>  0 0.11927064E+04</rscale>
<asrwt>0</asrwt>
<pdfrwt beam="1">  1        2 0.13085334E+00 0.11927064E+04</pdfrwt>
<pdfrwt beam="2">  1       -2 0.64327343E-01 0.11927064E+04</pdfrwt>
<totfact> 0.69913483E+01</totfact>
</mgrwt>
</event>
<event>
 6    1  0.1780144E-005  0.4205759E+04  0.7818608E-02  0.7964278E-01
         -2   -1    0    0    0  501 -0.00000000000E+00  0.00000000000E+00  0.17513765251E+04  0.17513765251E+04  0.00000000000E+00 0.  1.
          2   -1    0    0  501    0  0.00000000000E+00 -0.00000000000E+00 -0.25249295930E+04  0.25249295930E+04  0.00000000000E+00 0. -1.
         23    2    1    2    0    0  0.90364490261E+03  0.87294692991E+02  0.15405900530E+04  0.17904555882E+04  0.90105650844E+02 0.  0.
         11    1    3    3    0    0  0.61973887944E+03  0.86681801309E+02  0.99508462205E+03  0.11754928406E+04  0.00000000000E+00 0. -1.
        -11    1    3    3    0    0  0.28390602317E+03  0.61289168205E+00  0.54550543095E+03  0.61496274751E+03  0.00000000000E+00 0.  1.
         22    1    1    2    0    0 -0.90364490261E+03 -0.87294692991E+02 -0.23141431209E+04  0.24858505300E+04  0.00000000000E+00 0. -1.
<mgrwt>
<rscale>  0 0.42057591E+04</rscale>
<asrwt>0</asrwt>
<pdfrwt beam="1">  1        2 0.38845071E+00 0.42057591E+04</pdfrwt>
<pdfrwt beam="2">  1       -2 0.26944254E+00 0.42057591E+04</pdfrwt>
<totfact> 0.12761268E-01</totfact>
</mgrwt>
</event>
<event>
 6    1  0.1780144E-005  0.1790268E+04  0.7818608E-02  0.8711492E-01
          2   -1    0    0  501    0  0.00000000000E+00  0.00000000000E+00  0.14636322364E+04  0.14636322364E+04  0.00000000000E+00 0. -1.
         -2   -1    0    0    0  501 -0.00000000000E+00 -0.00000000000E+00 -0.54744957436E+03  0.54744957436E+03  0.00000000000E+00 0.  1.
         23    2    1    2    0    0 -0.66778241566E+03 -0.23393095551E+03  0.10708353777E+04  0.12868066496E+04  0.92335803883E+02 0.  0.
         11    1    3    3    0    0 -0.59290625037E+03 -0.17555320516E+03  0.94016513427E+03  0.11252853990E+04  0.00000000000E+00 0.  1.
        -11    1    3    3    0    0 -0.74876165285E+02 -0.58377750346E+02  0.13067024345E+03  0.16152125057E+03  0.00000000000E+00 0. -1.
         22    1    1    2    0    0  0.66778241566E+03  0.23393095551E+03 -0.15465271568E+03  0.72427516116E+03  0.00000000000E+00 0.  1.
<mgrwt>
<rscale>  0 0.17902680E+04</rscale>
<asrwt>0</asrwt>
<pdfrwt beam="1">  1        2 0.22517419E+00 0.17902680E+04</pdfrwt>
<pdfrwt beam="2">  1       -2 0.84223012E-01 0.17902680E+04</pdfrwt>
<totfact> 0.15473313E+01</totfact>
</mgrwt>
</event>
<event>
 6    1  0.1780144E-005  0.2214460E+04  0.7818608E-02  0.8512434E-01
          2   -1    0    0  501    0  0.00000000000E+00  0.00000000000E+00  0.10789227495E+04  0.10789227495E+04  0.00000000000E+00 0. -1.
         -2   -1    0    0    0  501 -0.00000000000E+00 -0.00000000000E+00 -0.11362797303E+04  0.11362797303E+04  0.00000000000E+00 0.  1.
         23    2    1    2    0    0 -0.69180280188E+03  0.75261832908E+03  0.39166517236E+03  0.10986692918E+04  0.92989996575E+02 0.  0.
         11    1    3    3    0    0 -0.88446726868E+01  0.22057289951E+02  0.22223968446E+02  0.32537010441E+02  0.00000000000E+00 0. -1.
        -11    1    3    3    0    0 -0.68295812919E+03  0.73056103913E+03  0.36944120391E+03  0.10661322813E+04  0.00000000000E+00 0.  1.
         22    1    1    2    0    0  0.69180280188E+03 -0.75261832908E+03 -0.44902215322E+03  0.11165331881E+04  0.00000000000E+00 0.  1.
<mgrwt>
<rscale>  0 0.22144598E+04</rscale>
<asrwt>0</asrwt>
<pdfrwt beam="1">  1        2 0.16598811E+00 0.22144598E+04</pdfrwt>
<pdfrwt beam="2">  1       -2 0.17481227E+00 0.22144598E+04</pdfrwt>
<totfact> 0.40392346E+00</totfact>
</mgrwt>
</event>
<event>
 6    1  0.1780144E-005  0.1644212E+04  0.7818608E-02  0.8793838E-01
         -2   -1    0    0    0  501 -0.00000000000E+00  0.00000000000E+00  0.30717019826E+03  0.30717019826E+03  0.00000000000E+00 0.  1.
          2   -1    0    0  501    0  0.00000000000E+00 -0.00000000000E+00 -0.22002735683E+04  0.22002735683E+04  0.00000000000E+00 0. -1.
         23    2    1    2    0    0  0.30120738348E+03 -0.21367201681E+03 -0.20652206621E+04  0.21000054511E+04  0.92221975994E+02 0.  0.
         11    1    3    3    0    0  0.20907072262E+03 -0.11018634448E+03 -0.11180949407E+04  0.11427982735E+04  0.00000000000E+00 0.  1.
        -11    1    3    3    0    0  0.92136660861E+02 -0.10348567233E+03 -0.94712572146E+03  0.95720717762E+03  0.00000000000E+00 0. -1.
         22    1    1    2    0    0 -0.30120738348E+03  0.21367201681E+03  0.17211729210E+03  0.40743831542E+03  0.00000000000E+00 0.  1.
<mgrwt>
<rscale>  0 0.16442122E+04</rscale>
<asrwt>0</asrwt>
<pdfrwt beam="1">  1        2 0.33850363E+00 0.16442122E+04</pdfrwt>
<pdfrwt beam="2">  1       -2 0.47256953E-01 0.16442122E+04</pdfrwt>
<totfact> 0.20950408E+01</totfact>
</mgrwt>
</event>
<event>
 6    1  0.1780144E-005  0.2135832E+04  0.7818608E-02  0.8545621E-01
         -1   -1    0    0    0  501 -0.00000000000E+00  0.00000000000E+00  0.16418802065E+04  0.16418802065E+04  0.00000000000E+00 0.  1.
          1   -1    0    0  501    0  0.00000000000E+00 -0.00000000000E+00 -0.69459683544E+03  0.69459683544E+03  0.00000000000E+00 0. -1.
         23    2    1    2    0    0  0.24172689571E+03  0.92959072476E+03 -0.30837162380E+02  0.96560484307E+03  0.94185852018E+02 0.  0.
         13    1    3    3    0    0  0.10774096497E+03  0.25915769703E+03  0.84261981574E+01  0.28078787060E+03  0.00000000000E+00 0. -1.
        -13    1    3    3    0    0  0.13398593074E+03  0.67043302773E+03 -0.39263360538E+02  0.68481697247E+03  0.00000000000E+00 0.  1.
         22    1    1    2    0    0 -0.24172689571E+03 -0.92959072476E+03  0.97812053344E+03  0.13708721989E+04  0.00000000000E+00 0.  1.
<mgrwt>
<rscale>  0 0.21358322E+04</rscale>
<asrwt>0</asrwt>
<pdfrwt beam="1">  1        1 0.10686105E+00 0.21358322E+04</pdfrwt>
<pdfrwt beam="2">  1       -1 0.25259695E+00 0.21358322E+04</pdfrwt>
<totfact> 0.16945581E+00</totfact>
</mgrwt>
</event>
<event>
 6    1  0.1780144E-005  0.1188496E+04  0.7818608E-02  0.9122986E-01
          2   -1    0    0  501    0  0.00000000000E+00  0.00000000000E+00  0.46903506227E+04  0.46903506227E+04  0.00000000000E+00 0. -1.
         -2   -1    0    0    0  501 -0.00000000000E+00 -0.00000000000E+00 -0.75288735130E+02  0.75288735130E+02  0.00000000000E+00 0.  1.
         23    2    1    2    0    0  0.31307767287E+03  0.39233826539E+03  0.35702685190E+04  0.36065275742E+04  0.90977483918E+02 0.  0.
         13    1    3    3    0    0  0.27032891002E+03  0.35922278385E+03  0.33324302941E+04  0.33626195730E+04  0.00000000000E+00 0.  1.
        -13    1    3    3    0    0  0.42748762847E+02  0.33115481542E+02  0.23783822490E+03  0.24390800124E+03  0.00000000000E+00 0. -1.
         22    1    1    2    0    0 -0.31307767287E+03 -0.39233826539E+03  0.10447933686E+04  0.11591117835E+04  0.00000000000E+00 0.  1.
<mgrwt>
<rscale>  0 0.11884958E+04</rscale>
<asrwt>0</asrwt>
<pdfrwt beam="1">  1        2 0.72159217E+00 0.11884958E+04</pdfrwt>
<pdfrwt beam="2">  1       -2 0.11582886E-01 0.11884958E+04</pdfrwt>
<totfact> 0.44864991E+00</totfact>
</mgrwt>
</event>
<event>
 6    1  0.1780144E-005  0.2174959E+04  0.7818608E-02  0.8528924E-01
          2   -1    0    0  501    0  0.00000000000E+00  0.00000000000E+00  0.15894797082E+04  0.15894797082E+04  0.00000000000E+00 0.  1.
         -2   -1    0    0    0  501 -0.00000000000E+00 -0.00000000000E+00 -0.74402404655E+03  0.74402404655E+03  0.00000000000E+00 0. -1.
         23    2    1    2    0    0  0.21420004143E+03 -0.19277855827E+03  0.15462602029E+04  0.15757622188E+04  0.95187839618E+02 0.  0.
         11    1    3    3    0    0  0.10722376486E+03 -0.38157055981E+02  0.66486954226E+03  0.67454014328E+03  0.00000000000E+00 0. -1.
        -11    1    3    3    0    0  0.10697627657E+03 -0.15462150229E+03  0.88139066063E+03  0.90122207550E+03  0.00000000000E+00 0.  1.
         22    1    1    2    0    0 -0.21420004143E+03  0.19277855827E+03 -0.70080454125E+03  0.75774153596E+03  0.00000000000E+00 0. -1.
<mgrwt>
<rscale>  0 0.21749585E+04</rscale>
<asrwt>0</asrwt>
<pdfrwt beam="1">  1        2 0.24453534E+00 0.21749585E+04</pdfrwt>
<pdfrwt beam="2">  1       -2 0.11446524E+00 0.21749585E+04</pdfrwt>
<totfact> 0.61758369E+00</totfact>
</mgrwt>
</event>
<event>
 6    1  0.1780144E-005  0.3306209E+04  0.7818608E-02  0.8161317E-01
         -1   -1    0    0    0  501 -0.00000000000E+00  0.00000000000E+00  0.67647598336E+03  0.67647598336E+03  0.00000000000E+00 0.  1.
          1   -1    0    0  501    0  0.00000000000E+00 -0.00000000000E+00 -0.40396922577E+04  0.40396922577E+04  0.00000000000E+00 0. -1.
         23    2    1    2    0    0  0.92468958115E+03 -0.12126697664E+04 -0.25884294003E+04  0.30056380648E+04  0.90965006160E+02 0.  0.
         11    1    3    3    0    0  0.10672327748E+03 -0.10065526951E+03 -0.22550226531E+03  0.26902158444E+03  0.00000000000E+00 0.  1.
        -11    1    3    3    0    0  0.81796630367E+03 -0.11120144969E+04 -0.23629271350E+04  0.27366164804E+04  0.00000000000E+00 0. -1.
         22    1    1    2    0    0 -0.92468958115E+03  0.12126697664E+04 -0.77478687406E+03  0.17105301763E+04  0.00000000000E+00 0.  1.
<mgrwt>
<rscale>  0 0.33062092E+04</rscale>
<asrwt>0</asrwt>
<pdfrwt beam="1">  1        1 0.62149113E+00 0.33062092E+04</pdfrwt>
<pdfrwt beam="2">  1       -1 0.10407323E+00 0.33062092E+04</pdfrwt>
<totfact> 0.63642863E-02</totfact>
</mgrwt>
</event>
<event>
 6    1  0.1780144E-005  0.2122618E+04  0.7818608E-02  0.8551345E-01
          3   -1    0    0  501    0  0.00000000000E+00  0.00000000000E+00  0.94690209913E+03  0.94690209913E+03  0.00000000000E+00 0. -1.
         -3   -1    0    0    0  501 -0.00000000000E+00 -0.00000000000E+00 -0.11895391406E+04  0.11895391406E+04  0.00000000000E+00 0.  1.
         23    2    1    2    0    0  0.10127532768E+04 -0.20600522363E+03  0.11243624135E+03  0.10436538002E+04  0.91999969874E+02 0.  0.
         13    1    3    3    0    0  0.14288416491E+03 -0.59245932985E+02  0.30850474374E+02  0.15772671595E+03  0.00000000000E+00 0. -1.
        -13    1    3    3    0    0  0.86986911190E+03 -0.14675929065E+03  0.81585766972E+02  0.88592708424E+03  0.00000000000E+00 0.  1.
         22    1    1    2    0    0 -0.10127532768E+04  0.20600522363E+03 -0.35507328284E+03  0.10927874395E+04  0.00000000000E+00 0.  1.
<mgrwt>
<rscale>  0 0.21226183E+04</rscale>
<asrwt>0</asrwt>
<pdfrwt beam="1">  1        3 0.14567725E+00 0.21226183E+04</pdfrwt>
<pdfrwt beam="2">  1       -3 0.18300602E+00 0.21226183E+04</pdfrwt>
<totfact> 0.15813324E-01</totfact>
</mgrwt>
</event>
<event>
 6    1  0.1780144E-005  0.3831972E+04  0.7818608E-02  0.8039328E-01
          3   -1    0    0  501    0  0.00000000000E+00  0.00000000000E+00  0.21646954627E+04  0.21646954627E+04  0.00000000000E+00 0. -1.
         -3   -1    0    0    0  501 -0.00000000000E+00 -0.00000000000E+00 -0.16958512065E+04  0.16958512065E+04  0.00000000000E+00 0.  1.
         23    2    1    2    0    0  0.37549871358E+03  0.18062314204E+04  0.75192237932E+03  0.19941050140E+04  0.87156837853E+02 0.  0.
         13    1    3    3    0    0  0.26658066065E+03  0.13348367135E+04  0.59414042214E+03  0.14852128270E+04  0.00000000000E+00 0.  1.
        -13    1    3    3    0    0  0.10891805293E+03  0.47139470695E+03  0.15778195718E+03  0.50889218702E+03  0.00000000000E+00 0. -1.
         22    1    1    2    0    0 -0.37549871358E+03 -0.18062314204E+04 -0.28307812311E+03  0.18664416551E+04  0.00000000000E+00 0.  1.
<mgrwt>
<rscale>  0 0.38319715E+04</rscale>
<asrwt>0</asrwt>
<pdfrwt beam="1">  1        3 0.33303007E+00 0.38319715E+04</pdfrwt>
<pdfrwt beam="2">  1       -3 0.26090019E+00 0.38319715E+04</pdfrwt>
<totfact> 0.33240922E-03</totfact>
</mgrwt>
</event>
<event>
 6    1  0.1780144E-005  0.1715147E+04  0.7818608E-02  0.8752772E-01
          2   -1    0    0  501    0  0.00000000000E+00  0.00000000000E+00  0.30368467507E+04  0.30368467507E+04  0.00000000000E+00 0. -1.
         -2   -1    0    0    0  501 -0.00000000000E+00 -0.00000000000E+00 -0.24216982885E+03  0.24216982885E+03  0.00000000000E+00 0.  1.
         23    2    1    2    0    0  0.11550366154E+03  0.84402659645E+03  0.15416373171E+04  0.17638168428E+04  0.93178569953E+02 0.  0.
         11    1    3    3    0    0  0.72688546562E+02  0.75018966013E+03  0.13459740140E+04  0.15426322301E+04  0.00000000000E+00 0. -1.
        -11    1    3    3    0    0  0.42815114978E+02  0.93836936319E+02  0.19566330312E+03  0.22118461266E+03  0.00000000000E+00 0.  1.
         22    1    1    2    0    0 -0.11550366154E+03 -0.84402659645E+03  0.12530396047E+04  0.15151997368E+04  0.00000000000E+00 0.  1.
<mgrwt>
<rscale>  0 0.17151474E+04</rscale>
<asrwt>0</asrwt>
<pdfrwt beam="1">  1        2 0.46720717E+00 0.17151474E+04</pdfrwt>
<pdfrwt beam="2">  1       -2 0.37256899E-01 0.17151474E+04</pdfrwt>
<totfact> 0.10708621E+01</totfact>
</mgrwt>
</event>
<event>
 6    1  0.1780144E-005  0.5824569E+04  0.7818608E-02  0.7712542E-01
         -2   -1    0    0    0  501 -0.00000000000E+00  0.00000000000E+00  0.28990888177E+04  0.28990888177E+04  0.00000000000E+00 0.  1.
          2   -1    0    0  501    0  0.00000000000E+00 -0.00000000000E+00 -0.29255400242E+04  0.29255400242E+04  0.00000000000E+00 0. -1.
         23    2    1    2    0    0  0.62727901152E+02  0.29106274352E+04 -0.55003124856E+02  0.29131855455E+04  0.89094457146E+02 0.  0.
         13    1    3    3    0    0  0.82746526702E+02  0.26096222873E+04 -0.43498075562E+02  0.26112961442E+04  0.00000000000E+00 0.  1.
        -13    1    3    3    0    0 -0.20018625551E+02  0.30100514794E+03 -0.11505049294E+02  0.30188940130E+03  0.00000000000E+00 0. -1.
         22    1    1    2    0    0 -0.62727901152E+02 -0.29106274352E+04  0.28551918378E+02  0.29114432964E+04  0.00000000000E+00 0. -1.
<mgrwt>
<rscale>  0 0.58245688E+04</rscale>
<asrwt>0</asrwt>
<pdfrwt beam="1">  1        2 0.45008308E+00 0.58245688E+04</pdfrwt>
<pdfrwt beam="2">  1       -2 0.44601367E+00 0.58245688E+04</pdfrwt>
<totfact> 0.48938161E-03</totfact>
</mgrwt>
</event>
<event>
 6    1  0.1780144E-005  0.1738409E+04  0.7818608E-02  0.8739756E-01
          2   -1    0    0  501    0  0.00000000000E+00  0.00000000000E+00  0.13764173312E+04  0.13764173312E+04  0.00000000000E+00 0. -1.
         -2   -1    0    0    0  501 -0.00000000000E+00 -0.00000000000E+00 -0.54890094536E+03  0.54890094536E+03  0.00000000000E+00 0.  1.
         23    2    1    2    0    0  0.17987450516E+03  0.49873552619E+03 -0.34463090878E+03  0.63884198725E+03  0.90866158180E+02 0.  0.
         13    1    3    3    0    0  0.41847911182E+02  0.84970930629E+02 -0.24627531943E+02  0.97866347903E+02  0.00000000000E+00 0.  1.
        -13    1    3    3    0    0  0.13802659398E+03  0.41376459556E+03 -0.32000337684E+03  0.54097563935E+03  0.00000000000E+00 0. -1.
         22    1    1    2    0    0 -0.17987450516E+03 -0.49873552619E+03  0.11721472947E+04  0.12864762894E+04  0.00000000000E+00 0. -1.
<mgrwt>
<rscale>  0 0.17384094E+04</rscale>
<asrwt>0</asrwt>
<pdfrwt beam="1">  1        2 0.21175651E+00 0.17384094E+04</pdfrwt>
<pdfrwt beam="2">  1       -2 0.84446300E-01 0.17384094E+04</pdfrwt>
<totfact> 0.17322030E+01</totfact>
</mgrwt>
</event>
<event>
 6    1  0.1780144E-005  0.1980541E+04  0.7818608E-02  0.8615773E-01
         -2   -1    0    0    0  501 -0.00000000000E+00  0.00000000000E+00  0.25717893454E+03  0.25717893454E+03  0.00000000000E+00 0.  1.
          2   -1    0    0  501    0  0.00000000000E+00 -0.00000000000E+00 -0.38130482527E+04  0.38130482527E+04  0.00000000000E+00 0. -1.
         23    2    1    2    0    0  0.53660975741E+03 -0.82802903540E+03 -0.16714139900E+04  0.19430802720E+04  0.91400778226E+02 0.  0.
         13    1    3    3    0    0  0.44864522075E+03 -0.67575336630E+03 -0.14357948050E+04  0.16490700010E+04  0.00000000000E+00 0. -1.
        -13    1    3    3    0    0  0.87964536659E+02 -0.15227566909E+03 -0.23561918503E+03  0.29401027101E+03  0.00000000000E+00 0.  1.
         22    1    1    2    0    0 -0.53660975741E+03  0.82802903540E+03 -0.18844553282E+04  0.21271469153E+04  0.00000000000E+00 0. -1.
<mgrwt>
<rscale>  0 0.19805410E+04</rscale>
<asrwt>0</asrwt>
<pdfrwt beam="1">  1        2 0.58662282E+00 0.19805410E+04</pdfrwt>
<pdfrwt beam="2">  1       -2 0.39565989E-01 0.19805410E+04</pdfrwt>
<totfact> 0.27225609E+00</totfact>
</mgrwt>
</event>
<event>
 6    1  0.1780144E-005  0.1217277E+04  0.7818608E-02  0.9097867E-01
          2   -1    0    0  501    0  0.00000000000E+00  0.00000000000E+00  0.64610095074E+03  0.64610095074E+03  0.00000000000E+00 0. -1.
         -2   -1    0    0    0  501 -0.00000000000E+00 -0.00000000000E+00 -0.57334825847E+03  0.57334825847E+03  0.00000000000E+00 0.  1.
         23    2    1    2    0    0 -0.87767953571E+01  0.55596247360E+03  0.27530881909E+03  0.62767198026E+03  0.94899234700E+02 0.  0.
         11    1    3    3    0    0 -0.22666221773E+02  0.31108938836E+03  0.10515597140E+03  0.32916279177E+03  0.00000000000E+00 0. -1.
        -11    1    3    3    0    0  0.13889426416E+02  0.24487308524E+03  0.17015284768E+03  0.29850918849E+03  0.00000000000E+00 0.  1.
         22    1    1    2    0    0  0.87767953571E+01 -0.55596247360E+03 -0.20255612682E+03  0.59177722895E+03  0.00000000000E+00 0.  1.
<mgrwt>
<rscale>  0 0.12172771E+04</rscale>
<asrwt>0</asrwt>
<pdfrwt beam="1">  1        2 0.99400146E-01 0.12172771E+04</pdfrwt>
<pdfrwt beam="2">  1       -2 0.88207424E-01 0.12172771E+04</pdfrwt>
<totfact> 0.49445442E+01</totfact>
</mgrwt>
</event>
<event>
 6    1  0.2140289E-005  0.1722543E+04  0.7818608E-02  0.8748611E-01
         -2   -1    0    0    0  501 -0.00000000000E+00  0.00000000000E+00  0.10125230991E+04  0.10125230991E+04  0.00000000000E+00 0.  1.
          2   -1    0    0  501    0  0.00000000000E+00 -0.00000000000E+00 -0.73261392670E+03  0.73261392670E+03  0.00000000000E+00 0. -1.
         23    2    1    2    0    0  0.21308633100E+03  0.59018878766E+03  0.73434372885E+03  0.97038586864E+03  0.93056071395E+02 0.  0.
         11    1    3    3    0    0  0.12882768922E+03  0.32369207334E+03  0.47527020645E+03  0.58928337919E+03  0.00000000000E+00 0.  1.
        -11    1    3    3    0    0  0.84258641780E+02  0.26649671432E+03  0.25907352240E+03  0.38110248945E+03  0.00000000000E+00 0. -1.
         22    1    1    2    0    0 -0.21308633100E+03 -0.59018878766E+03 -0.45443455640E+03  0.77475115720E+03  0.00000000000E+00 0. -1.
<mgrwt>
<rscale>  0 0.17225429E+04</rscale>
<asrwt>0</asrwt>
<pdfrwt beam="1">  1        2 0.11270983E+00 0.17225429E+04</pdfrwt>
<pdfrwt beam="2">  1       -2 0.15577278E+00 0.17225429E+04</pdfrwt>
<totfact> 0.99402091E+00</totfact>
</mgrwt>
</event>
<event>
 6    1  0.1780144E-005  0.1113278E+04  0.7818608E-02  0.9192346E-01
          1   -1    0    0  501    0  0.00000000000E+00  0.00000000000E+00  0.63255338834E+03  0.63255338834E+03  0.00000000000E+00 0. -1.
         -1   -1    0    0    0  501 -0.00000000000E+00 -0.00000000000E+00 -0.48983547812E+03  0.48983547812E+03  0.00000000000E+00 0.  1.
         23    2    1    2    0    0  0.32632891367E+03  0.21919730828E+03 -0.32014233652E+03  0.51511822838E+03  0.91201171745E+02 0.  0.
         11    1    3    3    0    0  0.26130976422E+03  0.21140265855E+03 -0.28567348219E+03  0.44111587519E+03  0.00000000000E+00 0. -1.
        -11    1    3    3    0    0  0.65019149446E+02  0.77946497269E+01 -0.34468854335E+02  0.74002353194E+02  0.00000000000E+00 0.  1.
         22    1    1    2    0    0 -0.32632891367E+03 -0.21919730828E+03  0.46286024674E+03  0.60727063807E+03  0.00000000000E+00 0. -1.
<mgrwt>
<rscale>  0 0.11132782E+04</rscale>
<asrwt>0</asrwt>
<pdfrwt beam="1">  1        1 0.97315906E-01 0.11132782E+04</pdfrwt>
<pdfrwt beam="2">  1       -1 0.75359304E-01 0.11132782E+04</pdfrwt>
<totfact> 0.55903720E+01</totfact>
</mgrwt>
</event>
<event>
 6    1  0.1780144E-005  0.2498556E+04  0.7818608E-02  0.8403500E-01
          2   -1    0    0  501    0  0.00000000000E+00  0.00000000000E+00  0.34791013467E+04  0.34791013467E+04  0.00000000000E+00 0. -1.
         -2   -1    0    0    0  501 -0.00000000000E+00 -0.00000000000E+00 -0.44859149003E+03  0.44859149003E+03  0.00000000000E+00 0.  1.
         23    2    1    2    0    0  0.31035370953E+02 -0.11303574736E+04  0.68884413546E+03  0.13272948744E+04  0.92380887005E+02 0.  0.
         13    1    3    3    0    0  0.20813300957E+02 -0.10937321885E+04  0.64782298663E+03  0.12713606552E+04  0.00000000000E+00 0.  1.
        -13    1    3    3    0    0  0.10222069997E+02 -0.36625285122E+02  0.41021148832E+02  0.55934219193E+02  0.00000000000E+00 0. -1.
         22    1    1    2    0    0 -0.31035370953E+02  0.11303574736E+04  0.23416657212E+04  0.26003979623E+04  0.00000000000E+00 0. -1.
<mgrwt>
<rscale>  0 0.24985558E+04</rscale>
<asrwt>0</asrwt>
<pdfrwt beam="1">  1        2 0.53524634E+00 0.24985558E+04</pdfrwt>
<pdfrwt beam="2">  1       -2 0.69014078E-01 0.24985558E+04</pdfrwt>
<totfact> 0.14397669E+00</totfact>
</mgrwt>
</event>
<event>
 6    1  0.1780144E-005  0.1572702E+04  0.7818608E-02  0.8837496E-01
          2   -1    0    0  501    0  0.00000000000E+00  0.00000000000E+00  0.11665860730E+04  0.11665860730E+04  0.00000000000E+00 0.  1.
         -2   -1    0    0    0  501 -0.00000000000E+00 -0.00000000000E+00 -0.53004886777E+03  0.53004886777E+03  0.00000000000E+00 0. -1.
         23    2    1    2    0    0  0.68103387518E+03 -0.60105459061E+02  0.73225716090E+03  0.10062856703E+04  0.94818221919E+02 0.  0.
         11    1    3    3    0    0  0.39274382523E+03  0.12309918706E+02  0.42239434535E+03  0.57690227018E+03  0.00000000000E+00 0. -1.
        -11    1    3    3    0    0  0.28829004996E+03 -0.72415377767E+02  0.30986281555E+03  0.42938340012E+03  0.00000000000E+00 0.  1.
         22    1    1    2    0    0 -0.68103387518E+03  0.60105459061E+02 -0.95719955640E+02  0.69034927049E+03  0.00000000000E+00 0. -1.
<mgrwt>
<rscale>  0 0.15727017E+04</rscale>
<asrwt>0</asrwt>
<pdfrwt beam="1">  1        2 0.17947478E+00 0.15727017E+04</pdfrwt>
<pdfrwt beam="2">  1       -2 0.81545980E-01 0.15727017E+04</pdfrwt>
<totfact> 0.25240760E+01</totfact>
</mgrwt>
</event>
<event>
 6    1  0.2259124E-005  0.3062317E+04  0.7818608E-02  0.8226157E-01
         -1   -1    0    0    0  501 -0.00000000000E+00  0.00000000000E+00  0.14743666579E+04  0.14743666579E+04  0.00000000000E+00 0.  1.
          1   -1    0    0  501    0  0.00000000000E+00 -0.00000000000E+00 -0.15901375233E+04  0.15901375233E+04  0.00000000000E+00 0. -1.
         23    2    1    2    0    0 -0.71243841886E+03  0.13455742876E+04  0.92074470519E+02  0.15278394983E+04  0.87619405723E+02 0.  0.
         11    1    3    3    0    0 -0.56673216824E+03  0.10331477979E+04  0.10350667474E+03  0.11829173067E+04  0.00000000000E+00 0.  1.
        -11    1    3    3    0    0 -0.14570625061E+03  0.31242648966E+03 -0.11432204221E+02  0.34492219152E+03  0.00000000000E+00 0. -1.
         22    1    1    2    0    0  0.71243841886E+03 -0.13455742876E+04 -0.20784533590E+03  0.15366646829E+04  0.00000000000E+00 0.  1.
<mgrwt>
<rscale>  0 0.30623166E+04</rscale>
<asrwt>0</asrwt>
<pdfrwt beam="1">  1        1 0.24463654E+00 0.30623166E+04</pdfrwt>
<pdfrwt beam="2">  1       -1 0.22682564E+00 0.30623166E+04</pdfrwt>
<totfact> 0.47546029E-01</totfact>
</mgrwt>
</event>
<event>
 6    1  0.1780144E-005  0.2715527E+04  0.7818608E-02  0.8329985E-01
         -2   -1    0    0    0  501 -0.00000000000E+00  0.00000000000E+00  0.82071661987E+03  0.82071661987E+03  0.00000000000E+00 0.  1.
          2   -1    0    0  501    0  0.00000000000E+00 -0.00000000000E+00 -0.22462342230E+04  0.22462342230E+04  0.00000000000E+00 0. -1.
         23    2    1    2    0    0  0.85571465510E+03  0.25731981909E+02 -0.19014706823E+04  0.20874402307E+04  0.94372957402E+02 0.  0.
         11    1    3    3    0    0  0.30909973680E+03 -0.33149239746E+02 -0.72580682604E+03  0.78958031138E+03  0.00000000000E+00 0.  1.
        -11    1    3    3    0    0  0.54661491830E+03  0.58881221654E+02 -0.11756638563E+04  0.12978599193E+04  0.00000000000E+00 0. -1.
         22    1    1    2    0    0 -0.85571465510E+03 -0.25731981909E+02  0.47595307918E+03  0.97951061221E+03  0.00000000000E+00 0.  1.
<mgrwt>
<rscale>  0 0.27155270E+04</rscale>
<asrwt>0</asrwt>
<pdfrwt beam="1">  1        2 0.34557449E+00 0.27155270E+04</pdfrwt>
<pdfrwt beam="2">  1       -2 0.12626410E+00 0.27155270E+04</pdfrwt>
<totfact> 0.19917253E+00</totfact>
</mgrwt>
</event>
<event>
 6    1  0.1780144E-005  0.1709975E+04  0.7818608E-02  0.8755696E-01
          1   -1    0    0  501    0  0.00000000000E+00  0.00000000000E+00  0.23207461385E+03  0.23207461385E+03  0.00000000000E+00 0. -1.
         -1   -1    0    0    0  501 -0.00000000000E+00 -0.00000000000E+00 -0.31498630906E+04  0.31498630906E+04  0.00000000000E+00 0.  1.
         23    2    1    2    0    0 -0.40834499463E+03 -0.12828351994E+03 -0.29213119757E+04  0.29539018284E+04  0.90939851844E+02 0.  0.
         13    1    3    3    0    0 -0.22658228917E+03 -0.11777491076E+03 -0.16676451039E+04  0.16870834763E+04  0.00000000000E+00 0. -1.
        -13    1    3    3    0    0 -0.18176270546E+03 -0.10508609185E+02 -0.12536668718E+04  0.12668183522E+04  0.00000000000E+00 0.  1.
         22    1    1    2    0    0  0.40834499463E+03  0.12828351994E+03  0.35234989023E+01  0.42803587604E+03  0.00000000000E+00 0. -1.
<mgrwt>
<rscale>  0 0.17099746E+04</rscale>
<asrwt>0</asrwt>
<pdfrwt beam="1">  1        1 0.35703788E-01 0.17099746E+04</pdfrwt>
<pdfrwt beam="2">  1       -1 0.48459431E+00 0.17099746E+04</pdfrwt>
<totfact> 0.21916618E-01</totfact>
</mgrwt>
</event>
<event>
 6    1  0.1780144E-005  0.2872678E+04  0.7818608E-02  0.8281053E-01
         -2   -1    0    0    0  501 -0.00000000000E+00  0.00000000000E+00  0.12203879415E+04  0.12203879415E+04  0.00000000000E+00 0.  1.
          2   -1    0    0  501    0  0.00000000000E+00 -0.00000000000E+00 -0.16905034570E+04  0.16905034570E+04  0.00000000000E+00 0. -1.
         23    2    1    2    0    0 -0.83196537146E+03 -0.44403350724E+02 -0.14191028478E+04  0.16480711446E+04  0.90263881392E+02 0.  0.
         13    1    3    3    0    0 -0.43079706891E+03  0.18975766328E+02 -0.69792879047E+03  0.82039672772E+03  0.00000000000E+00 0. -1.
        -13    1    3    3    0    0 -0.40116830255E+03 -0.63379117053E+02 -0.72117405733E+03  0.82767441691E+03  0.00000000000E+00 0.  1.
         22    1    1    2    0    0  0.83196537146E+03  0.44403350724E+02  0.94898733225E+03  0.12628202539E+04  0.00000000000E+00 0.  1.
<mgrwt>
<rscale>  0 0.28726782E+04</rscale>
<asrwt>0</asrwt>
<pdfrwt beam="1">  1        2 0.26007746E+00 0.28726782E+04</pdfrwt>
<pdfrwt beam="2">  1       -2 0.18775199E+00 0.28726782E+04</pdfrwt>
<totfact> 0.13783909E+00</totfact>
</mgrwt>
</event>
<event>
 6    1  0.1780144E-005  0.4793597E+04  0.7818608E-02  0.7861160E-01
          1   -1    0    0  501    0  0.00000000000E+00  0.00000000000E+00  0.46095365874E+04  0.46095365874E+04  0.00000000000E+00 0. -1.
         -1   -1    0    0    0  501 -0.00000000000E+00 -0.00000000000E+00 -0.12462517630E+04  0.12462517630E+04  0.00000000000E+00 0.  1.
         23    2    1    2    0    0  0.20162229042E+04  0.52357323616E+03  0.31283134307E+04  0.37594831988E+04  0.89918120820E+02 0.  0.
         13    1    3    3    0    0  0.17186547889E+04  0.47879327066E+03  0.26817574418E+04  0.32209998845E+04  0.00000000000E+00 0.  1.
        -13    1    3    3    0    0  0.29756811528E+03  0.44779965503E+02  0.44655598884E+03  0.53848331423E+03  0.00000000000E+00 0. -1.
         22    1    1    2    0    0 -0.20162229042E+04 -0.52357323616E+03  0.23497139374E+03  0.20963051517E+04  0.00000000000E+00 0.  1.
<mgrwt>
<rscale>  0 0.47935970E+04</rscale>
<asrwt>0</asrwt>
<pdfrwt beam="1">  1        1 0.70915947E+00 0.47935970E+04</pdfrwt>
<pdfrwt beam="2">  1       -1 0.19173104E+00 0.47935970E+04</pdfrwt>
<totfact> 0.30911230E-03</totfact>
</mgrwt>
</event>
<event>
 6    1  0.1780144E-005  0.2664854E+04  0.7818608E-02  0.8346499E-01
          2   -1    0    0  501    0  0.00000000000E+00  0.00000000000E+00  0.97142666953E+03  0.97142666953E+03  0.00000000000E+00 0. -1.
         -2   -1    0    0    0  501 -0.00000000000E+00 -0.00000000000E+00 -0.18275824441E+04  0.18275824441E+04  0.00000000000E+00 0.  1.
         23    2    1    2    0    0 -0.60833387847E+03 -0.61573995390E+03  0.63348448482E+03  0.10761527932E+04  0.87157577001E+02 0.  0.
         13    1    3    3    0    0 -0.21623665848E+03 -0.25011818367E+03  0.28698388304E+03  0.43780948756E+03  0.00000000000E+00 0.  1.
        -13    1    3    3    0    0 -0.39209721999E+03 -0.36562177023E+03  0.34650060178E+03  0.63834330561E+03  0.00000000000E+00 0. -1.
         22    1    1    2    0    0  0.60833387847E+03  0.61573995390E+03 -0.14896402594E+04  0.17228563204E+04  0.00000000000E+00 0.  1.
<mgrwt>
<rscale>  0 0.26648545E+04</rscale>
<asrwt>0</asrwt>
<pdfrwt beam="1">  1        2 0.14945026E+00 0.26648545E+04</pdfrwt>
<pdfrwt beam="2">  1       -2 0.28116653E+00 0.26648545E+04</pdfrwt>
<totfact> 0.95808693E-01</totfact>
</mgrwt>
</event>
<event>
 6    1  0.1780144E-005  0.2355860E+04  0.7818608E-02  0.8456216E-01
         -1   -1    0    0    0  501 -0.00000000000E+00  0.00000000000E+00  0.60102567013E+03  0.60102567013E+03  0.00000000000E+00 0.  1.
          1   -1    0    0  501    0  0.00000000000E+00 -0.00000000000E+00 -0.23085845504E+04  0.23085845504E+04  0.00000000000E+00 0. -1.
         23    2    1    2    0    0 -0.10811953174E+04  0.14447938288E+03 -0.13981955684E+04  0.17757833973E+04  0.92726587236E+02 0.  0.
         11    1    3    3    0    0 -0.56723682782E+03  0.10504410462E+03 -0.79677232826E+03  0.98368593862E+03  0.00000000000E+00 0.  1.
        -11    1    3    3    0    0 -0.51395848957E+03  0.39435278267E+02 -0.60142324018E+03  0.79209745865E+03  0.00000000000E+00 0. -1.
         22    1    1    2    0    0  0.10811953174E+04 -0.14447938288E+03 -0.30936331183E+03  0.11338268233E+04  0.00000000000E+00 0.  1.
<mgrwt>
<rscale>  0 0.23558596E+04</rscale>
<asrwt>0</asrwt>
<pdfrwt beam="1">  1        1 0.35516685E+00 0.23558596E+04</pdfrwt>
<pdfrwt beam="2">  1       -1 0.92465490E-01 0.23558596E+04</pdfrwt>
<totfact> 0.18784930E+00</totfact>
</mgrwt>
</event>
<event>
 6    1  0.1780144E-005  0.2779754E+04  0.7818608E-02  0.8309582E-01
          2   -1    0    0  501    0  0.00000000000E+00  0.00000000000E+00  0.27671919823E+04  0.27671919823E+04  0.00000000000E+00 0. -1.
         -2   -1    0    0    0  501 -0.00000000000E+00 -0.00000000000E+00 -0.69809317790E+03  0.69809317790E+03  0.00000000000E+00 0.  1.
         23    2    1    2    0    0  0.32943006150E+03  0.10656228015E+04  0.20661979045E+04  0.23498997848E+04  0.93696839125E+02 0.  0.
         11    1    3    3    0    0  0.20385692909E+03  0.56427380336E+03  0.10313049829E+04  0.11931272105E+04  0.00000000000E+00 0. -1.
        -11    1    3    3    0    0  0.12557313241E+03  0.50134899814E+03  0.10348929216E+04  0.11567725743E+04  0.00000000000E+00 0.  1.
         22    1    1    2    0    0 -0.32943006150E+03 -0.10656228015E+04  0.29008999601E+01  0.11153853754E+04  0.00000000000E+00 0.  1.
<mgrwt>
<rscale>  0 0.27797538E+04</rscale>
<asrwt>0</asrwt>
<pdfrwt beam="1">  1        2 0.42572184E+00 0.27797538E+04</pdfrwt>
<pdfrwt beam="2">  1       -2 0.10739895E+00 0.27797538E+04</pdfrwt>
<totfact> 0.14680973E+00</totfact>
</mgrwt>
</event>
<event>
 6    1  0.1780144E-005  0.2528113E+04  0.7818608E-02  0.8393038E-01
          2   -1    0    0  501    0  0.00000000000E+00  0.00000000000E+00  0.47041503817E+03  0.47041503817E+03  0.00000000000E+00 0. -1.
         -2   -1    0    0    0  501 -0.00000000000E+00 -0.00000000000E+00 -0.33966576824E+04  0.33966576824E+04  0.00000000000E+00 0.  1.
         23    2    1    2    0    0 -0.21123110216E+03 -0.11881700223E+04 -0.89663849036E+03  0.15057892556E+04  0.84107785637E+02 0.  0.
         11    1    3    3    0    0 -0.15199667079E+03 -0.97067362341E+03 -0.76055796637E+03  0.12424808615E+04  0.00000000000E+00 0. -1.
        -11    1    3    3    0    0 -0.59234431375E+02 -0.21749639888E+03 -0.13608052400E+03  0.26330839409E+03  0.00000000000E+00 0.  1.
         22    1    1    2    0    0  0.21123110216E+03  0.11881700223E+04 -0.20296041539E+04  0.23612834650E+04  0.00000000000E+00 0.  1.
<mgrwt>
<rscale>  0 0.25281130E+04</rscale>
<asrwt>0</asrwt>
<pdfrwt beam="1">  1        2 0.72371546E-01 0.25281130E+04</pdfrwt>
<pdfrwt beam="2">  1       -2 0.52256271E+00 0.25281130E+04</pdfrwt>
<totfact> 0.70510762E-02</totfact>
</mgrwt>
</event>
<event>
 6    1  0.1780144E-005  0.3358087E+04  0.7818608E-02  0.8148270E-01
         -1   -1    0    0    0  501 -0.00000000000E+00  0.00000000000E+00  0.14847518815E+04  0.14847518815E+04  0.00000000000E+00 0.  1.
          1   -1    0    0  501    0  0.00000000000E+00 -0.00000000000E+00 -0.18987595804E+04  0.18987595804E+04  0.00000000000E+00 0. -1.
         23    2    1    2    0    0  0.11887546088E+04  0.11333294538E+04  0.13823406351E+03  0.16507263815E+04  0.90640826907E+02 0.  0.
         13    1    3    3    0    0  0.60979234092E+03  0.51994837438E+03  0.76146385628E+02  0.80497905756E+03  0.00000000000E+00 0. -1.
        -13    1    3    3    0    0  0.57896226786E+03  0.61338107946E+03  0.62087677882E+02  0.84574732396E+03  0.00000000000E+00 0.  1.
         22    1    1    2    0    0 -0.11887546088E+04 -0.11333294538E+04 -0.55224176240E+03  0.17327850804E+04  0.00000000000E+00 0. -1.
<mgrwt>
<rscale>  0 0.33580869E+04</rscale>
<asrwt>0</asrwt>
<pdfrwt beam="1">  1        1 0.29211686E+00 0.33580869E+04</pdfrwt>
<pdfrwt beam="2">  1       -1 0.22842337E+00 0.33580869E+04</pdfrwt>
<totfact> 0.27870062E-01</totfact>
</mgrwt>
</event>
<event>
 6    1  0.1780144E-005  0.1887219E+04  0.7818608E-02  0.8661245E-01
          2   -1    0    0  501    0  0.00000000000E+00  0.00000000000E+00  0.17146512787E+04  0.17146512787E+04  0.00000000000E+00 0. -1.
         -2   -1    0    0    0  501 -0.00000000000E+00 -0.00000000000E+00 -0.51928849019E+03  0.51928849019E+03  0.00000000000E+00 0.  1.
         23    2    1    2    0    0 -0.61916295163E+03  0.63691431255E+03  0.22986944566E+03  0.92199464911E+03  0.90617706472E+02 0.  0.
         11    1    3    3    0    0 -0.28003147172E+03  0.23854489900E+03  0.12417518905E+03  0.38825348880E+03  0.00000000000E+00 0. -1.
        -11    1    3    3    0    0 -0.33913147991E+03  0.39836941356E+03  0.10569425661E+03  0.53374116031E+03  0.00000000000E+00 0.  1.
         22    1    1    2    0    0  0.61916295163E+03 -0.63691431255E+03  0.96549334283E+03  0.13119451198E+04  0.00000000000E+00 0. -1.
<mgrwt>
<rscale>  0 0.18872188E+04</rscale>
<asrwt>0</asrwt>
<pdfrwt beam="1">  1        2 0.26379250E+00 0.18872188E+04</pdfrwt>
<pdfrwt beam="2">  1       -2 0.79890538E-01 0.18872188E+04</pdfrwt>
<totfact> 0.12510331E+01</totfact>
</mgrwt>
</event>
<event>
 6    1  0.1780144E-005  0.1238895E+04  0.7818608E-02  0.9079477E-01
         -2   -1    0    0    0  501 -0.00000000000E+00  0.00000000000E+00  0.21050841323E+03  0.21050841323E+03  0.00000000000E+00 0.  1.
          2   -1    0    0  501    0  0.00000000000E+00 -0.00000000000E+00 -0.18228020441E+04  0.18228020441E+04  0.00000000000E+00 0. -1.
         23    2    1    2    0    0  0.35546809516E+03  0.49926767566E+03 -0.70765504479E+03  0.94060887407E+03  0.91343379238E+02 0.  0.
         13    1    3    3    0    0  0.18732082630E+03  0.18888591478E+03 -0.28321705170E+03  0.38856000713E+03  0.00000000000E+00 0. -1.
        -13    1    3    3    0    0  0.16814726886E+03  0.31038176088E+03 -0.42443799309E+03  0.55204886694E+03  0.00000000000E+00 0.  1.
         22    1    1    2    0    0 -0.35546809516E+03 -0.49926767566E+03 -0.90463858610E+03  0.10927015833E+04  0.00000000000E+00 0. -1.
<mgrwt>
<rscale>  0 0.12388949E+04</rscale>
<asrwt>0</asrwt>
<pdfrwt beam="1">  1        2 0.28043107E+00 0.12388949E+04</pdfrwt>
<pdfrwt beam="2">  1       -2 0.32385911E-01 0.12388949E+04</pdfrwt>
<totfact> 0.73271864E+01</totfact>
</mgrwt>
</event>
<event>
 6    1  0.1780144E-005  0.1645412E+04  0.7818608E-02  0.8793125E-01
         -2   -1    0    0    0  501 -0.00000000000E+00  0.00000000000E+00  0.97635606957E+03  0.97635606957E+03  0.00000000000E+00 0. -1.
          2   -1    0    0  501    0  0.00000000000E+00 -0.00000000000E+00 -0.69323616801E+03  0.69323616801E+03  0.00000000000E+00 0.  1.
         23    2    1    2    0    0  0.36765034639E+03  0.20351495315E+03  0.85676848761E+03  0.95849603197E+03  0.89873736944E+02 0.  0.
         13    1    3    3    0    0  0.83687307040E+01  0.99396323275E+00  0.66956668451E+02  0.67484954372E+02  0.00000000000E+00 0. -1.
        -13    1    3    3    0    0  0.35928161568E+03  0.20252098991E+03  0.78981181916E+03  0.89101107760E+03  0.00000000000E+00 0.  1.
         22    1    1    2    0    0 -0.36765034639E+03 -0.20351495315E+03 -0.57364858605E+03  0.71109620561E+03  0.00000000000E+00 0.  1.
<mgrwt>
<rscale>  0 0.16454122E+04</rscale>
<asrwt>0</asrwt>
<pdfrwt beam="1">  1        2 0.10665172E+00 0.16454122E+04</pdfrwt>
<pdfrwt beam="2">  1       -2 0.15020863E+00 0.16454122E+04</pdfrwt>
<totfact> 0.11825779E+01</totfact>
</mgrwt>
</event>
<event>
 6    1  0.1780144E-005  0.6958867E+03  0.7818608E-02  0.9724292E-01
          1   -1    0    0  501    0  0.00000000000E+00  0.00000000000E+00  0.28342119459E+03  0.28342119459E+03  0.00000000000E+00 0. -1.
         -1   -1    0    0    0  501 -0.00000000000E+00 -0.00000000000E+00 -0.42715430850E+03  0.42715430850E+03  0.00000000000E+00 0.  1.
         23    2    1    2    0    0  0.28084403463E+03  0.16891213349E+03 -0.17285528835E+03  0.38155759829E+03  0.91118436516E+02 0.  0.
         13    1    3    3    0    0  0.18506039783E+03  0.93340688981E+02 -0.15374278302E+03  0.25806332245E+03  0.00000000000E+00 0.  1.
        -13    1    3    3    0    0  0.95783636806E+02  0.75571444511E+02 -0.19112505329E+02  0.12349427584E+03  0.00000000000E+00 0. -1.
         22    1    1    2    0    0 -0.28084403463E+03 -0.16891213349E+03  0.29122174444E+02  0.32901790479E+03  0.00000000000E+00 0.  1.
<mgrwt>
<rscale>  0 0.69588673E+03</rscale>
<asrwt>0</asrwt>
<pdfrwt beam="1">  1        1 0.43603261E-01 0.69588673E+03</pdfrwt>
<pdfrwt beam="2">  1       -1 0.65716047E-01 0.69588673E+03</pdfrwt>
<totfact> 0.22485731E+02</totfact>
</mgrwt>
</event>
<event>
 6    1  0.1780144E-005  0.5696621E+04  0.7818608E-02  0.7729199E-01
         -2   -1    0    0    0  501 -0.00000000000E+00  0.00000000000E+00  0.17918657877E+04  0.17918657877E+04  0.00000000000E+00 0. -1.
          2   -1    0    0  501    0  0.00000000000E+00 -0.00000000000E+00 -0.45276114255E+04  0.45276114255E+04  0.00000000000E+00 0.  1.
         23    2    1    2    0    0 -0.14346121462E+04  0.68443014969E+03 -0.39891763557E+04  0.42952130988E+04  0.93653229202E+02 0.  0.
         13    1    3    3    0    0 -0.12121732319E+04  0.54001672816E+03 -0.33126109592E+04  0.35685253786E+04  0.00000000000E+00 0. -1.
        -13    1    3    3    0    0 -0.22243891431E+03  0.14441342152E+03 -0.67656539652E+03  0.72668772019E+03  0.00000000000E+00 0.  1.
         22    1    1    2    0    0  0.14346121462E+04 -0.68443014969E+03  0.12534307179E+04  0.20242641144E+04  0.00000000000E+00 0. -1.
<mgrwt>
<rscale>  0 0.56966208E+04</rscale>
<asrwt>0</asrwt>
<pdfrwt beam="1">  1        2 0.69655560E+00 0.56966208E+04</pdfrwt>
<pdfrwt beam="2">  1       -2 0.27567166E+00 0.56966208E+04</pdfrwt>
<totfact> 0.35233925E-03</totfact>
</mgrwt>
</event>
<event>
 6    1  0.1780144E-005  0.1427508E+04  0.7818608E-02  0.8934144E-01
          2   -1    0    0  501    0  0.00000000000E+00  0.00000000000E+00  0.49767112029E+03  0.49767112029E+03  0.00000000000E+00 0. -1.
         -2   -1    0    0    0  501 -0.00000000000E+00 -0.00000000000E+00 -0.10236576030E+04  0.10236576030E+04  0.00000000000E+00 0.  1.
         23    2    1    2    0    0  0.16943989574E+03  0.53126830269E+03 -0.73389247346E+03  0.92619782286E+03  0.91040412802E+02 0.  0.
         13    1    3    3    0    0  0.86942688630E+02  0.36469750085E+03 -0.54202809033E+03  0.65905822879E+03  0.00000000000E+00 0. -1.
        -13    1    3    3    0    0  0.82497207109E+02  0.16657080183E+03 -0.19186438313E+03  0.26713959407E+03  0.00000000000E+00 0.  1.
         22    1    1    2    0    0 -0.16943989574E+03 -0.53126830269E+03  0.20790599073E+03  0.59513090046E+03  0.00000000000E+00 0.  1.
<mgrwt>
<rscale>  0 0.14275081E+04</rscale>
<asrwt>0</asrwt>
<pdfrwt beam="1">  1        2 0.76564788E-01 0.14275081E+04</pdfrwt>
<pdfrwt beam="2">  1       -2 0.15748578E+00 0.14275081E+04</pdfrwt>
<totfact> 0.15800364E+01</totfact>
</mgrwt>
</event>
<event>
 6    1  0.1780144E-005  0.1947604E+04  0.7818608E-02  0.8631517E-01
         -2   -1    0    0    0  501 -0.00000000000E+00  0.00000000000E+00  0.67658054753E+03  0.67658054753E+03  0.00000000000E+00 0.  1.
          2   -1    0    0  501    0  0.00000000000E+00 -0.00000000000E+00 -0.14015932957E+04  0.14015932957E+04  0.00000000000E+00 0. -1.
         23    2    1    2    0    0 -0.53429656431E+03 -0.62675029458E+03 -0.91392757900E+03  0.12332019125E+04  0.85056374567E+02 0.  0.
         13    1    3    3    0    0 -0.21429833739E+03 -0.30929883371E+03 -0.38679929829E+03  0.53963250745E+03  0.00000000000E+00 0.  1.
        -13    1    3    3    0    0 -0.31999822692E+03 -0.31745146087E+03 -0.52712828071E+03  0.69356940501E+03  0.00000000000E+00 0. -1.
         22    1    1    2    0    0  0.53429656431E+03  0.62675029458E+03  0.18891483087E+03  0.84497193073E+03  0.00000000000E+00 0.  1.
<mgrwt>
<rscale>  0 0.19476044E+04</rscale>
<asrwt>0</asrwt>
<pdfrwt beam="1">  1        2 0.21562974E+00 0.19476044E+04</pdfrwt>
<pdfrwt beam="2">  1       -2 0.10408932E+00 0.19476044E+04</pdfrwt>
<totfact> 0.10114323E+01</totfact>
</mgrwt>
</event>
<event>
 6    1  0.1780144E-005  0.2315345E+04  0.7818608E-02  0.8471895E-01
         -1   -1    0    0    0  501 -0.00000000000E+00  0.00000000000E+00  0.10786982200E+04  0.10786982200E+04  0.00000000000E+00 0.  1.
          1   -1    0    0  501    0  0.00000000000E+00 -0.00000000000E+00 -0.12424282176E+04  0.12424282176E+04  0.00000000000E+00 0. -1.
         23    2    1    2    0    0 -0.59902699335E+03 -0.21888848657E+03  0.88453426204E+03  0.10940960930E+04  0.88881334799E+02 0.  0.
         11    1    3    3    0    0 -0.39288655336E+03 -0.15453729099E+03  0.51329141865E+03  0.66461244239E+03  0.00000000000E+00 0.  1.
        -11    1    3    3    0    0 -0.20614043999E+03 -0.64351195576E+02  0.37124284339E+03  0.42948365061E+03  0.00000000000E+00 0. -1.
         22    1    1    2    0    0  0.59902699335E+03  0.21888848657E+03 -0.10482642597E+04  0.12270303446E+04  0.00000000000E+00 0. -1.
<mgrwt>
<rscale>  0 0.23153446E+04</rscale>
<asrwt>0</asrwt>
<pdfrwt beam="1">  1        1 0.19114280E+00 0.23153446E+04</pdfrwt>
<pdfrwt beam="2">  1       -1 0.16595357E+00 0.23153446E+04</pdfrwt>
<totfact> 0.23684625E+00</totfact>
</mgrwt>
</event>
<event>
 6    1  0.1780144E-005  0.1255521E+04  0.7818608E-02  0.9065601E-01
         -2   -1    0    0    0  501 -0.00000000000E+00  0.00000000000E+00  0.47941286565E+03  0.47941286565E+03  0.00000000000E+00 0.  1.
          2   -1    0    0  501    0  0.00000000000E+00 -0.00000000000E+00 -0.82201207433E+03  0.82201207433E+03  0.00000000000E+00 0. -1.
         23    2    1    2    0    0 -0.80212500744E+02  0.61619844041E+03 -0.10733992710E+03  0.63698420311E+03  0.89958055935E+02 0.  0.
         13    1    3    3    0    0 -0.23952357468E+02  0.27282362666E+03 -0.36045969909E+01  0.27389676853E+03  0.00000000000E+00 0. -1.
        -13    1    3    3    0    0 -0.56260143275E+02  0.34337481374E+03 -0.10373533011E+03  0.36308743458E+03  0.00000000000E+00 0.  1.
         22    1    1    2    0    0  0.80212500744E+02 -0.61619844041E+03 -0.23525928159E+03  0.66444073687E+03  0.00000000000E+00 0.  1.
<mgrwt>
<rscale>  0 0.12555209E+04</rscale>
<asrwt>0</asrwt>
<pdfrwt beam="1">  1        2 0.12646340E+00 0.12555209E+04</pdfrwt>
<pdfrwt beam="2">  1       -2 0.73755826E-01 0.12555209E+04</pdfrwt>
<totfact> 0.54135457E+01</totfact>
</mgrwt>
</event>
<event>
 6    1  0.1780144E-005  0.2235936E+04  0.7818608E-02  0.8503618E-01
         -2   -1    0    0    0  501 -0.00000000000E+00  0.00000000000E+00  0.69330520347E+03  0.69330520347E+03  0.00000000000E+00 0.  1.
          2   -1    0    0  501    0  0.00000000000E+00 -0.00000000000E+00 -0.18027453272E+04  0.18027453272E+04  0.00000000000E+00 0. -1.
         23    2    1    2    0    0  0.84203993608E+03  0.69355194776E+03 -0.29158263700E+03  0.11326223416E+04  0.88132719418E+02 0.  0.
         13    1    3    3    0    0  0.60747042529E+03  0.49979031142E+03 -0.16891073794E+03  0.80457536029E+03  0.00000000000E+00 0. -1.
        -13    1    3    3    0    0  0.23456951079E+03  0.19376163634E+03 -0.12267189907E+03  0.32804698128E+03  0.00000000000E+00 0.  1.
         22    1    1    2    0    0 -0.84203993608E+03 -0.69355194776E+03 -0.81785748672E+03  0.13634281891E+04  0.00000000000E+00 0.  1.
<mgrwt>
<rscale>  0 0.22359362E+04</rscale>
<asrwt>0</asrwt>
<pdfrwt beam="1">  1        2 0.27734543E+00 0.22359362E+04</pdfrwt>
<pdfrwt beam="2">  1       -2 0.10666234E+00 0.22359362E+04</pdfrwt>
<totfact> 0.55468596E+00</totfact>
</mgrwt>
</event>
<event>
 6    1  0.1780144E-005  0.3603945E+04  0.7818608E-02  0.8089589E-01
          1   -1    0    0  501    0  0.00000000000E+00  0.00000000000E+00  0.14929547824E+04  0.14929547824E+04  0.00000000000E+00 0. -1.
         -1   -1    0    0    0  501 -0.00000000000E+00 -0.00000000000E+00 -0.21749516797E+04  0.21749516797E+04  0.00000000000E+00 0.  1.
         23    2    1    2    0    0  0.15330209986E+04  0.62498162115E+03  0.37991390808E+03  0.17010790758E+04  0.92628481082E+02 0.  0.
         13    1    3    3    0    0  0.14989715889E+04  0.60698365287E+03  0.35657793003E+03  0.16560473421E+04  0.00000000000E+00 0.  1.
        -13    1    3    3    0    0  0.34049409756E+02  0.17997968275E+02  0.23335978049E+02  0.45031733681E+02  0.00000000000E+00 0. -1.
         22    1    1    2    0    0 -0.15330209986E+04 -0.62498162115E+03 -0.10619108054E+04  0.19668273863E+04  0.00000000000E+00 0.  1.
<mgrwt>
<rscale>  0 0.36039448E+04</rscale>
<asrwt>0</asrwt>
<pdfrwt beam="1">  1        1 0.22968535E+00 0.36039448E+04</pdfrwt>
<pdfrwt beam="2">  1       -1 0.33460795E+00 0.36039448E+04</pdfrwt>
<totfact> 0.10502525E-01</totfact>
</mgrwt>
</event>
<event>
 6    1  0.1780144E-005  0.2039685E+04  0.7818608E-02  0.8588288E-01
         -1   -1    0    0    0  501 -0.00000000000E+00  0.00000000000E+00  0.12228269415E+04  0.12228269415E+04  0.00000000000E+00 0.  1.
          1   -1    0    0  501    0  0.00000000000E+00 -0.00000000000E+00 -0.85055255487E+03  0.85055255487E+03  0.00000000000E+00 0. -1.
         23    2    1    2    0    0  0.90428611077E+03 -0.31926865638E+03  0.53301848748E+03  0.11010089337E+04  0.91902769713E+02 0.  0.
         13    1    3    3    0    0  0.64005198781E+03 -0.21782877865E+03  0.42190049746E+03  0.79694162500E+03  0.00000000000E+00 0. -1.
        -13    1    3    3    0    0  0.26423412296E+03 -0.10143987773E+03  0.11111799002E+03  0.30406730873E+03  0.00000000000E+00 0.  1.
         22    1    1    2    0    0 -0.90428611077E+03  0.31926865638E+03 -0.16074410087E+03  0.97237056261E+03  0.00000000000E+00 0. -1.
<mgrwt>
<rscale>  0 0.20396849E+04</rscale>
<asrwt>0</asrwt>
<pdfrwt beam="1">  1        1 0.13085424E+00 0.20396849E+04</pdfrwt>
<pdfrwt beam="2">  1       -1 0.18812722E+00 0.20396849E+04</pdfrwt>
<totfact> 0.33686689E+00</totfact>
</mgrwt>
</event>
<event>
 6    1  0.1780144E-005  0.2790059E+04  0.7818608E-02  0.8306361E-01
          1   -1    0    0  501    0  0.00000000000E+00  0.00000000000E+00  0.91471327715E+03  0.91471327715E+03  0.00000000000E+00 0. -1.
         -1   -1    0    0    0  501 -0.00000000000E+00 -0.00000000000E+00 -0.21275598072E+04  0.21275598072E+04  0.00000000000E+00 0.  1.
         23    2    1    2    0    0 -0.35919570522E+03 -0.60614985788E+03 -0.19180840910E+04  0.20453782943E+04  0.89925424344E+02 0.  0.
         11    1    3    3    0    0 -0.21847297731E+03 -0.37612050276E+03 -0.10550136678E+04  0.11411620891E+04  0.00000000000E+00 0.  1.
        -11    1    3    3    0    0 -0.14072272791E+03 -0.23002935512E+03 -0.86307042318E+03  0.90421620519E+03  0.00000000000E+00 0. -1.
         22    1    1    2    0    0  0.35919570522E+03  0.60614985788E+03  0.70523756098E+03  0.99689478997E+03  0.00000000000E+00 0. -1.
<mgrwt>
<rscale>  0 0.27900589E+04</rscale>
<asrwt>0</asrwt>
<pdfrwt beam="1">  1        1 0.14072512E+00 0.27900589E+04</pdfrwt>
<pdfrwt beam="2">  1       -1 0.32731689E+00 0.27900589E+04</pdfrwt>
<totfact> 0.33615376E-01</totfact>
</mgrwt>
</event>
<event>
 6    1  0.1780144E-005  0.1817834E+04  0.7818608E-02  0.8696873E-01
         -1   -1    0    0    0  501 -0.00000000000E+00  0.00000000000E+00  0.65157384575E+03  0.65157384575E+03  0.00000000000E+00 0.  1.
          1   -1    0    0  501    0  0.00000000000E+00 -0.00000000000E+00 -0.12678989877E+04  0.12678989877E+04  0.00000000000E+00 0. -1.
         23    2    1    2    0    0 -0.52878083290E+03 -0.60983168313E+03  0.12767133630E+03  0.82173214884E+03  0.86254874212E+02 0.  0.
         11    1    3    3    0    0 -0.79381449421E+02 -0.98089621744E+02  0.52009757716E+02  0.13648444345E+03  0.00000000000E+00 0.  1.
        -11    1    3    3    0    0 -0.44939938348E+03 -0.51174206139E+03  0.75661578587E+02  0.68524770539E+03  0.00000000000E+00 0. -1.
         22    1    1    2    0    0  0.52878083290E+03  0.60983168313E+03 -0.74399647823E+03  0.10977406846E+04  0.00000000000E+00 0. -1.
<mgrwt>
<rscale>  0 0.18178337E+04</rscale>
<asrwt>0</asrwt>
<pdfrwt beam="1">  1        1 0.19506138E+00 0.18178337E+04</pdfrwt>
<pdfrwt beam="2">  1       -1 0.10024213E+00 0.18178337E+04</pdfrwt>
<totfact> 0.85190854E+00</totfact>
</mgrwt>
</event>
<event>
 6    1  0.1780144E-005  0.1835636E+04  0.7818608E-02  0.8687575E-01
          2   -1    0    0  501    0  0.00000000000E+00  0.00000000000E+00  0.57821082230E+03  0.57821082230E+03  0.00000000000E+00 0. -1.
         -2   -1    0    0    0  501 -0.00000000000E+00 -0.00000000000E+00 -0.14568913135E+04  0.14568913135E+04  0.00000000000E+00 0.  1.
         23    2    1    2    0    0  0.89947126459E+03  0.13127756299E+03 -0.56161448426E+03  0.10723907527E+04  0.91261947850E+02 0.  0.
         13    1    3    3    0    0  0.49687283992E+03  0.73680507587E+02 -0.36330033846E+03  0.61991819797E+03  0.00000000000E+00 0. -1.
        -13    1    3    3    0    0  0.40259842467E+03  0.57597055406E+02 -0.19831414580E+03  0.45247255471E+03  0.00000000000E+00 0.  1.
         22    1    1    2    0    0 -0.89947126459E+03 -0.13127756299E+03 -0.31706600689E+03  0.96271138307E+03  0.00000000000E+00 0. -1.
<mgrwt>
<rscale>  0 0.18356365E+04</rscale>
<asrwt>0</asrwt>
<pdfrwt beam="1">  1        2 0.88955512E-01 0.18356365E+04</pdfrwt>
<pdfrwt beam="2">  1       -2 0.22413712E+00 0.18356365E+04</pdfrwt>
<totfact> 0.45404629E+00</totfact>
</mgrwt>
</event>
<event>
 6    1  0.1780144E-005  0.1214521E+04  0.7818608E-02  0.9100240E-01
         -2   -1    0    0    0  501 -0.00000000000E+00  0.00000000000E+00  0.11452127528E+03  0.11452127528E+03  0.00000000000E+00 0.  1.
          2   -1    0    0  501    0  0.00000000000E+00 -0.00000000000E+00 -0.32200597509E+04  0.32200597509E+04  0.00000000000E+00 0. -1.
         23    2    1    2    0    0 -0.52531229259E+03  0.29015513052E+03 -0.13652044413E+04  0.14936829965E+04  0.84632872291E+02 0.  0.
         13    1    3    3    0    0 -0.31029738261E+03  0.13105136431E+03 -0.70429563836E+03  0.78069921990E+03  0.00000000000E+00 0.  1.
        -13    1    3    3    0    0 -0.21501490998E+03  0.15910376621E+03 -0.66090880294E+03  0.71298377663E+03  0.00000000000E+00 0. -1.
         22    1    1    2    0    0  0.52531229259E+03 -0.29015513052E+03 -0.17403340343E+04  0.18408980296E+04  0.00000000000E+00 0.  1.
<mgrwt>
<rscale>  0 0.12145211E+04</rscale>
<asrwt>0</asrwt>
<pdfrwt beam="1">  1        2 0.49539390E+00 0.12145211E+04</pdfrwt>
<pdfrwt beam="2">  1       -2 0.17618654E-01 0.12145211E+04</pdfrwt>
<totfact> 0.33685954E+01</totfact>
</mgrwt>
</event>
<event>
 6    1  0.1780144E-005  0.1330091E+04  0.7818608E-02  0.9006037E-01
          1   -1    0    0  501    0  0.00000000000E+00  0.00000000000E+00  0.59597019076E+03  0.59597019076E+03  0.00000000000E+00 0. -1.
         -1   -1    0    0    0  501 -0.00000000000E+00 -0.00000000000E+00 -0.74212731786E+03  0.74212731786E+03  0.00000000000E+00 0.  1.
         23    2    1    2    0    0 -0.66027074891E+03  0.41771364640E+02 -0.51574700611E+02  0.66978011084E+03  0.90791730702E+02 0.  0.
         11    1    3    3    0    0 -0.46015297488E+03 -0.85983041011E+01 -0.17022569045E+02  0.46054799856E+03  0.00000000000E+00 0.  1.
        -11    1    3    3    0    0 -0.20011777403E+03  0.50369668741E+02 -0.34552131566E+02  0.20923211228E+03  0.00000000000E+00 0. -1.
         22    1    1    2    0    0  0.66027074891E+03 -0.41771364640E+02 -0.94582426491E+02  0.66831739777E+03  0.00000000000E+00 0.  1.
<mgrwt>
<rscale>  0 0.13300914E+04</rscale>
<asrwt>0</asrwt>
<pdfrwt beam="1">  1        1 0.91687721E-01 0.13300914E+04</pdfrwt>
<pdfrwt beam="2">  1       -1 0.11417343E+00 0.13300914E+04</pdfrwt>
<totfact> 0.23687782E+01</totfact>
</mgrwt>
</event>
<event>
 6    1  0.1780144E-005  0.1921276E+04  0.7818608E-02  0.8644338E-01
          2   -1    0    0  501    0  0.00000000000E+00  0.00000000000E+00  0.31062965505E+04  0.31062965505E+04  0.00000000000E+00 0. -1.
         -2   -1    0    0    0  501 -0.00000000000E+00 -0.00000000000E+00 -0.29708206457E+03  0.29708206457E+03  0.00000000000E+00 0.  1.
         23    2    1    2    0    0 -0.49749114536E+03  0.23971912384E+03  0.19912312082E+02  0.55993540039E+03  0.90379502064E+02 0.  0.
         13    1    3    3    0    0 -0.19636666883E+03  0.12253088858E+03  0.45168644453E+02  0.23582598187E+03  0.00000000000E+00 0. -1.
        -13    1    3    3    0    0 -0.30112447653E+03  0.11718823526E+03 -0.25256332372E+02  0.32410941852E+03  0.00000000000E+00 0.  1.
         22    1    1    2    0    0  0.49749114536E+03 -0.23971912384E+03  0.27893021738E+04  0.28434432146E+04  0.00000000000E+00 0. -1.
<mgrwt>
<rscale>  0 0.19212756E+04</rscale>
<asrwt>0</asrwt>
<pdfrwt beam="1">  1        2 0.47789176E+00 0.19212756E+04</pdfrwt>
<pdfrwt beam="2">  1       -2 0.45704935E-01 0.19212756E+04</pdfrwt>
<totfact> 0.63504963E+00</totfact>
</mgrwt>
</event>
<event>
 6    1  0.1780144E-005  0.1135009E+04  0.7818608E-02  0.9171726E-01
          2   -1    0    0  501    0  0.00000000000E+00  0.00000000000E+00  0.85539654009E+03  0.85539654009E+03  0.00000000000E+00 0. -1.
         -2   -1    0    0    0  501 -0.00000000000E+00 -0.00000000000E+00 -0.37650510180E+03  0.37650510180E+03  0.00000000000E+00 0.  1.
         23    2    1    2    0    0 -0.15993470447E+03 -0.26636868493E+02  0.82718542645E+03  0.84771765649E+03  0.90004794010E+02 0.  0.
         13    1    3    3    0    0 -0.46183625569E+02  0.26644090698E+02  0.15547412823E+03  0.16436252428E+03  0.00000000000E+00 0.  1.
        -13    1    3    3    0    0 -0.11375107890E+03 -0.53280959191E+02  0.67171129822E+03  0.68335513221E+03  0.00000000000E+00 0. -1.
         22    1    1    2    0    0  0.15993470447E+03  0.26636868493E+02 -0.34829398816E+03  0.38418398541E+03  0.00000000000E+00 0.  1.
<mgrwt>
<rscale>  0 0.11350087E+04</rscale>
<asrwt>0</asrwt>
<pdfrwt beam="1">  1        2 0.13159947E+00 0.11350087E+04</pdfrwt>
<pdfrwt beam="2">  1       -2 0.57923862E-01 0.11350087E+04</pdfrwt>
<totfact> 0.86986689E+01</totfact>
</mgrwt>
</event>
<event>
 6    1  0.1780144E-005  0.3165197E+04  0.7818608E-02  0.8198070E-01
          2   -1    0    0  501    0  0.00000000000E+00  0.00000000000E+00  0.24863639373E+04  0.24863639373E+04  0.00000000000E+00 0. -1.
         -2   -1    0    0    0  501 -0.00000000000E+00 -0.00000000000E+00 -0.10073414882E+04  0.10073414882E+04  0.00000000000E+00 0.  1.
         23    2    1    2    0    0  0.13631571123E+04 -0.68451599595E+03  0.12001042817E+04  0.19430427266E+04  0.91680362330E+02 0.  0.
         11    1    3    3    0    0  0.10165411403E+04 -0.49798507145E+03  0.84047738294E+03  0.14098749067E+04  0.00000000000E+00 0.  1.
        -11    1    3    3    0    0  0.34661597198E+03 -0.18653092450E+03  0.35962689879E+03  0.53316781988E+03  0.00000000000E+00 0. -1.
         22    1    1    2    0    0 -0.13631571123E+04  0.68451599595E+03  0.27891816734E+03  0.15506626989E+04  0.00000000000E+00 0.  1.
<mgrwt>
<rscale>  0 0.31651967E+04</rscale>
<asrwt>0</asrwt>
<pdfrwt beam="1">  1        2 0.38251753E+00 0.31651967E+04</pdfrwt>
<pdfrwt beam="2">  1       -2 0.15497561E+00 0.31651967E+04</pdfrwt>
<totfact> 0.82204416E-01</totfact>
</mgrwt>
</event>
<event>
 6    1  0.3141410E-005  0.3263899E+04  0.7818608E-02  0.8172142E-01
         -2   -1    0    0    0  501 -0.00000000000E+00  0.00000000000E+00  0.13596125421E+04  0.13596125421E+04  0.00000000000E+00 0.  1.
          2   -1    0    0  501    0  0.00000000000E+00 -0.00000000000E+00 -0.19588369110E+04  0.19588369110E+04  0.00000000000E+00 0. -1.
         23    2    1    2    0    0 -0.81538578192E+03  0.10236743279E+04 -0.12897037897E+04  0.18387451132E+04  0.69890078207E+02 0.  0.
         11    1    3    3    0    0 -0.41139779535E+03  0.47156056472E+03 -0.64543044401E+03  0.89899831494E+03  0.00000000000E+00 0. -1.
        -11    1    3    3    0    0 -0.40398798657E+03  0.55211376316E+03 -0.64427334570E+03  0.93974679821E+03  0.00000000000E+00 0.  1.
         22    1    1    2    0    0  0.81538578192E+03 -0.10236743279E+04  0.69047942079E+03  0.14797043399E+04  0.00000000000E+00 0.  1.
<mgrwt>
<rscale>  0 0.32638990E+04</rscale>
<asrwt>0</asrwt>
<pdfrwt beam="1">  1        2 0.30135952E+00 0.32638990E+04</pdfrwt>
<pdfrwt beam="2">  1       -2 0.20917116E+00 0.32638990E+04</pdfrwt>
<totfact> 0.68396882E-01</totfact>
</mgrwt>
</event>
<event>
 6    1  0.1927245E-005  0.2044594E+04  0.7818608E-02  0.8586051E-01
          3   -1    0    0  501    0  0.00000000000E+00  0.00000000000E+00  0.19747329368E+04  0.19747329368E+04  0.00000000000E+00 0. -1.
         -3   -1    0    0    0  501 -0.00000000000E+00 -0.00000000000E+00 -0.52923153260E+03  0.52923153260E+03  0.00000000000E+00 0.  1.
         23    2    1    2    0    0 -0.81571630492E+03  0.58581696652E+03  0.50389925863E+03  0.11273057576E+04  0.91264449930E+02 0.  0.
         11    1    3    3    0    0 -0.26791719126E+03  0.14587561018E+03  0.17294950238E+03  0.35067199117E+03  0.00000000000E+00 0.  1.
        -11    1    3    3    0    0 -0.54779911366E+03  0.43994135634E+03  0.33094975625E+03  0.77663376640E+03  0.00000000000E+00 0. -1.
         22    1    1    2    0    0  0.81571630492E+03 -0.58581696652E+03  0.94160214560E+03  0.13766587119E+04  0.00000000000E+00 0. -1.
<mgrwt>
<rscale>  0 0.20445938E+04</rscale>
<asrwt>0</asrwt>
<pdfrwt beam="1">  1        3 0.30380506E+00 0.20445938E+04</pdfrwt>
<pdfrwt beam="2">  1       -3 0.81420237E-01 0.20445938E+04</pdfrwt>
<totfact> 0.12476469E-01</totfact>
</mgrwt>
</event>
<event>
 6    1  0.1780144E-005  0.1874858E+04  0.7818608E-02  0.8667473E-01
         -1   -1    0    0    0  501 -0.00000000000E+00  0.00000000000E+00  0.37433265037E+03  0.37433265037E+03  0.00000000000E+00 0.  1.
          1   -1    0    0  501    0  0.00000000000E+00 -0.00000000000E+00 -0.23475736460E+04  0.23475736460E+04  0.00000000000E+00 0. -1.
         23    2    1    2    0    0 -0.68265394258E+02  0.89756724289E+03 -0.13569728675E+04  0.16310013851E+04  0.92211906198E+02 0.  0.
         13    1    3    3    0    0 -0.72220047421E+02  0.57952137036E+03 -0.93849849787E+03  0.11053688002E+04  0.00000000000E+00 0. -1.
        -13    1    3    3    0    0  0.39546531629E+01  0.31804587253E+03 -0.41847436962E+03  0.52563258493E+03  0.00000000000E+00 0.  1.
         22    1    1    2    0    0  0.68265394258E+02 -0.89756724289E+03 -0.61626812813E+03  0.10909049112E+04  0.00000000000E+00 0.  1.
<mgrwt>
<rscale>  0 0.18748584E+04</rscale>
<asrwt>0</asrwt>
<pdfrwt beam="1">  1        1 0.36116518E+00 0.18748584E+04</pdfrwt>
<pdfrwt beam="2">  1       -1 0.57589639E-01 0.18748584E+04</pdfrwt>
<totfact> 0.49456792E+00</totfact>
</mgrwt>
</event>
<event>
 6    1  0.1780144E-005  0.2819993E+04  0.7818608E-02  0.8297088E-01
         -2   -1    0    0    0  501 -0.00000000000E+00  0.00000000000E+00  0.22834335317E+04  0.22834335317E+04  0.00000000000E+00 0.  1.
          2   -1    0    0  501    0  0.00000000000E+00 -0.00000000000E+00 -0.87065847242E+03  0.87065847242E+03  0.00000000000E+00 0. -1.
         23    2    1    2    0    0  0.84049767774E+03 -0.98822387486E+03  0.93552356509E+02  0.13038565292E+04  0.90923221763E+02 0.  0.
         11    1    3    3    0    0  0.17004650369E+03 -0.16018221651E+03 -0.67432280739E+01  0.23370842311E+03  0.00000000000E+00 0.  1.
        -11    1    3    3    0    0  0.67045117405E+03 -0.82804165834E+03  0.10029558458E+03  0.10701481061E+04  0.00000000000E+00 0. -1.
         22    1    1    2    0    0 -0.84049767774E+03  0.98822387486E+03  0.13192227028E+04  0.18502354749E+04  0.00000000000E+00 0.  1.
<mgrwt>
<rscale>  0 0.28199934E+04</rscale>
<asrwt>0</asrwt>
<pdfrwt beam="1">  1        2 0.13394746E+00 0.28199934E+04</pdfrwt>
<pdfrwt beam="2">  1       -2 0.35129746E+00 0.28199934E+04</pdfrwt>
<totfact> 0.40726022E-01</totfact>
</mgrwt>
</event>
<event>
 6    1  0.1780144E-005  0.2544167E+04  0.7818608E-02  0.8387418E-01
         -2   -1    0    0    0  501 -0.00000000000E+00  0.00000000000E+00  0.13617065849E+04  0.13617065849E+04  0.00000000000E+00 0.  1.
          2   -1    0    0  501    0  0.00000000000E+00 -0.00000000000E+00 -0.11883589454E+04  0.11883589454E+04  0.00000000000E+00 0. -1.
         23    2    1    2    0    0 -0.15896808439E+03 -0.12396194004E+04 -0.14263946445E+03  0.12609670237E+04  0.88117583679E+02 0.  0.
         13    1    3    3    0    0 -0.12538801226E+03 -0.68794413217E+03 -0.10337953375E+03  0.70687807337E+03  0.00000000000E+00 0.  1.
        -13    1    3    3    0    0 -0.33580072132E+02 -0.55167526819E+03 -0.39259930703E+02  0.55408895038E+03  0.00000000000E+00 0. -1.
         22    1    1    2    0    0  0.15896808439E+03  0.12396194004E+04  0.31598710393E+03  0.12890985065E+04  0.00000000000E+00 0. -1.
<mgrwt>
<rscale>  0 0.25441668E+04</rscale>
<asrwt>0</asrwt>
<pdfrwt beam="1">  1        2 0.18282445E+00 0.25441668E+04</pdfrwt>
<pdfrwt beam="2">  1       -2 0.20949332E+00 0.25441668E+04</pdfrwt>
<totfact> 0.19732899E+00</totfact>
</mgrwt>
</event>
<event>
 6    1  0.3664286E-005  0.3301075E+04  0.7818608E-02  0.8162622E-01
          2   -1    0    0  501    0  0.00000000000E+00  0.00000000000E+00  0.20872197055E+04  0.20872197055E+04  0.00000000000E+00 0. -1.
         -2   -1    0    0    0  501 -0.00000000000E+00 -0.00000000000E+00 -0.13052166959E+04  0.13052166959E+04  0.00000000000E+00 0.  1.
         23    2    1    2    0    0  0.43458435097E+03  0.65621499718E+02  0.20249471003E+04  0.20740738746E+04  0.90564555796E+02 0.  0.
         13    1    3    3    0    0  0.18563883577E+03  0.44010358044E+02  0.10757181237E+04  0.10925054556E+04  0.00000000000E+00 0.  1.
        -13    1    3    3    0    0  0.24894551520E+03  0.21611141674E+02  0.94922897665E+03  0.98156841895E+03  0.00000000000E+00 0. -1.
         22    1    1    2    0    0 -0.43458435097E+03 -0.65621499718E+02 -0.12429440907E+04  0.13183625268E+04  0.00000000000E+00 0.  1.
<mgrwt>
<rscale>  0 0.33010750E+04</rscale>
<asrwt>0</asrwt>
<pdfrwt beam="1">  1        2 0.32111072E+00 0.33010750E+04</pdfrwt>
<pdfrwt beam="2">  1       -2 0.20080257E+00 0.33010750E+04</pdfrwt>
<totfact> 0.65550709E-01</totfact>
</mgrwt>
</event>
<event>
 6    1  0.1780144E-005  0.1059703E+04  0.7818608E-02  0.9245383E-01
         -2   -1    0    0    0  501 -0.00000000000E+00  0.00000000000E+00  0.33127447613E+03  0.33127447613E+03  0.00000000000E+00 0.  1.
          2   -1    0    0  501    0  0.00000000000E+00 -0.00000000000E+00 -0.84746231236E+03  0.84746231236E+03  0.00000000000E+00 0. -1.
         23    2    1    2    0    0  0.24836422329E+03 -0.39429982054E+03 -0.53168858276E+03  0.71247783787E+03  0.88174738639E+02 0.  0.
         11    1    3    3    0    0  0.89111022141E+02 -0.13757574217E+03 -0.25300933647E+03  0.30146572515E+03  0.00000000000E+00 0.  1.
        -11    1    3    3    0    0  0.15925320115E+03 -0.25672407836E+03 -0.27867924630E+03  0.41101211272E+03  0.00000000000E+00 0. -1.
         22    1    1    2    0    0 -0.24836422329E+03  0.39429982054E+03  0.15500746527E+02  0.46625895062E+03  0.00000000000E+00 0.  1.
<mgrwt>
<rscale>  0 0.10597030E+04</rscale>
<asrwt>0</asrwt>
<pdfrwt beam="1">  1        2 0.13037882E+00 0.10597030E+04</pdfrwt>
<pdfrwt beam="2">  1       -2 0.50965303E-01 0.10597030E+04</pdfrwt>
<totfact> 0.11540823E+02</totfact>
</mgrwt>
</event>
<event>
 6    1  0.1780144E-005  0.1258187E+04  0.7818608E-02  0.9063397E-01
         -1   -1    0    0    0  501 -0.00000000000E+00  0.00000000000E+00  0.34886646691E+03  0.34886646691E+03  0.00000000000E+00 0.  1.
          1   -1    0    0  501    0  0.00000000000E+00 -0.00000000000E+00 -0.11344131442E+04  0.11344131442E+04  0.00000000000E+00 0. -1.
         23    2    1    2    0    0 -0.17289986292E+03 -0.31655306020E+02 -0.11028058478E+04  0.11205816621E+04  0.92876814314E+02 0.  0.
         11    1    3    3    0    0 -0.43151848800E+02  0.21312396033E+02 -0.15019964218E+03  0.15772201112E+03  0.00000000000E+00 0. -1.
        -11    1    3    3    0    0 -0.12974801412E+03 -0.52967702053E+02 -0.95260620558E+03  0.96285965101E+03  0.00000000000E+00 0.  1.
         22    1    1    2    0    0  0.17289986292E+03  0.31655306020E+02  0.31725917044E+03  0.36269794902E+03  0.00000000000E+00 0.  1.
<mgrwt>
<rscale>  0 0.12581871E+04</rscale>
<asrwt>0</asrwt>
<pdfrwt beam="1">  1        1 0.17452510E+00 0.12581871E+04</pdfrwt>
<pdfrwt beam="2">  1       -1 0.53671764E-01 0.12581871E+04</pdfrwt>
<totfact> 0.41242706E+01</totfact>
</mgrwt>
</event>
<event>
 6    1  0.1780144E-005  0.1200601E+04  0.7818608E-02  0.9112331E-01
         -2   -1    0    0    0  501 -0.00000000000E+00  0.00000000000E+00  0.27040748061E+03  0.27040748061E+03  0.00000000000E+00 0.  1.
          2   -1    0    0  501    0  0.00000000000E+00 -0.00000000000E+00 -0.13326582302E+04  0.13326582302E+04  0.00000000000E+00 0. -1.
         23    2    1    2    0    0 -0.35637454259E+02  0.22172638389E+03 -0.12722231581E+04  0.12956229848E+04  0.98257504682E+02 0.  0.
         13    1    3    3    0    0  0.86545900965E+01  0.18469359810E+03 -0.10415825524E+04  0.10578661733E+04  0.00000000000E+00 0.  1.
        -13    1    3    3    0    0 -0.44292044356E+02  0.37032785787E+02 -0.23064060572E+03  0.23775681152E+03  0.00000000000E+00 0. -1.
         22    1    1    2    0    0  0.35637454259E+02 -0.22172638389E+03  0.20997240851E+03  0.30744272604E+03  0.00000000000E+00 0.  1.
<mgrwt>
<rscale>  0 0.12006011E+04</rscale>
<asrwt>0</asrwt>
<pdfrwt beam="1">  1        2 0.20502434E+00 0.12006011E+04</pdfrwt>
<pdfrwt beam="2">  1       -2 0.41601151E-01 0.12006011E+04</pdfrwt>
<totfact> 0.85428757E+01</totfact>
</mgrwt>
</event>
<event>
 6    1  0.1780144E-005  0.3067768E+04  0.7818608E-02  0.8224640E-01
          2   -1    0    0  501    0  0.00000000000E+00  0.00000000000E+00  0.17372667036E+04  0.17372667036E+04  0.00000000000E+00 0. -1.
         -2   -1    0    0    0  501 -0.00000000000E+00 -0.00000000000E+00 -0.13543114148E+04  0.13543114148E+04  0.00000000000E+00 0.  1.
         23    2    1    2    0    0  0.14792360542E+04 -0.66482721712E+02 -0.20650496979E+03  0.14978332665E+04  0.91109469875E+02 0.  0.
         11    1    3    3    0    0  0.91084045499E+02 -0.23622568641E+02 -0.26205961257E+01  0.94133929152E+02  0.00000000000E+00 0. -1.
        -11    1    3    3    0    0  0.13881520087E+04 -0.42860153071E+02 -0.20388437366E+03  0.14036993374E+04  0.00000000000E+00 0.  1.
         22    1    1    2    0    0 -0.14792360542E+04  0.66482721712E+02  0.58946025859E+03  0.15937448518E+04  0.00000000000E+00 0. -1.
<mgrwt>
<rscale>  0 0.30677680E+04</rscale>
<asrwt>0</asrwt>
<pdfrwt beam="1">  1        2 0.26727180E+00 0.30677680E+04</pdfrwt>
<pdfrwt beam="2">  1       -2 0.20835560E+00 0.30677680E+04</pdfrwt>
<totfact> 0.93400735E-01</totfact>
</mgrwt>
</event>
<event>
 6    1  0.1780144E-005  0.9509004E+03  0.7818608E-02  0.9364099E-01
          2   -1    0    0  501    0  0.00000000000E+00  0.00000000000E+00  0.23193549818E+04  0.23193549818E+04  0.00000000000E+00 0. -1.
         -2   -1    0    0    0  501 -0.00000000000E+00 -0.00000000000E+00 -0.97463696714E+02  0.97463696714E+02  0.00000000000E+00 0.  1.
         23    2    1    2    0    0 -0.45569895827E+03 -0.10864642092E+03  0.99264564672E+03  0.11013300146E+04  0.90093483896E+02 0.  0.
         11    1    3    3    0    0 -0.19065477236E+03 -0.12741710718E+02  0.33184507489E+03  0.38292655580E+03  0.00000000000E+00 0. -1.
        -11    1    3    3    0    0 -0.26504418591E+03 -0.95904710205E+02  0.66080057183E+03  0.71840345883E+03  0.00000000000E+00 0.  1.
         22    1    1    2    0    0  0.45569895827E+03  0.10864642092E+03  0.12292456384E+04  0.13154886639E+04  0.00000000000E+00 0.  1.
<mgrwt>
<rscale>  0 0.95090044E+03</rscale>
<asrwt>0</asrwt>
<pdfrwt beam="1">  1        2 0.35682380E+00 0.95090044E+03</pdfrwt>
<pdfrwt beam="2">  1       -2 0.14994417E-01 0.95090044E+03</pdfrwt>
<totfact> 0.15710977E+02</totfact>
</mgrwt>
</event>
<event>
 6    1  0.1780144E-005  0.1470832E+04  0.7818608E-02  0.8904084E-01
          1   -1    0    0  501    0  0.00000000000E+00  0.00000000000E+00  0.14526189849E+04  0.14526189849E+04  0.00000000000E+00 0. -1.
         -1   -1    0    0    0  501 -0.00000000000E+00 -0.00000000000E+00 -0.37231843689E+03  0.37231843689E+03  0.00000000000E+00 0.  1.
         23    2    1    2    0    0 -0.11419840257E+02  0.61568866902E+03  0.49979590597E+02  0.62461903686E+03  0.91913175477E+02 0.  0.
         11    1    3    3    0    0  0.38681225008E+02  0.21273769705E+03  0.27157192075E+02  0.21792447774E+03  0.00000000000E+00 0. -1.
        -11    1    3    3    0    0 -0.50101065264E+02  0.40295097196E+03  0.22822398522E+02  0.40669455912E+03  0.00000000000E+00 0.  1.
         22    1    1    2    0    0  0.11419840257E+02 -0.61568866902E+03  0.10303209574E+04  0.12003183849E+04  0.00000000000E+00 0. -1.
<mgrwt>
<rscale>  0 0.14708322E+04</rscale>
<asrwt>0</asrwt>
<pdfrwt beam="1">  1        1 0.22347984E+00 0.14708322E+04</pdfrwt>
<pdfrwt beam="2">  1       -1 0.57279760E-01 0.14708322E+04</pdfrwt>
<totfact> 0.21119873E+01</totfact>
</mgrwt>
</event>
<event>
 6    1  0.1780144E-005  0.3804860E+04  0.7818608E-02  0.8045113E-01
         -2   -1    0    0    0  501 -0.00000000000E+00  0.00000000000E+00  0.17180726216E+04  0.17180726216E+04  0.00000000000E+00 0. -1.
          2   -1    0    0  501    0  0.00000000000E+00 -0.00000000000E+00 -0.21065693514E+04  0.21065693514E+04  0.00000000000E+00 0.  1.
         23    2    1    2    0    0 -0.14569365938E+04  0.53839111760E+03 -0.12966168176E+04  0.20254167709E+04  0.92567222496E+02 0.  0.
         13    1    3    3    0    0 -0.13372064469E+04  0.50382702270E+03 -0.11603059679E+04  0.18407261311E+04  0.00000000000E+00 0. -1.
        -13    1    3    3    0    0 -0.11973014684E+03  0.34564094898E+02 -0.13631084964E+03  0.18469063985E+03  0.00000000000E+00 0.  1.
         22    1    1    2    0    0  0.14569365938E+04 -0.53839111760E+03  0.90812008776E+03  0.17992252020E+04  0.00000000000E+00 0. -1.
<mgrwt>
<rscale>  0 0.38048596E+04</rscale>
<asrwt>0</asrwt>
<pdfrwt beam="1">  1        2 0.32408759E+00 0.38048596E+04</pdfrwt>
<pdfrwt beam="2">  1       -2 0.26431887E+00 0.38048596E+04</pdfrwt>
<totfact> 0.24518631E-01</totfact>
</mgrwt>
</event>
<event>
 6    1  0.1780144E-005  0.1925394E+04  0.7818608E-02  0.8642318E-01
         -1   -1    0    0    0  501 -0.00000000000E+00  0.00000000000E+00  0.12912044745E+04  0.12912044745E+04  0.00000000000E+00 0.  1.
          1   -1    0    0  501    0  0.00000000000E+00 -0.00000000000E+00 -0.71776847112E+03  0.71776847112E+03  0.00000000000E+00 0. -1.
         23    2    1    2    0    0 -0.59294474192E+03  0.24708111323E+03 -0.45763706172E+03  0.79417081809E+03  0.92968083527E+02 0.  0.
         13    1    3    3    0    0 -0.38090915072E+03  0.18397033972E+03 -0.34533376990E+03  0.54606984868E+03  0.00000000000E+00 0.  1.
        -13    1    3    3    0    0 -0.21203559120E+03  0.63110773503E+02 -0.11230329182E+03  0.24810096941E+03  0.00000000000E+00 0. -1.
         22    1    1    2    0    0  0.59294474192E+03 -0.24708111323E+03  0.10310730651E+04  0.12148021275E+04  0.00000000000E+00 0.  1.
<mgrwt>
<rscale>  0 0.19253944E+04</rscale>
<asrwt>0</asrwt>
<pdfrwt beam="1">  1        1 0.11042592E+00 0.19253944E+04</pdfrwt>
<pdfrwt beam="2">  1       -1 0.19864684E+00 0.19253944E+04</pdfrwt>
<totfact> 0.37636779E+00</totfact>
</mgrwt>
</event>
<event>
 6    1  0.1780144E-005  0.5234437E+03  0.7818608E-02  0.1007835E+00
         -1   -1    0    0    0  501 -0.00000000000E+00  0.00000000000E+00  0.49679927524E+03  0.49679927524E+03  0.00000000000E+00 0.  1.
          1   -1    0    0  501    0  0.00000000000E+00 -0.00000000000E+00 -0.13787927011E+03  0.13787927011E+03  0.00000000000E+00 0. -1.
         23    2    1    2    0    0 -0.32504421685E+02 -0.25026368365E+03  0.19198849195E+03  0.33209867345E+03  0.98699032830E+02 0.  0.
         13    1    3    3    0    0 -0.49712974024E+01 -0.22792385452E+03  0.13491256249E+03  0.26490639248E+03  0.00000000000E+00 0.  1.
        -13    1    3    3    0    0 -0.27533124283E+02 -0.22339829133E+02  0.57075929467E+02  0.67192280978E+02  0.00000000000E+00 0. -1.
         22    1    1    2    0    0  0.32504421685E+02  0.25026368365E+03  0.16693151318E+03  0.30257987190E+03  0.00000000000E+00 0. -1.
<mgrwt>
<rscale>  0 0.52344368E+03</rscale>
<asrwt>0</asrwt>
<pdfrwt beam="1">  1        1 0.21212196E-01 0.52344368E+03</pdfrwt>
<pdfrwt beam="2">  1       -1 0.76430657E-01 0.52344368E+03</pdfrwt>
<totfact> 0.42268040E+02</totfact>
</mgrwt>
</event>
<event>
 6    1  0.1780144E-005  0.1615073E+04  0.7818608E-02  0.8811341E-01
         -1   -1    0    0    0  501 -0.00000000000E+00  0.00000000000E+00  0.14636509114E+04  0.14636509114E+04  0.00000000000E+00 0.  1.
          1   -1    0    0  501    0  0.00000000000E+00 -0.00000000000E+00 -0.44553990490E+03  0.44553990490E+03  0.00000000000E+00 0. -1.
         23    2    1    2    0    0  0.35775641134E+03 -0.32089453013E+03  0.12740917925E+04  0.13646826785E+04  0.89922011315E+02 0.  0.
         11    1    3    3    0    0  0.70308498689E+02 -0.11702476949E+03  0.35542007954E+03  0.38073811813E+03  0.00000000000E+00 0. -1.
        -11    1    3    3    0    0  0.28744791265E+03 -0.20386976064E+03  0.91867171294E+03  0.98394456041E+03  0.00000000000E+00 0.  1.
         22    1    1    2    0    0 -0.35775641134E+03  0.32089453013E+03 -0.25598078597E+03  0.54450813778E+03  0.00000000000E+00 0. -1.
<mgrwt>
<rscale>  0 0.16150726E+04</rscale>
<asrwt>0</asrwt>
<pdfrwt beam="1">  1        1 0.68544602E-01 0.16150726E+04</pdfrwt>
<pdfrwt beam="2">  1       -1 0.22517706E+00 0.16150726E+04</pdfrwt>
<totfact> 0.50543878E+00</totfact>
</mgrwt>
</event>
<event>
 6    1  0.1780144E-005  0.3256481E+04  0.7818608E-02  0.8174058E-01
         -1   -1    0    0    0  501 -0.00000000000E+00  0.00000000000E+00  0.17726751829E+04  0.17726751829E+04  0.00000000000E+00 0.  1.
          1   -1    0    0  501    0  0.00000000000E+00 -0.00000000000E+00 -0.14955737604E+04  0.14955737604E+04  0.00000000000E+00 0. -1.
         23    2    1    2    0    0  0.81773552311E+03 -0.13471800246E+04  0.54680133731E+03  0.16693982784E+04  0.65677280455E+02 0.  0.
         11    1    3    3    0    0  0.34201848837E+03 -0.61746291423E+03  0.22701633730E+03  0.74146713631E+03  0.00000000000E+00 0.  1.
        -11    1    3    3    0    0  0.47571703474E+03 -0.72971711037E+03  0.31978500002E+03  0.92793114213E+03  0.00000000000E+00 0. -1.
         22    1    1    2    0    0 -0.81773552311E+03  0.13471800246E+04 -0.26969991489E+03  0.15988506649E+04  0.00000000000E+00 0.  1.
<mgrwt>
<rscale>  0 0.32564806E+04</rscale>
<asrwt>0</asrwt>
<pdfrwt beam="1">  1        1 0.23008827E+00 0.32564806E+04</pdfrwt>
<pdfrwt beam="2">  1       -1 0.27271926E+00 0.32564806E+04</pdfrwt>
<totfact> 0.27214261E-01</totfact>
</mgrwt>
</event>
<event>
 6    1  0.1780144E-005  0.4220553E+04  0.7818608E-02  0.7961474E-01
          2   -1    0    0  501    0  0.00000000000E+00  0.00000000000E+00  0.32432622508E+04  0.32432622508E+04  0.00000000000E+00 0. -1.
         -2   -1    0    0    0  501 -0.00000000000E+00 -0.00000000000E+00 -0.13730823223E+04  0.13730823223E+04  0.00000000000E+00 0.  1.
         23    2    1    2    0    0 -0.63866666310E+03  0.12322772018E+04  0.26727674496E+04  0.30130514191E+04  0.91601342975E+02 0.  0.
         11    1    3    3    0    0 -0.21565959652E+03  0.49517233069E+03  0.10950501491E+04  0.12209993971E+04  0.00000000000E+00 0. -1.
        -11    1    3    3    0    0 -0.42300706658E+03  0.73710487115E+03  0.15777173005E+04  0.17920520221E+04  0.00000000000E+00 0.  1.
         22    1    1    2    0    0  0.63866666310E+03 -0.12322772018E+04 -0.80258752109E+03  0.16032931540E+04  0.00000000000E+00 0.  1.
<mgrwt>
<rscale>  0 0.42205526E+04</rscale>
<asrwt>0</asrwt>
<pdfrwt beam="1">  1        2 0.49896342E+00 0.42205526E+04</pdfrwt>
<pdfrwt beam="2">  1       -2 0.21124344E+00 0.42205526E+04</pdfrwt>
<totfact> 0.10571092E-01</totfact>
</mgrwt>
</event>
<event>
 6    1  0.1780144E-005  0.3560997E+04  0.7818608E-02  0.8099485E-01
         -2   -1    0    0    0  501 -0.00000000000E+00  0.00000000000E+00  0.98805137121E+03  0.98805137121E+03  0.00000000000E+00 0.  1.
          2   -1    0    0  501    0  0.00000000000E+00 -0.00000000000E+00 -0.32085127256E+04  0.32085127256E+04  0.00000000000E+00 0. -1.
         23    2    1    2    0    0 -0.25147644744E+03 -0.12137093358E+04 -0.26153375569E+04  0.28956959365E+04  0.93454075116E+02 0.  0.
         11    1    3    3    0    0 -0.13707309538E+03 -0.70006107618E+03 -0.16100462906E+04  0.17610007387E+04  0.00000000000E+00 0. -1.
        -11    1    3    3    0    0 -0.11440335206E+03 -0.51364825964E+03 -0.10052912663E+04  0.11346951977E+04  0.00000000000E+00 0.  1.
         22    1    1    2    0    0  0.25147644744E+03  0.12137093358E+04  0.39487620251E+03  0.13008681604E+04  0.00000000000E+00 0.  1.
<mgrwt>
<rscale>  0 0.35609973E+04</rscale>
<asrwt>0</asrwt>
<pdfrwt beam="1">  1        2 0.49361733E+00 0.35609973E+04</pdfrwt>
<pdfrwt beam="2">  1       -2 0.15200791E+00 0.35609973E+04</pdfrwt>
<totfact> 0.30241482E-01</totfact>
</mgrwt>
</event>
<event>
 6    1  0.1780144E-005  0.3053437E+04  0.7818608E-02  0.8228634E-01
          2   -1    0    0  501    0  0.00000000000E+00  0.00000000000E+00  0.18835770838E+04  0.18835770838E+04  0.00000000000E+00 0. -1.
         -2   -1    0    0    0  501 -0.00000000000E+00 -0.00000000000E+00 -0.12374694453E+04  0.12374694453E+04  0.00000000000E+00 0.  1.
         23    2    1    2    0    0 -0.11889891328E+04  0.63892170534E+03  0.10495351597E+04  0.17122634130E+04  0.91683371440E+02 0.  0.
         13    1    3    3    0    0 -0.26419258238E+03  0.13280636987E+03  0.18424772992E+03  0.34839988296E+03  0.00000000000E+00 0.  1.
        -13    1    3    3    0    0 -0.92479655045E+03  0.50611533547E+03  0.86528742974E+03  0.13638635300E+04  0.00000000000E+00 0. -1.
         22    1    1    2    0    0  0.11889891328E+04 -0.63892170534E+03 -0.40342752115E+03  0.14087831162E+04  0.00000000000E+00 0.  1.
<mgrwt>
<rscale>  0 0.30534368E+04</rscale>
<asrwt>0</asrwt>
<pdfrwt beam="1">  1        2 0.28978109E+00 0.30534368E+04</pdfrwt>
<pdfrwt beam="2">  1       -2 0.19037991E+00 0.30534368E+04</pdfrwt>
<totfact> 0.10185087E+00</totfact>
</mgrwt>
</event>
<event>
 6    1  0.1780144E-005  0.1133390E+04  0.7818608E-02  0.9173245E-01
          2   -1    0    0  501    0  0.00000000000E+00  0.00000000000E+00  0.10499160988E+04  0.10499160988E+04  0.00000000000E+00 0. -1.
         -2   -1    0    0    0  501 -0.00000000000E+00 -0.00000000000E+00 -0.30587537311E+03  0.30587537311E+03  0.00000000000E+00 0.  1.
         23    2    1    2    0    0  0.38129681927E+03  0.12047226974E+02  0.86989088162E+03  0.95408179843E+03  0.89607656500E+02 0.  0.
         13    1    3    3    0    0  0.24677595106E+03 -0.30838556979E+02  0.59975264163E+03  0.64927083544E+03  0.00000000000E+00 0.  1.
        -13    1    3    3    0    0  0.13452086822E+03  0.42885783953E+02  0.27013823999E+03  0.30481096298E+03  0.00000000000E+00 0. -1.
         22    1    1    2    0    0 -0.38129681927E+03 -0.12047226974E+02 -0.12585015588E+03  0.40170967352E+03  0.00000000000E+00 0.  1.
<mgrwt>
<rscale>  0 0.11333905E+04</rscale>
<asrwt>0</asrwt>
<pdfrwt beam="1">  1        2 0.16152555E+00 0.11333905E+04</pdfrwt>
<pdfrwt beam="2">  1       -2 0.47057750E-01 0.11333905E+04</pdfrwt>
<totfact> 0.99259680E+01</totfact>
</mgrwt>
</event>
<event>
 6    1  0.2799881E-005  0.2328625E+04  0.7818608E-02  0.8466719E-01
         -2   -1    0    0    0  501 -0.00000000000E+00  0.00000000000E+00  0.12352632439E+04  0.12352632439E+04  0.00000000000E+00 0. -1.
          2   -1    0    0  501    0  0.00000000000E+00 -0.00000000000E+00 -0.10974370227E+04  0.10974370227E+04  0.00000000000E+00 0.  1.
         23    2    1    2    0    0  0.73806845719E+03 -0.30305147472E+03  0.91599083542E+03  0.12181934651E+04  0.91492425646E+02 0.  0.
         11    1    3    3    0    0  0.55954705340E+03 -0.22049174407E+03  0.74588380115E+03  0.95815038433E+03  0.00000000000E+00 0.  1.
        -11    1    3    3    0    0  0.17852140379E+03 -0.82559730651E+02  0.17010703427E+03  0.26004308075E+03  0.00000000000E+00 0. -1.
         22    1    1    2    0    0 -0.73806845719E+03  0.30305147472E+03 -0.77816461427E+03  0.11145068016E+04  0.00000000000E+00 0.  1.
<mgrwt>
<rscale>  0 0.23286250E+04</rscale>
<asrwt>0</asrwt>
<pdfrwt beam="1">  1        2 0.16883647E+00 0.23286250E+04</pdfrwt>
<pdfrwt beam="2">  1       -2 0.19004050E+00 0.23286250E+04</pdfrwt>
<totfact> 0.30632750E+00</totfact>
</mgrwt>
</event>
<event>
 6    1  0.1780144E-005  0.2688458E+04  0.7818608E-02  0.8338760E-01
          1   -1    0    0  501    0  0.00000000000E+00  0.00000000000E+00  0.40592977169E+04  0.40592977169E+04  0.00000000000E+00 0. -1.
         -1   -1    0    0    0  501 -0.00000000000E+00 -0.00000000000E+00 -0.44513886953E+03  0.44513886953E+03  0.00000000000E+00 0.  1.
         23    2    1    2    0    0  0.13262575625E+04  0.86077545637E+02  0.21291967687E+04  0.25115791302E+04  0.90456517541E+02 0.  0.
         13    1    3    3    0    0  0.77303794274E+03  0.61067000747E+02  0.11598127727E+04  0.13951639715E+04  0.00000000000E+00 0. -1.
        -13    1    3    3    0    0  0.55321961971E+03  0.25010544890E+02  0.96938399600E+03  0.11164151587E+04  0.00000000000E+00 0.  1.
         22    1    1    2    0    0 -0.13262575625E+04 -0.86077545637E+02  0.14849620787E+04  0.19928574562E+04  0.00000000000E+00 0.  1.
<mgrwt>
<rscale>  0 0.26884577E+04</rscale>
<asrwt>0</asrwt>
<pdfrwt beam="1">  1        1 0.62450732E+00 0.26884577E+04</pdfrwt>
<pdfrwt beam="2">  1       -1 0.68482906E-01 0.26884577E+04</pdfrwt>
<totfact> 0.16052010E-01</totfact>
</mgrwt>
</event>
<event>
 6    1  0.1780144E-005  0.8988649E+03  0.7818608E-02  0.9427001E-01
          1   -1    0    0  501    0  0.00000000000E+00  0.00000000000E+00  0.17045540232E+04  0.17045540232E+04  0.00000000000E+00 0. -1.
         -1   -1    0    0    0  501 -0.00000000000E+00 -0.00000000000E+00 -0.11849993663E+03  0.11849993663E+03  0.00000000000E+00 0.  1.
         23    2    1    2    0    0  0.38247104600E+03 -0.14174281620E+03  0.11613031797E+04  0.12341664834E+04  0.90369832607E+02 0.  0.
         13    1    3    3    0    0  0.18147058552E+03 -0.76958659586E+02  0.43087581776E+03  0.47382294058E+03  0.00000000000E+00 0.  1.
        -13    1    3    3    0    0  0.20100046048E+03 -0.64784156617E+02  0.73042736196E+03  0.76034354286E+03  0.00000000000E+00 0. -1.
         22    1    1    2    0    0 -0.38247104600E+03  0.14174281620E+03  0.42475090684E+03  0.58888747637E+03  0.00000000000E+00 0.  1.
<mgrwt>
<rscale>  0 0.89886494E+03</rscale>
<asrwt>0</asrwt>
<pdfrwt beam="1">  1        1 0.26223906E+00 0.89886494E+03</pdfrwt>
<pdfrwt beam="2">  1       -1 0.18230761E-01 0.89886494E+03</pdfrwt>
<totfact> 0.11424208E+02</totfact>
</mgrwt>
</event>
<event>
 6    1  0.1780144E-005  0.2023106E+04  0.7818608E-02  0.8595893E-01
         -1   -1    0    0    0  501 -0.00000000000E+00  0.00000000000E+00  0.10677657427E+04  0.10677657427E+04  0.00000000000E+00 0.  1.
          1   -1    0    0  501    0  0.00000000000E+00 -0.00000000000E+00 -0.95829961746E+03  0.95829961746E+03  0.00000000000E+00 0. -1.
         23    2    1    2    0    0  0.50548948644E+03  0.54757232394E+03 -0.62709897950E+03  0.97826613111E+03  0.91631993982E+02 0.  0.
         11    1    3    3    0    0  0.26410888392E+03  0.28411965791E+03 -0.26661482954E+03  0.47070261302E+03  0.00000000000E+00 0. -1.
        -11    1    3    3    0    0  0.24138060252E+03  0.26345266604E+03 -0.36048414996E+03  0.50756351808E+03  0.00000000000E+00 0.  1.
         22    1    1    2    0    0 -0.50548948644E+03 -0.54757232394E+03  0.73656510472E+03  0.10477992290E+04  0.00000000000E+00 0.  1.
<mgrwt>
<rscale>  0 0.20231060E+04</rscale>
<asrwt>0</asrwt>
<pdfrwt beam="1">  1        1 0.14743071E+00 0.20231060E+04</pdfrwt>
<pdfrwt beam="2">  1       -1 0.16427165E+00 0.20231060E+04</pdfrwt>
<totfact> 0.41011738E+00</totfact>
</mgrwt>
</event>
<event>
 6    1  0.1780144E-005  0.3144173E+04  0.7818608E-02  0.8203719E-01
         -3   -1    0    0    0  501 -0.00000000000E+00  0.00000000000E+00  0.31788048899E+04  0.31788048899E+04  0.00000000000E+00 0.  1.
          3   -1    0    0  501    0  0.00000000000E+00 -0.00000000000E+00 -0.77747936649E+03  0.77747936649E+03  0.00000000000E+00 0. -1.
         23    2    1    2    0    0 -0.24452587904E+03 -0.11515051403E+04  0.25103125179E+04  0.27740680500E+04  0.89596955659E+02 0.  0.
         11    1    3    3    0    0 -0.13982825137E+03 -0.45517178314E+03  0.10414318134E+04  0.11451259817E+04  0.00000000000E+00 0. -1.
        -11    1    3    3    0    0 -0.10469762767E+03 -0.69633335719E+03  0.14688807045E+04  0.16289420682E+04  0.00000000000E+00 0.  1.
         22    1    1    2    0    0  0.24452587904E+03  0.11515051403E+04 -0.10898699454E+03  0.11822162064E+04  0.00000000000E+00 0. -1.
<mgrwt>
<rscale>  0 0.31441725E+04</rscale>
<asrwt>0</asrwt>
<pdfrwt beam="1">  1        3 0.11961221E+00 0.31441725E+04</pdfrwt>
<pdfrwt beam="2">  1       -3 0.48904690E+00 0.31441725E+04</pdfrwt>
<totfact> 0.43461021E-03</totfact>
</mgrwt>
</event>
<event>
 6    1  0.1780144E-005  0.2154012E+04  0.7818608E-02  0.8537817E-01
         -1   -1    0    0    0  501 -0.00000000000E+00  0.00000000000E+00  0.12927752841E+04  0.12927752841E+04  0.00000000000E+00 0.  1.
          1   -1    0    0  501    0  0.00000000000E+00 -0.00000000000E+00 -0.89724979228E+03  0.89724979228E+03  0.00000000000E+00 0. -1.
         23    2    1    2    0    0  0.88695591864E+03 -0.60620144154E+03  0.23750461912E+03  0.11041422164E+04  0.92469457353E+02 0.  0.
         13    1    3    3    0    0  0.61616682591E+03 -0.42581403659E+03  0.12187868692E+03  0.75883698212E+03  0.00000000000E+00 0.  1.
        -13    1    3    3    0    0  0.27078909273E+03 -0.18038740496E+03  0.11562593220E+03  0.34530523426E+03  0.00000000000E+00 0. -1.
         22    1    1    2    0    0 -0.88695591864E+03  0.60620144154E+03  0.15802087265E+03  0.10858828600E+04  0.00000000000E+00 0. -1.
<mgrwt>
<rscale>  0 0.21540124E+04</rscale>
<asrwt>0</asrwt>
<pdfrwt beam="1">  1        1 0.13803843E+00 0.21540124E+04</pdfrwt>
<pdfrwt beam="2">  1       -1 0.19888851E+00 0.21540124E+04</pdfrwt>
<totfact> 0.25648179E+00</totfact>
</mgrwt>
</event>
<event>
 6    1  0.1780144E-005  0.1063680E+04  0.7818608E-02  0.9241334E-01
          2   -1    0    0  501    0  0.00000000000E+00  0.00000000000E+00  0.21037813685E+04  0.21037813685E+04  0.00000000000E+00 0. -1.
         -2   -1    0    0    0  501 -0.00000000000E+00 -0.00000000000E+00 -0.13445006109E+03  0.13445006109E+03  0.00000000000E+00 0.  1.
         23    2    1    2    0    0  0.41448844101E+03 -0.22094130887E+03  0.14950722857E+04  0.15707455875E+04  0.10669972643E+03 0.  0.
         11    1    3    3    0    0  0.19696600049E+03 -0.16101011054E+03  0.72748232699E+03  0.77068177423E+03  0.00000000000E+00 0. -1.
        -11    1    3    3    0    0  0.21752244052E+03 -0.59931198329E+02  0.76758995867E+03  0.80006381327E+03  0.00000000000E+00 0.  1.
         22    1    1    2    0    0 -0.41448844101E+03  0.22094130887E+03  0.47425902177E+03  0.66748584211E+03  0.00000000000E+00 0.  1.
<mgrwt>
<rscale>  0 0.10636795E+04</rscale>
<asrwt>0</asrwt>
<pdfrwt beam="1">  1        2 0.32365865E+00 0.10636795E+04</pdfrwt>
<pdfrwt beam="2">  1       -2 0.20684626E-01 0.10636795E+04</pdfrwt>
<totfact> 0.11763824E+02</totfact>
</mgrwt>
</event>
<event>
 6    1  0.1780144E-005  0.3107624E+04  0.7818608E-02  0.8213649E-01
         -1   -1    0    0    0  501 -0.00000000000E+00  0.00000000000E+00  0.17225169454E+04  0.17225169454E+04  0.00000000000E+00 0.  1.
          1   -1    0    0  501    0  0.00000000000E+00 -0.00000000000E+00 -0.14016298102E+04  0.14016298102E+04  0.00000000000E+00 0. -1.
         23    2    1    2    0    0 -0.35134532024E+02  0.94211268686E+03  0.14005266470E+04  0.16908176846E+04  0.92621829671E+02 0.  0.
         11    1    3    3    0    0 -0.47947509770E+02  0.62279246032E+03  0.86039691013E+03  0.10632272830E+04  0.00000000000E+00 0. -1.
        -11    1    3    3    0    0  0.12812977746E+02  0.31932022653E+03  0.54012973691E+03  0.62759040159E+03  0.00000000000E+00 0.  1.
         22    1    1    2    0    0  0.35134532024E+02 -0.94211268686E+03 -0.10796395119E+04  0.14333290710E+04  0.00000000000E+00 0. -1.
<mgrwt>
<rscale>  0 0.31076236E+04</rscale>
<asrwt>0</asrwt>
<pdfrwt beam="1">  1        1 0.21563535E+00 0.31076236E+04</pdfrwt>
<pdfrwt beam="2">  1       -1 0.26500261E+00 0.31076236E+04</pdfrwt>
<totfact> 0.35974708E-01</totfact>
</mgrwt>
</event>
<event>
 6    1  0.1780144E-005  0.2557543E+04  0.7818608E-02  0.8382768E-01
          2   -1    0    0  501    0  0.00000000000E+00  0.00000000000E+00  0.14321737262E+04  0.14321737262E+04  0.00000000000E+00 0. -1.
         -2   -1    0    0    0  501 -0.00000000000E+00 -0.00000000000E+00 -0.11418002529E+04  0.11418002529E+04  0.00000000000E+00 0.  1.
         23    2    1    2    0    0 -0.72376611715E+03  0.27428537520E+03  0.11677357718E+04  0.14040019870E+04  0.92438560367E+02 0.  0.
         11    1    3    3    0    0 -0.12155192695E+03  0.47017265988E+02  0.26469536526E+03  0.29504089655E+03  0.00000000000E+00 0. -1.
        -11    1    3    3    0    0 -0.60221419020E+03  0.22726810921E+03  0.90304040655E+03  0.11089610905E+04  0.00000000000E+00 0.  1.
         22    1    1    2    0    0  0.72376611715E+03 -0.27428537520E+03 -0.87736229847E+03  0.11699719920E+04  0.00000000000E+00 0.  1.
<mgrwt>
<rscale>  0 0.25575428E+04</rscale>
<asrwt>0</asrwt>
<pdfrwt beam="1">  1        2 0.22033442E+00 0.25575428E+04</pdfrwt>
<pdfrwt beam="2">  1       -2 0.17566158E+00 0.25575428E+04</pdfrwt>
<totfact> 0.23937146E+00</totfact>
</mgrwt>
</event>
<event>
 6    1  0.1780144E-005  0.1467237E+04  0.7818608E-02  0.8906537E-01
         -2   -1    0    0    0  501 -0.00000000000E+00  0.00000000000E+00  0.12751593832E+04  0.12751593832E+04  0.00000000000E+00 0.  1.
          2   -1    0    0  501    0  0.00000000000E+00 -0.00000000000E+00 -0.42206194293E+03  0.42206194293E+03  0.00000000000E+00 0. -1.
         23    2    1    2    0    0 -0.62818286963E+03 -0.26255652519E+03  0.12724735940E+03  0.70202888920E+03  0.11446844187E+03 0.  0.
         11    1    3    3    0    0 -0.50429565139E+03 -0.19878787655E+03  0.14614580991E+03  0.56141724379E+03  0.00000000000E+00 0. -1.
        -11    1    3    3    0    0 -0.12388721824E+03 -0.63768648640E+02 -0.18898450511E+02  0.14061164541E+03  0.00000000000E+00 0.  1.
         22    1    1    2    0    0  0.62818286963E+03  0.26255652519E+03  0.72585008086E+03  0.99519243692E+03  0.00000000000E+00 0.  1.
<mgrwt>
<rscale>  0 0.14672372E+04</rscale>
<asrwt>0</asrwt>
<pdfrwt beam="1">  1        2 0.64932607E-01 0.14672372E+04</pdfrwt>
<pdfrwt beam="2">  1       -2 0.19617837E+00 0.14672372E+04</pdfrwt>
<totfact> 0.10204469E+01</totfact>
</mgrwt>
</event>
<event>
 6    1  0.1780144E-005  0.3121944E+04  0.7818608E-02  0.8209741E-01
          2   -1    0    0  501    0  0.00000000000E+00  0.00000000000E+00  0.11602756208E+04  0.11602756208E+04  0.00000000000E+00 0.  1.
         -2   -1    0    0    0  501 -0.00000000000E+00 -0.00000000000E+00 -0.21000474415E+04  0.21000474415E+04  0.00000000000E+00 0. -1.
         23    2    1    2    0    0 -0.95576594396E+03 -0.24132422391E+03  0.79190539744E+03  0.12677287964E+04  0.91083598739E+02 0.  0.
         11    1    3    3    0    0 -0.77763723106E+03 -0.20838160141E+03  0.68728824484E+03  0.10585403565E+04  0.00000000000E+00 0. -1.
        -11    1    3    3    0    0 -0.17812871290E+03 -0.32942622503E+02  0.10461715260E+03  0.20918843982E+03  0.00000000000E+00 0.  1.
         22    1    1    2    0    0  0.95576594396E+03  0.24132422391E+03 -0.17316772182E+04  0.19925942659E+04  0.00000000000E+00 0. -1.
<mgrwt>
<rscale>  0 0.31219442E+04</rscale>
<asrwt>0</asrwt>
<pdfrwt beam="1">  1        2 0.17850394E+00 0.31219442E+04</pdfrwt>
<pdfrwt beam="2">  1       -2 0.32308422E+00 0.31219442E+04</pdfrwt>
<totfact> 0.38858066E-01</totfact>
</mgrwt>
</event>
<event>
 6    1  0.1780144E-005  0.3128615E+04  0.7818608E-02  0.8207928E-01
          1   -1    0    0  501    0  0.00000000000E+00  0.00000000000E+00  0.34232459846E+04  0.34232459846E+04  0.00000000000E+00 0. -1.
         -1   -1    0    0    0  501 -0.00000000000E+00 -0.00000000000E+00 -0.71483540055E+03  0.71483540055E+03  0.00000000000E+00 0.  1.
         23    2    1    2    0    0 -0.93066012636E+03  0.30518318541E+03 -0.25569560418E+03  0.10163526105E+04  0.91254256758E+02 0.  0.
         11    1    3    3    0    0 -0.73814334444E+03  0.27069155648E+03 -0.22950204145E+03  0.81902423818E+03  0.00000000000E+00 0. -1.
        -11    1    3    3    0    0 -0.19251678192E+03  0.34491628931E+02 -0.26193562729E+02  0.19732837230E+03  0.00000000000E+00 0.  1.
         22    1    1    2    0    0  0.93066012636E+03 -0.30518318541E+03  0.29641061882E+04  0.31217287746E+04  0.00000000000E+00 0. -1.
<mgrwt>
<rscale>  0 0.31286147E+04</rscale>
<asrwt>0</asrwt>
<pdfrwt beam="1">  1        1 0.52665322E+00 0.31286147E+04</pdfrwt>
<pdfrwt beam="2">  1       -1 0.10997468E+00 0.31286147E+04</pdfrwt>
<totfact> 0.18427710E-01</totfact>
</mgrwt>
</event>
<event>
 6    1  0.1780144E-005  0.2895455E+04  0.7818608E-02  0.8274231E-01
          1   -1    0    0  501    0  0.00000000000E+00  0.00000000000E+00  0.37226125674E+04  0.37226125674E+04  0.00000000000E+00 0. -1.
         -1   -1    0    0    0  501 -0.00000000000E+00 -0.00000000000E+00 -0.56302247375E+03  0.56302247375E+03  0.00000000000E+00 0.  1.
         23    2    1    2    0    0  0.80877222968E+02  0.96046478487E+03  0.31776762342E+04  0.33216014127E+04  0.79849657113E+02 0.  0.
         13    1    3    3    0    0  0.81133997235E+02  0.58018773151E+03  0.20019490842E+04  0.20859052388E+04  0.00000000000E+00 0.  1.
        -13    1    3    3    0    0 -0.25677426654E+00  0.38027705337E+03  0.11757271499E+04  0.12356961739E+04  0.00000000000E+00 0. -1.
         22    1    1    2    0    0 -0.80877222968E+02 -0.96046478487E+03 -0.18086140536E+02  0.96403362838E+03  0.00000000000E+00 0.  1.
<mgrwt>
<rscale>  0 0.28954547E+04</rscale>
<asrwt>0</asrwt>
<pdfrwt beam="1">  1        1 0.57270961E+00 0.28954547E+04</pdfrwt>
<pdfrwt beam="2">  1       -1 0.86618844E-01 0.28954547E+04</pdfrwt>
<totfact> 0.18641840E-01</totfact>
</mgrwt>
</event>
<event>
 6    1  0.1780144E-005  0.3763869E+04  0.7818608E-02  0.8053953E-01
         -2   -1    0    0    0  501 -0.00000000000E+00  0.00000000000E+00  0.28965542831E+04  0.28965542831E+04  0.00000000000E+00 0.  1.
          2   -1    0    0  501    0  0.00000000000E+00 -0.00000000000E+00 -0.12227209092E+04  0.12227209092E+04  0.00000000000E+00 0. -1.
         23    2    1    2    0    0 -0.74744815166E+02 -0.40337817767E+03  0.28461251370E+04  0.28772732924E+04  0.99862715071E+02 0.  0.
         13    1    3    3    0    0 -0.50172276882E+02 -0.21486787991E+03  0.11910126965E+04  0.12112789549E+04  0.00000000000E+00 0.  1.
        -13    1    3    3    0    0 -0.24572538284E+02 -0.18851029776E+03  0.16551124405E+04  0.16659943375E+04  0.00000000000E+00 0. -1.
         22    1    1    2    0    0  0.74744815166E+02  0.40337817767E+03 -0.11722917631E+04  0.12420018999E+04  0.00000000000E+00 0. -1.
<mgrwt>
<rscale>  0 0.37638690E+04</rscale>
<asrwt>0</asrwt>
<pdfrwt beam="1">  1        2 0.18811091E+00 0.37638690E+04</pdfrwt>
<pdfrwt beam="2">  1       -2 0.44562374E+00 0.37638690E+04</pdfrwt>
<totfact> 0.54741933E-02</totfact>
</mgrwt>
</event>
<event>
 6    1  0.1780144E-005  0.4382743E+04  0.7818608E-02  0.7931493E-01
          2   -1    0    0  501    0  0.00000000000E+00  0.00000000000E+00  0.35810634171E+04  0.35810634171E+04  0.00000000000E+00 0.  1.
         -2   -1    0    0    0  501 -0.00000000000E+00 -0.00000000000E+00 -0.13409731086E+04  0.13409731086E+04  0.00000000000E+00 0. -1.
         23    2    1    2    0    0 -0.11467730385E+04  0.18122115792E+04  0.61977319071E+03  0.22341699420E+04  0.90539008275E+02 0.  0.
         13    1    3    3    0    0 -0.81177918604E+03  0.12054179456E+04  0.41041405727E+03  0.15101183957E+04  0.00000000000E+00 0.  1.
        -13    1    3    3    0    0 -0.33499385244E+03  0.60679363364E+03  0.20935913344E+03  0.72405154634E+03  0.00000000000E+00 0. -1.
         22    1    1    2    0    0  0.11467730385E+04 -0.18122115792E+04  0.16203171178E+04  0.26878665837E+04  0.00000000000E+00 0.  1.
<mgrwt>
<rscale>  0 0.43827433E+04</rscale>
<asrwt>0</asrwt>
<pdfrwt beam="1">  1        2 0.55093283E+00 0.43827433E+04</pdfrwt>
<pdfrwt beam="2">  1       -2 0.20630356E+00 0.43827433E+04</pdfrwt>
<totfact> 0.65774883E-02</totfact>
</mgrwt>
</event>
<event>
 6    1  0.1780144E-005  0.2336720E+04  0.7818608E-02  0.8463582E-01
         -1   -1    0    0    0  501 -0.00000000000E+00  0.00000000000E+00  0.31805009981E+04  0.31805009981E+04  0.00000000000E+00 0.  1.
          1   -1    0    0  501    0  0.00000000000E+00 -0.00000000000E+00 -0.42919804961E+03  0.42919804961E+03  0.00000000000E+00 0. -1.
         23    2    1    2    0    0  0.63550237589E+03  0.85019602661E+03  0.21253242370E+04  0.23774061034E+04  0.91433661195E+02 0.  0.
         13    1    3    3    0    0  0.35477859570E+03  0.45915989308E+03  0.10614971168E+04  0.12097403806E+04  0.00000000000E+00 0.  1.
        -13    1    3    3    0    0  0.28072378019E+03  0.39103613353E+03  0.10638271202E+04  0.11676657228E+04  0.00000000000E+00 0. -1.
         22    1    1    2    0    0 -0.63550237589E+03 -0.85019602661E+03  0.62597871142E+03  0.12322929443E+04  0.00000000000E+00 0. -1.
<mgrwt>
<rscale>  0 0.23367198E+04</rscale>
<asrwt>0</asrwt>
<pdfrwt beam="1">  1        1 0.66030471E-01 0.23367198E+04</pdfrwt>
<pdfrwt beam="2">  1       -1 0.48930783E+00 0.23367198E+04</pdfrwt>
<totfact> 0.85833950E-02</totfact>
</mgrwt>
</event>
<event>
 6    1  0.1780144E-005  0.1439084E+04  0.7818608E-02  0.8926003E-01
         -1   -1    0    0    0  501 -0.00000000000E+00  0.00000000000E+00  0.16829440556E+04  0.16829440556E+04  0.00000000000E+00 0.  1.
          1   -1    0    0  501    0  0.00000000000E+00 -0.00000000000E+00 -0.30763991364E+03  0.30763991364E+03  0.00000000000E+00 0. -1.
         23    2    1    2    0    0  0.15077290629E+02 -0.54357517035E+03  0.13381750244E+04  0.14455336395E+04  0.56158850679E+02 0.  0.
         11    1    3    3    0    0  0.92703134711E+01 -0.10936799949E+03  0.33130449755E+03  0.34901284807E+03  0.00000000000E+00 0.  1.
        -11    1    3    3    0    0  0.58069771583E+01 -0.43420717085E+03  0.10068705269E+04  0.10965207915E+04  0.00000000000E+00 0. -1.
         22    1    1    2    0    0 -0.15077290629E+02  0.54357517035E+03  0.37129117506E+02  0.54505032967E+03  0.00000000000E+00 0. -1.
<mgrwt>
<rscale>  0 0.14390841E+04</rscale>
<asrwt>0</asrwt>
<pdfrwt beam="1">  1        1 0.47329218E-01 0.14390841E+04</pdfrwt>
<pdfrwt beam="2">  1       -1 0.25891447E+00 0.14390841E+04</pdfrwt>
<totfact> 0.50352569E+00</totfact>
</mgrwt>
</event>
<event>
 6    1  0.1780144E-005  0.2281104E+04  0.7818608E-02  0.8485409E-01
         -2   -1    0    0    0  501 -0.00000000000E+00  0.00000000000E+00  0.60871940953E+03  0.60871940953E+03  0.00000000000E+00 0.  1.
          2   -1    0    0  501    0  0.00000000000E+00 -0.00000000000E+00 -0.21370415078E+04  0.21370415078E+04  0.00000000000E+00 0. -1.
         23    2    1    2    0    0 -0.11305982299E+04 -0.13264547469E+03 -0.72957039207E+03  0.13551310358E+04  0.90884474945E+02 0.  0.
         11    1    3    3    0    0 -0.29304807097E+03 -0.73853174338E+02 -0.20293248785E+03  0.36402343040E+03  0.00000000000E+00 0.  1.
        -11    1    3    3    0    0 -0.83755015889E+03 -0.58792300349E+02 -0.52663790422E+03  0.99110760536E+03  0.00000000000E+00 0. -1.
         22    1    1    2    0    0  0.11305982299E+04  0.13264547469E+03 -0.79875170615E+03  0.13906298815E+04  0.00000000000E+00 0. -1.
<mgrwt>
<rscale>  0 0.22811038E+04</rscale>
<asrwt>0</asrwt>
<pdfrwt beam="1">  1        2 0.32877562E+00 0.22811038E+04</pdfrwt>
<pdfrwt beam="2">  1       -2 0.93649139E-01 0.22811038E+04</pdfrwt>
<totfact> 0.49013778E+00</totfact>
</mgrwt>
</event>
<event>
 6    1  0.1780144E-005  0.4778720E+04  0.7818608E-02  0.7863579E-01
         -2   -1    0    0    0  501 -0.00000000000E+00  0.00000000000E+00  0.22288974414E+04  0.22288974414E+04  0.00000000000E+00 0. -1.
          2   -1    0    0  501    0  0.00000000000E+00 -0.00000000000E+00 -0.25613740652E+04  0.25613740652E+04  0.00000000000E+00 0.  1.
         23    2    1    2    0    0 -0.11779303007E+04 -0.10598354904E+04  0.16249917473E+04  0.22718486899E+04  0.99635490769E+02 0.  0.
         13    1    3    3    0    0 -0.11177201940E+04 -0.10132501076E+04  0.15146034538E+04  0.21377553262E+04  0.00000000000E+00 0.  1.
        -13    1    3    3    0    0 -0.60210106752E+02 -0.46585382820E+02  0.11038829345E+03  0.13409336366E+03  0.00000000000E+00 0. -1.
         22    1    1    2    0    0  0.11779303007E+04  0.10598354904E+04 -0.19574683710E+04  0.25184228167E+04  0.00000000000E+00 0.  1.
<mgrwt>
<rscale>  0 0.47787195E+04</rscale>
<asrwt>0</asrwt>
<pdfrwt beam="1">  1        2 0.39405755E+00 0.47787195E+04</pdfrwt>
<pdfrwt beam="2">  1       -2 0.34290730E+00 0.47787195E+04</pdfrwt>
<totfact> 0.40957707E-02</totfact>
</mgrwt>
</event>
<event>
 6    1  0.1780144E-005  0.3021263E+04  0.7818608E-02  0.8237685E-01
         -1   -1    0    0    0  501 -0.00000000000E+00  0.00000000000E+00  0.13802280322E+04  0.13802280322E+04  0.00000000000E+00 0.  1.
          1   -1    0    0  501    0  0.00000000000E+00 -0.00000000000E+00 -0.16533557068E+04  0.16533557068E+04  0.00000000000E+00 0. -1.
         23    2    1    2    0    0 -0.19203570009E+03 -0.19122081877E+03  0.13540935437E+04  0.13839498388E+04  0.91130234412E+02 0.  0.
         11    1    3    3    0    0 -0.18332240284E+02 -0.68551622395E+02  0.26808244796E+03  0.27731497412E+03  0.00000000000E+00 0.  1.
        -11    1    3    3    0    0 -0.17370345980E+03 -0.12266919638E+03  0.10860110957E+04  0.11066348647E+04  0.00000000000E+00 0. -1.
         22    1    1    2    0    0  0.19203570009E+03  0.19122081877E+03 -0.16272212182E+04  0.16496339002E+04  0.00000000000E+00 0. -1.
<mgrwt>
<rscale>  0 0.30212632E+04</rscale>
<asrwt>0</asrwt>
<pdfrwt beam="1">  1        1 0.25436242E+00 0.30212632E+04</pdfrwt>
<pdfrwt beam="2">  1       -1 0.21234278E+00 0.30212632E+04</pdfrwt>
<totfact> 0.54006270E-01</totfact>
</mgrwt>
</event>
<event>
 6    1  0.1780144E-005  0.2040119E+04  0.7818608E-02  0.8588090E-01
         -2   -1    0    0    0  501 -0.00000000000E+00  0.00000000000E+00  0.56230657940E+03  0.56230657940E+03  0.00000000000E+00 0.  1.
          2   -1    0    0  501    0  0.00000000000E+00 -0.00000000000E+00 -0.18504526319E+04  0.18504526319E+04  0.00000000000E+00 0. -1.
         23    2    1    2    0    0  0.21437517933E+03 -0.36107101690E+03 -0.17422002338E+04  0.17942980595E+04  0.88965583250E+02 0.  0.
         11    1    3    3    0    0  0.67489669707E+02 -0.15700797785E+03 -0.55284193162E+03  0.57865409528E+03  0.00000000000E+00 0. -1.
        -11    1    3    3    0    0  0.14688550963E+03 -0.20406303905E+03 -0.11893583022E+04  0.12156439643E+04  0.00000000000E+00 0.  1.
         22    1    1    2    0    0 -0.21437517933E+03  0.36107101690E+03  0.45405418127E+03  0.61846115180E+03  0.00000000000E+00 0.  1.
<mgrwt>
<rscale>  0 0.20401193E+04</rscale>
<asrwt>0</asrwt>
<pdfrwt beam="1">  1        2 0.28468502E+00 0.20401193E+04</pdfrwt>
<pdfrwt beam="2">  1       -2 0.86508704E-01 0.20401193E+04</pdfrwt>
<totfact> 0.86706515E+00</totfact>
</mgrwt>
</event>
<event>
 6    1  0.1780144E-005  0.1849638E+04  0.7818608E-02  0.8680339E-01
          1   -1    0    0  501    0  0.00000000000E+00  0.00000000000E+00  0.21249175788E+04  0.21249175788E+04  0.00000000000E+00 0. -1.
         -1   -1    0    0    0  501 -0.00000000000E+00 -0.00000000000E+00 -0.40250493311E+03  0.40250493311E+03  0.00000000000E+00 0.  1.
         23    2    1    2    0    0  0.79297757983E+03  0.40733655999E+03  0.53923317892E+03  0.10459873409E+04  0.92631425253E+02 0.  0.
         11    1    3    3    0    0  0.20427745423E+03  0.64021285658E+02  0.14689717793E+03  0.25962816528E+03  0.00000000000E+00 0. -1.
        -11    1    3    3    0    0  0.58870012560E+03  0.34331527433E+03  0.39233600099E+03  0.78635917565E+03  0.00000000000E+00 0.  1.
         22    1    1    2    0    0 -0.79297757983E+03 -0.40733655999E+03  0.11831794668E+04  0.14814351710E+04  0.00000000000E+00 0. -1.
<mgrwt>
<rscale>  0 0.18496376E+04</rscale>
<asrwt>0</asrwt>
<pdfrwt beam="1">  1        1 0.32691039E+00 0.18496376E+04</pdfrwt>
<pdfrwt beam="2">  1       -1 0.61923837E-01 0.18496376E+04</pdfrwt>
<totfact> 0.60925500E+00</totfact>
</mgrwt>
</event>
<event>
 6    1  0.1780144E-005  0.5379090E+04  0.7818608E-02  0.7772549E-01
         -2   -1    0    0    0  501 -0.00000000000E+00  0.00000000000E+00  0.39150701530E+04  0.39150701530E+04  0.00000000000E+00 0.  1.
          2   -1    0    0  501    0  0.00000000000E+00 -0.00000000000E+00 -0.18476430030E+04  0.18476430030E+04  0.00000000000E+00 0. -1.
         23    2    1    2    0    0  0.21267988302E+03  0.79928763236E+03  0.37748771731E+04  0.38654838516E+04  0.90411743277E+02 0.  0.
         13    1    3    3    0    0  0.55788255138E+02  0.30536009798E+03  0.15860363964E+04  0.16161276465E+04  0.00000000000E+00 0.  1.
        -13    1    3    3    0    0  0.15689162788E+03  0.49392753438E+03  0.21888407767E+04  0.22493562052E+04  0.00000000000E+00 0. -1.
         22    1    1    2    0    0 -0.21267988302E+03 -0.79928763236E+03 -0.17074500231E+04  0.18972293043E+04  0.00000000000E+00 0. -1.
<mgrwt>
<rscale>  0 0.53790899E+04</rscale>
<asrwt>0</asrwt>
<pdfrwt beam="1">  1        2 0.28425277E+00 0.53790899E+04</pdfrwt>
<pdfrwt beam="2">  1       -2 0.60231848E+00 0.53790899E+04</pdfrwt>
<totfact> 0.28938436E-03</totfact>
</mgrwt>
</event>
<event>
 6    1  0.1780144E-005  0.1001656E+04  0.7818608E-02  0.9306730E-01
         -2   -1    0    0    0  501 -0.00000000000E+00  0.00000000000E+00  0.95647949964E+02  0.95647949964E+02  0.00000000000E+00 0.  1.
          2   -1    0    0  501    0  0.00000000000E+00 -0.00000000000E+00 -0.26224177720E+04  0.26224177720E+04  0.00000000000E+00 0. -1.
         23    2    1    2    0    0  0.42873829797E+03 -0.17981767812E+03 -0.17481901185E+04  0.18112375794E+04  0.90895284962E+02 0.  0.
         13    1    3    3    0    0  0.13519037592E+03 -0.29060781521E+02 -0.64963091659E+03  0.66418468407E+03  0.00000000000E+00 0. -1.
        -13    1    3    3    0    0  0.29354792205E+03 -0.15075689660E+03 -0.10985592019E+04  0.11470528953E+04  0.00000000000E+00 0.  1.
         22    1    1    2    0    0 -0.42873829797E+03  0.17981767812E+03 -0.77857970349E+03  0.90682814259E+03  0.00000000000E+00 0. -1.
<mgrwt>
<rscale>  0 0.10016564E+04</rscale>
<asrwt>0</asrwt>
<pdfrwt beam="1">  1        2 0.40344890E+00 0.10016564E+04</pdfrwt>
<pdfrwt beam="2">  1       -2 0.14715069E-01 0.10016564E+04</pdfrwt>
<totfact> 0.10851224E+02</totfact>
</mgrwt>
</event>
<event>
 6    1  0.1780144E-005  0.3418479E+04  0.7818608E-02  0.8133386E-01
          2   -1    0    0  501    0  0.00000000000E+00  0.00000000000E+00  0.29691820589E+04  0.29691820589E+04  0.00000000000E+00 0. -1.
         -2   -1    0    0    0  501 -0.00000000000E+00 -0.00000000000E+00 -0.98394118409E+03  0.98394118409E+03  0.00000000000E+00 0.  1.
         23    2    1    2    0    0 -0.74198081653E+03  0.81947885864E+02  0.27698662941E+04  0.28701236877E+04  0.90552237349E+02 0.  0.
         11    1    3    3    0    0 -0.33451547405E+03  0.33687189372E+02  0.10779109562E+04  0.11291268567E+04  0.00000000000E+00 0.  1.
        -11    1    3    3    0    0 -0.40746534248E+03  0.48260696491E+02  0.16919553379E+04  0.17409968310E+04  0.00000000000E+00 0. -1.
         22    1    1    2    0    0  0.74198081653E+03 -0.81947885864E+02 -0.78462541928E+03  0.10829995553E+04  0.00000000000E+00 0.  1.
<mgrwt>
<rscale>  0 0.34184795E+04</rscale>
<asrwt>0</asrwt>
<pdfrwt beam="1">  1        2 0.45679724E+00 0.34184795E+04</pdfrwt>
<pdfrwt beam="2">  1       -2 0.15137557E+00 0.34184795E+04</pdfrwt>
<totfact> 0.44000470E-01</totfact>
</mgrwt>
</event>
<event>
 6    1  0.1780144E-005  0.5204677E+04  0.7818608E-02  0.7797687E-01
          2   -1    0    0  501    0  0.00000000000E+00  0.00000000000E+00  0.29764338916E+04  0.29764338916E+04  0.00000000000E+00 0.  1.
         -2   -1    0    0    0  501 -0.00000000000E+00 -0.00000000000E+00 -0.22752614253E+04  0.22752614253E+04  0.00000000000E+00 0. -1.
         23    2    1    2    0    0  0.17868547757E+04 -0.59974671247E+03  0.21600923880E+04  0.28682118480E+04  0.89966504338E+02 0.  0.
         13    1    3    3    0    0  0.11311638279E+04 -0.37978873281E+03  0.13009168418E+04  0.17652636394E+04  0.00000000000E+00 0. -1.
        -13    1    3    3    0    0  0.65569094776E+03 -0.21995797966E+03  0.85917554614E+03  0.11029482086E+04  0.00000000000E+00 0.  1.
         22    1    1    2    0    0 -0.17868547757E+04  0.59974671247E+03 -0.14589199217E+04  0.23834834689E+04  0.00000000000E+00 0. -1.
<mgrwt>
<rscale>  0 0.52046768E+04</rscale>
<asrwt>0</asrwt>
<pdfrwt beam="1">  1        2 0.45791291E+00 0.52046768E+04</pdfrwt>
<pdfrwt beam="2">  1       -2 0.35004022E+00 0.52046768E+04</pdfrwt>
<totfact> 0.20056679E-02</totfact>
</mgrwt>
</event>
<event>
 6    1  0.1780144E-005  0.2376836E+04  0.7818608E-02  0.8448227E-01
         -2   -1    0    0    0  501 -0.00000000000E+00  0.00000000000E+00  0.16360430842E+04  0.16360430842E+04  0.00000000000E+00 0.  1.
          2   -1    0    0  501    0  0.00000000000E+00 -0.00000000000E+00 -0.86326419336E+03  0.86326419336E+03  0.00000000000E+00 0. -1.
         23    2    1    2    0    0 -0.69879403229E+03  0.20258834908E+03 -0.59876944416E+03  0.94672878550E+03  0.91735529086E+02 0.  0.
         13    1    3    3    0    0 -0.15296400513E+03  0.78550960232E+02 -0.11466129184E+03  0.20667716871E+03  0.00000000000E+00 0. -1.
        -13    1    3    3    0    0 -0.54583002716E+03  0.12403738885E+03 -0.48410815231E+03  0.74005161679E+03  0.00000000000E+00 0.  1.
         22    1    1    2    0    0  0.69879403229E+03 -0.20258834908E+03  0.13715483349E+04  0.15525784920E+04  0.00000000000E+00 0.  1.
<mgrwt>
<rscale>  0 0.23768361E+04</rscale>
<asrwt>0</asrwt>
<pdfrwt beam="1">  1        2 0.13280988E+00 0.23768361E+04</pdfrwt>
<pdfrwt beam="2">  1       -2 0.25169893E+00 0.23768361E+04</pdfrwt>
<totfact> 0.17558526E+00</totfact>
</mgrwt>
</event>
<event>
 6    1  0.1780144E-005  0.4921287E+04  0.7818608E-02  0.7840765E-01
          2   -1    0    0  501    0  0.00000000000E+00  0.00000000000E+00  0.38276065319E+04  0.38276065319E+04  0.00000000000E+00 0. -1.
         -2   -1    0    0    0  501 -0.00000000000E+00 -0.00000000000E+00 -0.15818676367E+04  0.15818676367E+04  0.00000000000E+00 0.  1.
         23    2    1    2    0    0  0.63285299733E+03 -0.19661367647E+04 -0.34575836650E+03  0.20955558306E+04  0.74891236205E+02 0.  0.
         13    1    3    3    0    0  0.84497515168E+02 -0.32110228602E+03 -0.34522854388E+02  0.33382380926E+03  0.00000000000E+00 0. -1.
        -13    1    3    3    0    0  0.54835548216E+03 -0.16450344787E+04 -0.31123551211E+03  0.17617320213E+04  0.00000000000E+00 0.  1.
         22    1    1    2    0    0 -0.63285299733E+03  0.19661367647E+04  0.25914972617E+04  0.33139183380E+04  0.00000000000E+00 0. -1.
<mgrwt>
<rscale>  0 0.49212872E+04</rscale>
<asrwt>0</asrwt>
<pdfrwt beam="1">  1        2 0.58886254E+00 0.49212872E+04</pdfrwt>
<pdfrwt beam="2">  1       -2 0.24336425E+00 0.49212872E+04</pdfrwt>
<totfact> 0.24114486E-02</totfact>
</mgrwt>
</event>
<event>
 6    1  0.1780144E-005  0.1968383E+04  0.7818608E-02  0.8621547E-01
         -2   -1    0    0    0  501 -0.00000000000E+00  0.00000000000E+00  0.15425138852E+04  0.15425138852E+04  0.00000000000E+00 0.  1.
          2   -1    0    0  501    0  0.00000000000E+00 -0.00000000000E+00 -0.62795757840E+03  0.62795757840E+03  0.00000000000E+00 0. -1.
         23    2    1    2    0    0 -0.49207383834E+03 -0.17297355321E+01 -0.47886071760E+03  0.69271957027E+03  0.91723289359E+02 0.  0.
         13    1    3    3    0    0 -0.13422252379E+03  0.33904007183E+02 -0.10318603125E+03  0.17266303786E+03  0.00000000000E+00 0.  1.
        -13    1    3    3    0    0 -0.35785131455E+03 -0.35633742715E+02 -0.37567468635E+03  0.52005653241E+03  0.00000000000E+00 0. -1.
         22    1    1    2    0    0  0.49207383834E+03  0.17297355321E+01  0.13934170244E+04  0.14777518933E+04  0.00000000000E+00 0.  1.
<mgrwt>
<rscale>  0 0.19683834E+04</rscale>
<asrwt>0</asrwt>
<pdfrwt beam="1">  1        2 0.96608859E-01 0.19683834E+04</pdfrwt>
<pdfrwt beam="2">  1       -2 0.23730983E+00 0.19683834E+04</pdfrwt>
<totfact> 0.33626121E+00</totfact>
</mgrwt>
</event>
<event>
 6    1  0.1780144E-005  0.2249528E+04  0.7818608E-02  0.8498092E-01
         -2   -1    0    0    0  501 -0.00000000000E+00  0.00000000000E+00  0.14815554299E+04  0.14815554299E+04  0.00000000000E+00 0.  1.
          2   -1    0    0  501    0  0.00000000000E+00 -0.00000000000E+00 -0.85389582138E+03  0.85389582138E+03  0.00000000000E+00 0. -1.
         23    2    1    2    0    0 -0.17249131619E+03  0.67918365327E+03 -0.59678781618E+03  0.92466594342E+03  0.88361305736E+02 0.  0.
         11    1    3    3    0    0 -0.55604399364E+02  0.23775279250E+03 -0.26415075656E+03  0.35971358295E+03  0.00000000000E+00 0. -1.
        -11    1    3    3    0    0 -0.11688691682E+03  0.44143086077E+03 -0.33263705963E+03  0.56495236047E+03  0.00000000000E+00 0.  1.
         22    1    1    2    0    0  0.17249131619E+03 -0.67918365327E+03  0.12244474247E+04  0.14107853079E+04  0.00000000000E+00 0.  1.
<mgrwt>
<rscale>  0 0.22495279E+04</rscale>
<asrwt>0</asrwt>
<pdfrwt beam="1">  1        2 0.13136859E+00 0.22495279E+04</pdfrwt>
<pdfrwt beam="2">  1       -2 0.22793160E+00 0.22495279E+04</pdfrwt>
<totfact> 0.25285298E+00</totfact>
</mgrwt>
</event>
<event>
 6    1  0.1780144E-005  0.1872544E+04  0.7818608E-02  0.8668645E-01
         -2   -1    0    0    0  501 -0.00000000000E+00  0.00000000000E+00  0.67393083644E+03  0.67393083644E+03  0.00000000000E+00 0.  1.
          2   -1    0    0  501    0  0.00000000000E+00 -0.00000000000E+00 -0.13007343458E+04  0.13007343458E+04  0.00000000000E+00 0. -1.
         23    2    1    2    0    0 -0.40764745376E+02  0.40739562380E+03  0.57124986819E+03  0.70858269905E+03  0.90166904906E+02 0.  0.
         11    1    3    3    0    0 -0.27798449295E+02  0.29359942324E+03  0.33691189676E+03  0.44775328172E+03  0.00000000000E+00 0. -1.
        -11    1    3    3    0    0 -0.12966296081E+02  0.11379620056E+03  0.23433797143E+03  0.26082941734E+03  0.00000000000E+00 0.  1.
         22    1    1    2    0    0  0.40764745376E+02 -0.40739562380E+03 -0.11980533776E+04  0.12660824832E+04  0.00000000000E+00 0. -1.
<mgrwt>
<rscale>  0 0.18725437E+04</rscale>
<asrwt>0</asrwt>
<pdfrwt beam="1">  1        2 0.20011298E+00 0.18725437E+04</pdfrwt>
<pdfrwt beam="2">  1       -2 0.10368167E+00 0.18725437E+04</pdfrwt>
<totfact> 0.11747571E+01</totfact>
</mgrwt>
</event>
<event>
 6    1  0.1780144E-005  0.1632641E+04  0.7818608E-02  0.8800742E-01
          2   -1    0    0  501    0  0.00000000000E+00  0.00000000000E+00  0.31647557052E+04  0.31647557052E+04  0.00000000000E+00 0. -1.
         -2   -1    0    0    0  501 -0.00000000000E+00 -0.00000000000E+00 -0.21056267390E+03  0.21056267390E+03  0.00000000000E+00 0.  1.
         23    2    1    2    0    0 -0.46568502212E+03 -0.33070344447E+03  0.26800568849E+04  0.27417744305E+04  0.91623214870E+02 0.  0.
         11    1    3    3    0    0 -0.27941364627E+03 -0.15265942029E+03  0.16039719347E+04  0.16352684341E+04  0.00000000000E+00 0. -1.
        -11    1    3    3    0    0 -0.18627137585E+03 -0.17804402417E+03  0.10760849502E+04  0.11065059964E+04  0.00000000000E+00 0.  1.
         22    1    1    2    0    0  0.46568502212E+03  0.33070344447E+03  0.27413614639E+03  0.63354394857E+03  0.00000000000E+00 0.  1.
<mgrwt>
<rscale>  0 0.16326413E+04</rscale>
<asrwt>0</asrwt>
<pdfrwt beam="1">  1        2 0.48688546E+00 0.16326413E+04</pdfrwt>
<pdfrwt beam="2">  1       -2 0.32394260E-01 0.16326413E+04</pdfrwt>
<totfact> 0.11691140E+01</totfact>
</mgrwt>
</event>
<event>
 6    1  0.1780144E-005  0.1455017E+04  0.7818608E-02  0.8914930E-01
         -2   -1    0    0    0  501 -0.00000000000E+00  0.00000000000E+00  0.47087785942E+03  0.47087785942E+03  0.00000000000E+00 0. -1.
          2   -1    0    0  501    0  0.00000000000E+00 -0.00000000000E+00 -0.11240039011E+04  0.11240039011E+04  0.00000000000E+00 0.  1.
         23    2    1    2    0    0  0.66624668088E+03 -0.28494405941E+03 -0.32692687585E+03  0.80022230357E+03  0.91634034068E+02 0.  0.
         11    1    3    3    0    0  0.23482383251E+03 -0.79512131097E+02 -0.69611145975E+02  0.25750752018E+03  0.00000000000E+00 0. -1.
        -11    1    3    3    0    0  0.43142284837E+03 -0.20543192832E+03 -0.25731572988E+03  0.54271478339E+03  0.00000000000E+00 0.  1.
         22    1    1    2    0    0 -0.66624668088E+03  0.28494405941E+03 -0.32619916586E+03  0.79465945699E+03  0.00000000000E+00 0. -1.
<mgrwt>
<rscale>  0 0.14550169E+04</rscale>
<asrwt>0</asrwt>
<pdfrwt beam="1">  1        2 0.17292367E+00 0.14550169E+04</pdfrwt>
<pdfrwt beam="2">  1       -2 0.72442749E-01 0.14550169E+04</pdfrwt>
<totfact> 0.35200934E+01</totfact>
</mgrwt>
</event>
<event>
 6    1  0.1780144E-005  0.9150301E+03  0.7818608E-02  0.9406986E-01
         -1   -1    0    0    0  501 -0.00000000000E+00  0.00000000000E+00  0.25078030057E+03  0.25078030057E+03  0.00000000000E+00 0.  1.
          1   -1    0    0  501    0  0.00000000000E+00 -0.00000000000E+00 -0.83467484385E+03  0.83467484385E+03  0.00000000000E+00 0. -1.
         23    2    1    2    0    0 -0.43973441272E+03  0.27313063106E+02 -0.17023112122E+03  0.48111270516E+03  0.91533836841E+02 0.  0.
         11    1    3    3    0    0 -0.13547557744E+03 -0.28183177393E+02 -0.30316019160E+02  0.14165798455E+03  0.00000000000E+00 0. -1.
        -11    1    3    3    0    0 -0.30425883528E+03  0.55496240499E+02 -0.13991510206E+03  0.33945472061E+03  0.00000000000E+00 0.  1.
         22    1    1    2    0    0  0.43973441272E+03 -0.27313063106E+02 -0.41366342206E+03  0.60434243926E+03  0.00000000000E+00 0.  1.
<mgrwt>
<rscale>  0 0.91503007E+03</rscale>
<asrwt>0</asrwt>
<pdfrwt beam="1">  1        1 0.12841151E+00 0.91503007E+03</pdfrwt>
<pdfrwt beam="2">  1       -1 0.38581585E-01 0.91503007E+03</pdfrwt>
<totfact> 0.13506952E+02</totfact>
</mgrwt>
</event>
<event>
 6    1  0.1780144E-005  0.7129398E+03  0.7818608E-02  0.9695356E-01
          2   -1    0    0  501    0  0.00000000000E+00  0.00000000000E+00  0.47976806502E+03  0.47976806502E+03  0.00000000000E+00 0. -1.
         -2   -1    0    0    0  501 -0.00000000000E+00 -0.00000000000E+00 -0.26485879912E+03  0.26485879912E+03  0.00000000000E+00 0.  1.
         23    2    1    2    0    0  0.27368433776E+03 -0.21179716950E+03  0.53217179572E+02  0.36265109459E+03  0.94459464651E+02 0.  0.
         11    1    3    3    0    0  0.99055753408E+02 -0.13044674252E+03  0.41191957666E+01  0.16384554523E+03  0.00000000000E+00 0.  1.
        -11    1    3    3    0    0  0.17462858435E+03 -0.81350426973E+02  0.49097983806E+02  0.19880554936E+03  0.00000000000E+00 0. -1.
         22    1    1    2    0    0 -0.27368433776E+03  0.21179716950E+03  0.16169208633E+03  0.38197576955E+03  0.00000000000E+00 0.  1.
<mgrwt>
<rscale>  0 0.71293981E+03</rscale>
<asrwt>0</asrwt>
<pdfrwt beam="1">  1        2 0.73810471E-01 0.71293981E+03</pdfrwt>
<pdfrwt beam="2">  1       -2 0.40747508E-01 0.71293981E+03</pdfrwt>
<totfact> 0.37137268E+02</totfact>
</mgrwt>
</event>
<event>
 6    1  0.1780144E-005  0.4200761E+04  0.7818608E-02  0.7965228E-01
          1   -1    0    0  501    0  0.00000000000E+00  0.00000000000E+00  0.29612839562E+04  0.29612839562E+04  0.00000000000E+00 0. -1.
         -1   -1    0    0    0  501 -0.00000000000E+00 -0.00000000000E+00 -0.14897584877E+04  0.14897584877E+04  0.00000000000E+00 0.  1.
         23    2    1    2    0    0 -0.19096816137E+04 -0.43261095000E+03 -0.66305524181E+02  0.19612713175E+04  0.90292073592E+02 0.  0.
         13    1    3    3    0    0 -0.72980267242E+03 -0.12181076319E+03 -0.35733499418E+02  0.74076088293E+03  0.00000000000E+00 0.  1.
        -13    1    3    3    0    0 -0.11798789413E+04 -0.31080018681E+03 -0.30572024762E+02  0.12205104346E+04  0.00000000000E+00 0. -1.
         22    1    1    2    0    0  0.19096816137E+04  0.43261095000E+03  0.15378309926E+04  0.24897711264E+04  0.00000000000E+00 0. -1.
<mgrwt>
<rscale>  0 0.42007608E+04</rscale>
<asrwt>0</asrwt>
<pdfrwt beam="1">  1        1 0.45558215E+00 0.42007608E+04</pdfrwt>
<pdfrwt beam="2">  1       -1 0.22919361E+00 0.42007608E+04</pdfrwt>
<totfact> 0.46915772E-02</totfact>
</mgrwt>
</event>
<event>
 6    1  0.1780144E-005  0.3289214E+04  0.7818608E-02  0.8165645E-01
          2   -1    0    0  501    0  0.00000000000E+00  0.00000000000E+00  0.32654592843E+04  0.32654592843E+04  0.00000000000E+00 0. -1.
         -2   -1    0    0    0  501 -0.00000000000E+00 -0.00000000000E+00 -0.82828546421E+03  0.82828546421E+03  0.00000000000E+00 0.  1.
         23    2    1    2    0    0 -0.43883225093E+03 -0.55883163109E+03 -0.62493907123E+03  0.95027502612E+03  0.87219528490E+02 0.  0.
         13    1    3    3    0    0 -0.27474028469E+03 -0.31042728014E+03 -0.41028230463E+03  0.58324856604E+03  0.00000000000E+00 0.  1.
        -13    1    3    3    0    0 -0.16409196624E+03 -0.24840435095E+03 -0.21465676660E+03  0.36702646008E+03  0.00000000000E+00 0. -1.
         22    1    1    2    0    0  0.43883225093E+03  0.55883163109E+03  0.30621128914E+04  0.31434697224E+04  0.00000000000E+00 0. -1.
<mgrwt>
<rscale>  0 0.32892142E+04</rscale>
<asrwt>0</asrwt>
<pdfrwt beam="1">  1        2 0.50237834E+00 0.32892142E+04</pdfrwt>
<pdfrwt beam="2">  1       -2 0.12742853E+00 0.32892142E+04</pdfrwt>
<totfact> 0.44795814E-01</totfact>
</mgrwt>
</event>
<event>
 6    1  0.1780144E-005  0.4560684E+04  0.7818608E-02  0.7900098E-01
         -2   -1    0    0    0  501 -0.00000000000E+00  0.00000000000E+00  0.29243216667E+04  0.29243216667E+04  0.00000000000E+00 0.  1.
          2   -1    0    0  501    0  0.00000000000E+00 -0.00000000000E+00 -0.17781763775E+04  0.17781763775E+04  0.00000000000E+00 0. -1.
         23    2    1    2    0    0  0.66464794703E+03 -0.21324488513E+04  0.10386038014E+03  0.22376546763E+04  0.84949837017E+02 0.  0.
         13    1    3    3    0    0  0.39189372186E+03 -0.11661560661E+04  0.24754989065E+02  0.12304931813E+04  0.00000000000E+00 0.  1.
        -13    1    3    3    0    0  0.27275422517E+03 -0.96629278522E+03  0.79105391070E+02  0.10071614950E+04  0.00000000000E+00 0. -1.
         22    1    1    2    0    0 -0.66464794703E+03  0.21324488513E+04  0.10422849091E+04  0.24648433680E+04  0.00000000000E+00 0.  1.
<mgrwt>
<rscale>  0 0.45606840E+04</rscale>
<asrwt>0</asrwt>
<pdfrwt beam="1">  1        2 0.27356560E+00 0.45606840E+04</pdfrwt>
<pdfrwt beam="2">  1       -2 0.44989564E+00 0.45606840E+04</pdfrwt>
<totfact> 0.23292915E-02</totfact>
</mgrwt>
</event>
<event>
 6    1  0.1780144E-005  0.3238131E+04  0.7818608E-02  0.8178819E-01
         -2   -1    0    0    0  501 -0.00000000000E+00  0.00000000000E+00  0.70292541551E+03  0.70292541551E+03  0.00000000000E+00 0.  1.
          2   -1    0    0  501    0  0.00000000000E+00 -0.00000000000E+00 -0.37292338161E+04  0.37292338161E+04  0.00000000000E+00 0. -1.
         23    2    1    2    0    0 -0.58782894976E+03 -0.13388518568E+04 -0.24618309848E+04  0.28647722591E+04  0.90780670357E+02 0.  0.
         13    1    3    3    0    0 -0.56856314171E+03 -0.12595790052E+04 -0.23521424821E+04  0.27280721348E+04  0.00000000000E+00 0.  1.
        -13    1    3    3    0    0 -0.19265808041E+02 -0.79272851631E+02 -0.10968850262E+03  0.13670012426E+03  0.00000000000E+00 0. -1.
         22    1    1    2    0    0  0.58782894976E+03  0.13388518568E+04 -0.56447741579E+03  0.15673869725E+04  0.00000000000E+00 0.  1.
<mgrwt>
<rscale>  0 0.32381311E+04</rscale>
<asrwt>0</asrwt>
<pdfrwt beam="1">  1        2 0.57372827E+00 0.32381311E+04</pdfrwt>
<pdfrwt beam="2">  1       -2 0.10814237E+00 0.32381311E+04</pdfrwt>
<totfact> 0.31860342E-01</totfact>
</mgrwt>
</event>
<event>
 6    1  0.1780144E-005  0.4304339E+04  0.7818608E-02  0.7945816E-01
          3   -1    0    0  501    0  0.00000000000E+00  0.00000000000E+00  0.14930988342E+04  0.14930988342E+04  0.00000000000E+00 0. -1.
         -3   -1    0    0    0  501 -0.00000000000E+00 -0.00000000000E+00 -0.31021617815E+04  0.31021617815E+04  0.00000000000E+00 0.  1.
         23    2    1    2    0    0  0.13681559953E+03  0.13499054224E+04 -0.25872435102E+04  0.29225979565E+04  0.82381288747E+02 0.  0.
         11    1    3    3    0    0  0.10922198352E+03  0.67511090472E+03 -0.13167956035E+04  0.14837974379E+04  0.00000000000E+00 0.  1.
        -11    1    3    3    0    0  0.27593616013E+02  0.67479451768E+03 -0.12704479067E+04  0.14388005186E+04  0.00000000000E+00 0. -1.
         22    1    1    2    0    0 -0.13681559953E+03 -0.13499054224E+04  0.97818056285E+03  0.16726626591E+04  0.00000000000E+00 0. -1.
<mgrwt>
<rscale>  0 0.43043393E+04</rscale>
<asrwt>0</asrwt>
<pdfrwt beam="1">  1        3 0.22970751E+00 0.43043393E+04</pdfrwt>
<pdfrwt beam="2">  1       -3 0.47725566E+00 0.43043393E+04</pdfrwt>
<totfact> 0.77095863E-04</totfact>
</mgrwt>
</event>
<event>
 6    1  0.1780144E-005  0.1143622E+04  0.7818608E-02  0.9163688E-01
         -2   -1    0    0    0  501 -0.00000000000E+00  0.00000000000E+00  0.72706276595E+03  0.72706276595E+03  0.00000000000E+00 0.  1.
          2   -1    0    0  501    0  0.00000000000E+00 -0.00000000000E+00 -0.44971045541E+03  0.44971045541E+03  0.00000000000E+00 0. -1.
         23    2    1    2    0    0 -0.73154332346E+02 -0.55712968831E+03  0.22507902619E+03  0.61243507610E+03  0.93118786900E+02 0.  0.
         13    1    3    3    0    0 -0.42453571128E+02 -0.41130394180E+03  0.12156560251E+03  0.43098890236E+03  0.00000000000E+00 0. -1.
        -13    1    3    3    0    0 -0.30700761218E+02 -0.14582574650E+03  0.10351342368E+03  0.18144617374E+03  0.00000000000E+00 0.  1.
         22    1    1    2    0    0  0.73154332346E+02  0.55712968831E+03  0.52273284348E+02  0.56433814526E+03  0.00000000000E+00 0. -1.
<mgrwt>
<rscale>  0 0.11436218E+04</rscale>
<asrwt>0</asrwt>
<pdfrwt beam="1">  1        2 0.69186224E-01 0.11436218E+04</pdfrwt>
<pdfrwt beam="2">  1       -2 0.11185581E+00 0.11436218E+04</pdfrwt>
<totfact> 0.43476150E+01</totfact>
</mgrwt>
</event>
<event>
 6    1  0.1780144E-005  0.2360449E+04  0.7818608E-02  0.8454461E-01
         -2   -1    0    0    0  501 -0.00000000000E+00  0.00000000000E+00  0.77134045865E+03  0.77134045865E+03  0.00000000000E+00 0.  1.
          2   -1    0    0  501    0  0.00000000000E+00 -0.00000000000E+00 -0.18058565873E+04  0.18058565873E+04  0.00000000000E+00 0. -1.
         23    2    1    2    0    0 -0.20494582077E+03 -0.10014687519E+04 -0.11583072663E+04  0.15475045208E+04  0.90288803982E+02 0.  0.
         11    1    3    3    0    0 -0.19852885532E+03 -0.82010203404E+03 -0.92738677712E+03  0.12538051232E+04  0.00000000000E+00 0.  1.
        -11    1    3    3    0    0 -0.64169654520E+01 -0.18136671788E+03 -0.23092048921E+03  0.29369939758E+03  0.00000000000E+00 0. -1.
         22    1    1    2    0    0  0.20494582077E+03  0.10014687519E+04  0.12379113770E+03  0.10296925251E+04  0.00000000000E+00 0.  1.
<mgrwt>
<rscale>  0 0.23604493E+04</rscale>
<asrwt>0</asrwt>
<pdfrwt beam="1">  1        2 0.27782409E+00 0.23604493E+04</pdfrwt>
<pdfrwt beam="2">  1       -2 0.11866776E+00 0.23604493E+04</pdfrwt>
<totfact> 0.42184347E+00</totfact>
</mgrwt>
</event>
<event>
 6    1  0.1780144E-005  0.1162925E+04  0.7818608E-02  0.9145942E-01
         -2   -1    0    0    0  501 -0.00000000000E+00  0.00000000000E+00  0.23501491177E+03  0.23501491177E+03  0.00000000000E+00 0.  1.
          2   -1    0    0  501    0  0.00000000000E+00 -0.00000000000E+00 -0.14386260340E+04  0.14386260340E+04  0.00000000000E+00 0. -1.
         23    2    1    2    0    0  0.53779665131E+03 -0.65756421036E+02 -0.89471029155E+03  0.10499672584E+04  0.91518265633E+02 0.  0.
         11    1    3    3    0    0  0.44282806424E+03 -0.77400902167E+02 -0.68333201052E+03  0.81794268182E+03  0.00000000000E+00 0.  1.
        -11    1    3    3    0    0  0.94968587065E+02  0.11644481131E+02 -0.21137828103E+03  0.23202457663E+03  0.00000000000E+00 0. -1.
         22    1    1    2    0    0 -0.53779665131E+03  0.65756421036E+02 -0.30890083068E+03  0.62367368732E+03  0.00000000000E+00 0.  1.
<mgrwt>
<rscale>  0 0.11629249E+04</rscale>
<asrwt>0</asrwt>
<pdfrwt beam="1">  1        2 0.22132708E+00 0.11629249E+04</pdfrwt>
<pdfrwt beam="2">  1       -2 0.36156141E-01 0.11629249E+04</pdfrwt>
<totfact> 0.97836911E+01</totfact>
</mgrwt>
</event>
<event>
 6    1  0.1780144E-005  0.3994127E+04  0.7818608E-02  0.8005732E-01
         -2   -1    0    0    0  501 -0.00000000000E+00  0.00000000000E+00  0.81177059498E+03  0.81177059498E+03  0.00000000000E+00 0.  1.
          2   -1    0    0  501    0  0.00000000000E+00 -0.00000000000E+00 -0.49130411688E+04  0.49130411688E+04  0.00000000000E+00 0. -1.
         23    2    1    2    0    0 -0.71716900697E+03  0.11248885857E+04 -0.41797797676E+04  0.43884475139E+04  0.90592283985E+02 0.  0.
         13    1    3    3    0    0 -0.62319126034E+03  0.91558767340E+03 -0.34376944585E+04  0.36117047671E+04  0.00000000000E+00 0. -1.
        -13    1    3    3    0    0 -0.93977746632E+02  0.20930091231E+03 -0.74208530909E+03  0.77674274681E+03  0.00000000000E+00 0.  1.
         22    1    1    2    0    0  0.71716900697E+03 -0.11248885857E+04  0.78509193781E+02  0.13363642499E+04  0.00000000000E+00 0.  1.
<mgrwt>
<rscale>  0 0.39941269E+04</rscale>
<asrwt>0</asrwt>
<pdfrwt beam="1">  1        2 0.75585248E+00 0.39941269E+04</pdfrwt>
<pdfrwt beam="2">  1       -2 0.12488778E+00 0.39941269E+04</pdfrwt>
<totfact> 0.16486712E-02</totfact>
</mgrwt>
</event>
<event>
 6    1  0.1780144E-005  0.2052604E+04  0.7818608E-02  0.8582414E-01
         -1   -1    0    0    0  501 -0.00000000000E+00  0.00000000000E+00  0.55152193552E+03  0.55152193552E+03  0.00000000000E+00 0.  1.
          1   -1    0    0  501    0  0.00000000000E+00 -0.00000000000E+00 -0.19097980022E+04  0.19097980022E+04  0.00000000000E+00 0. -1.
         23    2    1    2    0    0 -0.66193159024E+02  0.43483695740E+03 -0.17896774497E+04  0.18452258969E+04  0.91915844547E+02 0.  0.
         13    1    3    3    0    0 -0.15296999080E+02  0.35055846390E+03 -0.13991860589E+04  0.14425140769E+04  0.00000000000E+00 0.  1.
        -13    1    3    3    0    0 -0.50896159945E+02  0.84278493497E+02 -0.39049139087E+03  0.40271181992E+03  0.00000000000E+00 0. -1.
         22    1    1    2    0    0  0.66193159024E+02 -0.43483695740E+03  0.43140138310E+03  0.61609404084E+03  0.00000000000E+00 0.  1.
<mgrwt>
<rscale>  0 0.20526037E+04</rscale>
<asrwt>0</asrwt>
<pdfrwt beam="1">  1        1 0.29381508E+00 0.20526037E+04</pdfrwt>
<pdfrwt beam="2">  1       -1 0.84849528E-01 0.20526037E+04</pdfrwt>
<totfact> 0.43541854E+00</totfact>
</mgrwt>
</event>
<event>
 6    1  0.1780144E-005  0.3127681E+04  0.7818608E-02  0.8208182E-01
          2   -1    0    0  501    0  0.00000000000E+00  0.00000000000E+00  0.23164624707E+04  0.23164624707E+04  0.00000000000E+00 0. -1.
         -2   -1    0    0    0  501 -0.00000000000E+00 -0.00000000000E+00 -0.10557464161E+04  0.10557464161E+04  0.00000000000E+00 0.  1.
         23    2    1    2    0    0  0.13237131291E+04 -0.29969771955E+02 -0.26352266480E+03  0.13531946943E+04  0.92612366292E+02 0.  0.
         13    1    3    3    0    0  0.82270103868E+03  0.15180242803E+02 -0.13328013783E+03  0.83356525476E+03  0.00000000000E+00 0.  1.
        -13    1    3    3    0    0  0.50101209045E+03 -0.45150014758E+02 -0.13024252697E+03  0.51962943955E+03  0.00000000000E+00 0. -1.
         22    1    1    2    0    0 -0.13237131291E+04  0.29969771955E+02  0.15242387195E+04  0.20190141925E+04  0.00000000000E+00 0. -1.
<mgrwt>
<rscale>  0 0.31276809E+04</rscale>
<asrwt>0</asrwt>
<pdfrwt beam="1">  1        2 0.35637884E+00 0.31276809E+04</pdfrwt>
<pdfrwt beam="2">  1       -2 0.16242253E+00 0.31276809E+04</pdfrwt>
<totfact> 0.90858062E-01</totfact>
</mgrwt>
</event>
<event>
 6    1  0.1780144E-005  0.2166840E+04  0.7818608E-02  0.8532358E-01
         -2   -1    0    0    0  501 -0.00000000000E+00  0.00000000000E+00  0.79628902220E+03  0.79628902220E+03  0.00000000000E+00 0. -1.
          2   -1    0    0  501    0  0.00000000000E+00 -0.00000000000E+00 -0.14740864008E+04  0.14740864008E+04  0.00000000000E+00 0.  1.
         23    2    1    2    0    0  0.69057162866E+03  0.43867063074E+03  0.40160018402E+03  0.91596773151E+03  0.91613758676E+02 0.  0.
         11    1    3    3    0    0  0.14403948254E+03  0.11859700023E+03  0.57888437782E+02  0.19535529740E+03  0.00000000000E+00 0.  1.
        -11    1    3    3    0    0  0.54653214612E+03  0.32007363051E+03  0.34371174624E+03  0.72061243411E+03  0.00000000000E+00 0. -1.
         22    1    1    2    0    0 -0.69057162866E+03 -0.43867063074E+03 -0.10793975626E+04  0.13544076915E+04  0.00000000000E+00 0.  1.
<mgrwt>
<rscale>  0 0.21668399E+04</rscale>
<asrwt>0</asrwt>
<pdfrwt beam="1">  1        2 0.22678252E+00 0.21668399E+04</pdfrwt>
<pdfrwt beam="2">  1       -2 0.12250600E+00 0.21668399E+04</pdfrwt>
<totfact> 0.60700594E+00</totfact>
</mgrwt>
</event>
<event>
 6    1  0.1780144E-005  0.1619648E+04  0.7818608E-02  0.8808568E-01
         -2   -1    0    0    0  501 -0.00000000000E+00  0.00000000000E+00  0.61893966646E+03  0.61893966646E+03  0.00000000000E+00 0.  1.
          2   -1    0    0  501    0  0.00000000000E+00 -0.00000000000E+00 -0.10595776703E+04  0.10595776703E+04  0.00000000000E+00 0. -1.
         23    2    1    2    0    0  0.73209436095E+03 -0.16952826559E+03 -0.52644987455E+03  0.92216711140E+03  0.92416041622E+02 0.  0.
         11    1    3    3    0    0  0.48698660919E+03 -0.10329671866E+03 -0.29534363628E+03  0.57883852075E+03  0.00000000000E+00 0. -1.
        -11    1    3    3    0    0  0.24510775176E+03 -0.66231546934E+02 -0.23110623828E+03  0.34332859064E+03  0.00000000000E+00 0.  1.
         22    1    1    2    0    0 -0.73209436095E+03  0.16952826559E+03  0.85811870761E+02  0.75635022532E+03  0.00000000000E+00 0.  1.
<mgrwt>
<rscale>  0 0.16196477E+04</rscale>
<asrwt>0</asrwt>
<pdfrwt beam="1">  1        2 0.16301195E+00 0.16196477E+04</pdfrwt>
<pdfrwt beam="2">  1       -2 0.95221488E-01 0.16196477E+04</pdfrwt>
<totfact> 0.20493891E+01</totfact>
</mgrwt>
</event>
<event>
 6    1  0.1780144E-005  0.2931166E+04  0.7818608E-02  0.8263665E-01
          1   -1    0    0  501    0  0.00000000000E+00  0.00000000000E+00  0.25526024056E+04  0.25526024056E+04  0.00000000000E+00 0. -1.
         -1   -1    0    0    0  501 -0.00000000000E+00 -0.00000000000E+00 -0.84146831242E+03  0.84146831242E+03  0.00000000000E+00 0.  1.
         23    2    1    2    0    0  0.18947049720E+03 -0.93406889924E+03  0.21433263136E+04  0.23475651551E+04  0.93971766605E+02 0.  0.
         13    1    3    3    0    0  0.49588060264E+02 -0.44569062476E+03  0.94510314446E+03  0.10460970616E+04  0.00000000000E+00 0. -1.
        -13    1    3    3    0    0  0.13988243693E+03 -0.48837827448E+03  0.11982231692E+04  0.13014680934E+04  0.00000000000E+00 0.  1.
         22    1    1    2    0    0 -0.18947049720E+03  0.93406889924E+03 -0.43219222044E+03  0.10465055629E+04  0.00000000000E+00 0.  1.
<mgrwt>
<rscale>  0 0.29311663E+04</rscale>
<asrwt>0</asrwt>
<pdfrwt beam="1">  1        1 0.39270806E+00 0.29311663E+04</pdfrwt>
<pdfrwt beam="2">  1       -1 0.12945666E+00 0.29311663E+04</pdfrwt>
<totfact> 0.54613763E-01</totfact>
</mgrwt>
</event>
<event>
 6    1  0.1780144E-005  0.1656024E+04  0.7818608E-02  0.8786851E-01
         -1   -1    0    0    0  501 -0.00000000000E+00  0.00000000000E+00  0.69789696440E+03  0.69789696440E+03  0.00000000000E+00 0.  1.
          1   -1    0    0  501    0  0.00000000000E+00 -0.00000000000E+00 -0.98238514634E+03  0.98238514634E+03  0.00000000000E+00 0. -1.
         23    2    1    2    0    0  0.47155127176E+03 -0.12888896405E+03  0.53221521342E+03  0.72845365826E+03  0.91753647791E+02 0.  0.
         11    1    3    3    0    0  0.15177062207E+03 -0.48472262762E+02  0.23880220864E+03  0.28707207603E+03  0.00000000000E+00 0.  1.
        -11    1    3    3    0    0  0.31978064969E+03 -0.80416701292E+02  0.29341300478E+03  0.44138158224E+03  0.00000000000E+00 0. -1.
         22    1    1    2    0    0 -0.47155127176E+03  0.12888896405E+03 -0.81670339536E+03  0.95182845248E+03  0.00000000000E+00 0. -1.
<mgrwt>
<rscale>  0 0.16560237E+04</rscale>
<asrwt>0</asrwt>
<pdfrwt beam="1">  1        1 0.15113618E+00 0.16560237E+04</pdfrwt>
<pdfrwt beam="2">  1       -1 0.10736876E+00 0.16560237E+04</pdfrwt>
<totfact> 0.12058451E+01</totfact>
</mgrwt>
</event>
<event>
 6    1  0.1780144E-005  0.2904367E+04  0.7818608E-02  0.8271579E-01
         -2   -1    0    0    0  501 -0.00000000000E+00  0.00000000000E+00  0.71946801752E+03  0.71946801752E+03  0.00000000000E+00 0. -1.
          2   -1    0    0  501    0  0.00000000000E+00 -0.00000000000E+00 -0.29311057247E+04  0.29311057247E+04  0.00000000000E+00 0.  1.
         23    2    1    2    0    0  0.14074077425E+04  0.16930815632E+03 -0.14941087711E+04  0.20617661455E+04  0.95167290082E+02 0.  0.
         13    1    3    3    0    0  0.70336117489E+03  0.12564984756E+03 -0.71616721106E+03  0.10116324929E+04  0.00000000000E+00 0. -1.
        -13    1    3    3    0    0  0.70404656761E+03  0.43658308765E+02 -0.77794156008E+03  0.10501336525E+04  0.00000000000E+00 0.  1.
         22    1    1    2    0    0 -0.14074077425E+04 -0.16930815632E+03 -0.71752893600E+03  0.15888075967E+04  0.00000000000E+00 0.  1.
<mgrwt>
<rscale>  0 0.29043669E+04</rscale>
<asrwt>0</asrwt>
<pdfrwt beam="1">  1        2 0.45093935E+00 0.29043669E+04</pdfrwt>
<pdfrwt beam="2">  1       -2 0.11068739E+00 0.29043669E+04</pdfrwt>
<totfact> 0.10726742E+00</totfact>
</mgrwt>
</event>
<event>
 6    1  0.1780144E-005  0.1152948E+04  0.7818608E-02  0.9155068E-01
         -1   -1    0    0    0  501 -0.00000000000E+00  0.00000000000E+00  0.58760731756E+03  0.58760731756E+03  0.00000000000E+00 0.  1.
          1   -1    0    0  501    0  0.00000000000E+00 -0.00000000000E+00 -0.56555160227E+03  0.56555160227E+03  0.00000000000E+00 0. -1.
         23    2    1    2    0    0 -0.14946489569E+03 -0.31039030172E+03  0.46894684680E+03  0.58889517134E+03  0.90578602675E+02 0.  0.
         13    1    3    3    0    0 -0.74144223464E+02 -0.15397540551E+03  0.15787828537E+03  0.23266143721E+03  0.00000000000E+00 0.  1.
        -13    1    3    3    0    0 -0.75320672230E+02 -0.15641489620E+03  0.31106856143E+03  0.35623373412E+03  0.00000000000E+00 0. -1.
         22    1    1    2    0    0  0.14946489569E+03  0.31039030172E+03 -0.44689113151E+03  0.56426374850E+03  0.00000000000E+00 0. -1.
<mgrwt>
<rscale>  0 0.11529480E+04</rscale>
<asrwt>0</asrwt>
<pdfrwt beam="1">  1        1 0.87007938E-01 0.11529480E+04</pdfrwt>
<pdfrwt beam="2">  1       -1 0.90401126E-01 0.11529480E+04</pdfrwt>
<totfact> 0.44309330E+01</totfact>
</mgrwt>
</event>
<event>
 6    1  0.1780144E-005  0.1821627E+04  0.7818608E-02  0.8694882E-01
         -1   -1    0    0    0  501 -0.00000000000E+00  0.00000000000E+00  0.45455644914E+03  0.45455644914E+03  0.00000000000E+00 0.  1.
          1   -1    0    0  501    0  0.00000000000E+00 -0.00000000000E+00 -0.18250347162E+04  0.18250347162E+04  0.00000000000E+00 0. -1.
         23    2    1    2    0    0 -0.69693535958E+03  0.56907017144E+03 -0.52894186722E+03  0.10476239305E+04  0.90424805213E+02 0.  0.
         13    1    3    3    0    0 -0.46733061276E+03  0.35091536444E+03 -0.38425825089E+03  0.69942397585E+03  0.00000000000E+00 0.  1.
        -13    1    3    3    0    0 -0.22960474682E+03  0.21815480701E+03 -0.14468361634E+03  0.34819995465E+03  0.00000000000E+00 0. -1.
         22    1    1    2    0    0  0.69693535958E+03 -0.56907017144E+03 -0.84153639985E+03  0.12319672348E+04  0.00000000000E+00 0. -1.
<mgrwt>
<rscale>  0 0.18216271E+04</rscale>
<asrwt>0</asrwt>
<pdfrwt beam="1">  1        1 0.28077457E+00 0.18216271E+04</pdfrwt>
<pdfrwt beam="2">  1       -1 0.69931762E-01 0.18216271E+04</pdfrwt>
<totfact> 0.76277379E+00</totfact>
</mgrwt>
</event>
<event>
 6    1  0.1780144E-005  0.1195583E+04  0.7818608E-02  0.9116731E-01
          2   -1    0    0  501    0  0.00000000000E+00  0.00000000000E+00  0.10790143640E+04  0.10790143640E+04  0.00000000000E+00 0. -1.
         -2   -1    0    0    0  501 -0.00000000000E+00 -0.00000000000E+00 -0.33118628701E+03  0.33118628701E+03  0.00000000000E+00 0.  1.
         23    2    1    2    0    0 -0.42835597604E+03  0.40905960273E+03  0.42981216091E+03  0.73792635904E+03  0.94753453232E+02 0.  0.
         13    1    3    3    0    0 -0.17649451698E+03  0.12038995105E+03  0.11864186453E+03  0.24437664957E+03  0.00000000000E+00 0.  1.
        -13    1    3    3    0    0 -0.25186145906E+03  0.28866965168E+03  0.31117029638E+03  0.49354970947E+03  0.00000000000E+00 0. -1.
         22    1    1    2    0    0  0.42835597604E+03 -0.40905960273E+03  0.31801591611E+03  0.67227429201E+03  0.00000000000E+00 0.  1.
<mgrwt>
<rscale>  0 0.11955831E+04</rscale>
<asrwt>0</asrwt>
<pdfrwt beam="1">  1        2 0.16600221E+00 0.11955831E+04</pdfrwt>
<pdfrwt beam="2">  1       -2 0.50951737E-01 0.11955831E+04</pdfrwt>
<totfact> 0.80660599E+01</totfact>
</mgrwt>
</event>
<event>
 6    1  0.1780144E-005  0.2828409E+04  0.7818608E-02  0.8294503E-01
          1   -1    0    0  501    0  0.00000000000E+00  0.00000000000E+00  0.12059731428E+04  0.12059731428E+04  0.00000000000E+00 0.  1.
         -1   -1    0    0    0  501 -0.00000000000E+00 -0.00000000000E+00 -0.16583899402E+04  0.16583899402E+04  0.00000000000E+00 0. -1.
         23    2    1    2    0    0 -0.91774553746E+03 -0.51478177696E+03 -0.11810499882E+04  0.15844554785E+04  0.91449108025E+02 0.  0.
         11    1    3    3    0    0 -0.41382744934E+03 -0.18063517226E+03 -0.51312793372E+03  0.68350749787E+03  0.00000000000E+00 0.  1.
        -11    1    3    3    0    0 -0.50391808812E+03 -0.33414660470E+03 -0.66792205445E+03  0.90094798062E+03  0.00000000000E+00 0. -1.
         22    1    1    2    0    0  0.91774553746E+03  0.51478177696E+03  0.72863319077E+03  0.12799076045E+04  0.00000000000E+00 0.  1.
<mgrwt>
<rscale>  0 0.28284085E+04</rscale>
<asrwt>0</asrwt>
<pdfrwt beam="1">  1        1 0.18553433E+00 0.28284085E+04</pdfrwt>
<pdfrwt beam="2">  1       -1 0.25513691E+00 0.28284085E+04</pdfrwt>
<totfact> 0.58960163E-01</totfact>
</mgrwt>
</event>
<event>
 6    1  0.1780144E-005  0.2441790E+04  0.7818608E-02  0.8424022E-01
          2   -1    0    0  501    0  0.00000000000E+00  0.00000000000E+00  0.95632377015E+03  0.95632377015E+03  0.00000000000E+00 0. -1.
         -2   -1    0    0    0  501 -0.00000000000E+00 -0.00000000000E+00 -0.15586610766E+04  0.15586610766E+04  0.00000000000E+00 0.  1.
         23    2    1    2    0    0  0.34052513652E+03 -0.11704414610E+04 -0.28074919573E+03  0.12543066582E+04  0.92598594377E+02 0.  0.
         13    1    3    3    0    0  0.14888376239E+03 -0.63667595682E+03 -0.18135144415E+03  0.67853592020E+03  0.00000000000E+00 0. -1.
        -13    1    3    3    0    0  0.19164137413E+03 -0.53376550417E+03 -0.99397751583E+02  0.57577073800E+03  0.00000000000E+00 0.  1.
         22    1    1    2    0    0 -0.34052513652E+03  0.11704414610E+04 -0.32158811077E+03  0.12606781886E+04  0.00000000000E+00 0. -1.
<mgrwt>
<rscale>  0 0.24417900E+04</rscale>
<asrwt>0</asrwt>
<pdfrwt beam="1">  1        2 0.14712674E+00 0.24417900E+04</pdfrwt>
<pdfrwt beam="2">  1       -2 0.23979401E+00 0.24417900E+04</pdfrwt>
<totfact> 0.17900516E+00</totfact>
</mgrwt>
</event>
<event>
 6    1  0.1780144E-005  0.2426822E+04  0.7818608E-02  0.8429530E-01
          1   -1    0    0  501    0  0.00000000000E+00  0.00000000000E+00  0.42607129690E+04  0.42607129690E+04  0.00000000000E+00 0. -1.
         -1   -1    0    0    0  501 -0.00000000000E+00 -0.00000000000E+00 -0.34556798666E+03  0.34556798666E+03  0.00000000000E+00 0.  1.
         23    2    1    2    0    0  0.57650562992E+03 -0.35388026408E+03  0.38684420181E+04  0.39282166891E+04  0.91938711779E+02 0.  0.
         13    1    3    3    0    0  0.33800373605E+03 -0.19938719137E+03  0.19800990115E+04  0.20186118678E+04  0.00000000000E+00 0. -1.
        -13    1    3    3    0    0  0.23850189387E+03 -0.15449307271E+03  0.18883430066E+04  0.19096048213E+04  0.00000000000E+00 0.  1.
         22    1    1    2    0    0 -0.57650562992E+03  0.35388026408E+03  0.46702964217E+02  0.67806426650E+03  0.00000000000E+00 0.  1.
<mgrwt>
<rscale>  0 0.24268218E+04</rscale>
<asrwt>0</asrwt>
<pdfrwt beam="1">  1        1 0.65549426E+00 0.24268218E+04</pdfrwt>
<pdfrwt beam="2">  1       -1 0.53164309E-01 0.24268218E+04</pdfrwt>
<totfact> 0.17775342E-01</totfact>
</mgrwt>
</event>
<event>
 6    1  0.1780144E-005  0.1498565E+04  0.7818608E-02  0.8885408E-01
         -1   -1    0    0    0  501 -0.00000000000E+00  0.00000000000E+00  0.68990481116E+03  0.68990481116E+03  0.00000000000E+00 0.  1.
          1   -1    0    0  501    0  0.00000000000E+00 -0.00000000000E+00 -0.81377012590E+03  0.81377012590E+03  0.00000000000E+00 0. -1.
         23    2    1    2    0    0 -0.49427994744E+03 -0.50328836344E+03  0.18345485476E+03  0.73422219010E+03  0.88400777658E+02 0.  0.
         13    1    3    3    0    0 -0.25541079587E+03 -0.20297478679E+03  0.65263939167E+02  0.33270530575E+03  0.00000000000E+00 0. -1.
        -13    1    3    3    0    0 -0.23886915157E+03 -0.30031357665E+03  0.11819091560E+03  0.40151688435E+03  0.00000000000E+00 0.  1.
         22    1    1    2    0    0  0.49427994744E+03  0.50328836344E+03 -0.30732016951E+03  0.76945274696E+03  0.00000000000E+00 0.  1.
<mgrwt>
<rscale>  0 0.14985645E+04</rscale>
<asrwt>0</asrwt>
<pdfrwt beam="1">  1        1 0.12519540E+00 0.14985645E+04</pdfrwt>
<pdfrwt beam="2">  1       -1 0.10613920E+00 0.14985645E+04</pdfrwt>
<totfact> 0.17280588E+01</totfact>
</mgrwt>
</event>
<event>
 6    1  0.1780144E-005  0.2993190E+04  0.7818608E-02  0.8245678E-01
          1   -1    0    0  501    0  0.00000000000E+00  0.00000000000E+00  0.23993934101E+04  0.23993934101E+04  0.00000000000E+00 0. -1.
         -1   -1    0    0    0  501 -0.00000000000E+00 -0.00000000000E+00 -0.93348422578E+03  0.93348422578E+03  0.00000000000E+00 0.  1.
         23    2    1    2    0    0 -0.13343181870E+04  0.62260618541E+03  0.10227552219E+04  0.17952076711E+04  0.93267638143E+02 0.  0.
         13    1    3    3    0    0 -0.10238870934E+04  0.51719049765E+03  0.77700822288E+03  0.13854864017E+04  0.00000000000E+00 0.  1.
        -13    1    3    3    0    0 -0.31043109358E+03  0.10541568776E+03  0.24574699899E+03  0.40972126940E+03  0.00000000000E+00 0. -1.
         22    1    1    2    0    0  0.13343181870E+04 -0.62260618541E+03  0.44315396243E+03  0.15376699648E+04  0.00000000000E+00 0.  1.
<mgrwt>
<rscale>  0 0.29931895E+04</rscale>
<asrwt>0</asrwt>
<pdfrwt beam="1">  1        1 0.36913745E+00 0.29931895E+04</pdfrwt>
<pdfrwt beam="2">  1       -1 0.14361296E+00 0.29931895E+04</pdfrwt>
<totfact> 0.53060204E-01</totfact>
</mgrwt>
</event>
<event>
 6    1  0.1780144E-005  0.3167092E+04  0.7818608E-02  0.8197562E-01
         -1   -1    0    0    0  501 -0.00000000000E+00  0.00000000000E+00  0.11730485853E+04  0.11730485853E+04  0.00000000000E+00 0.  1.
          1   -1    0    0  501    0  0.00000000000E+00 -0.00000000000E+00 -0.21376937747E+04  0.21376937747E+04  0.00000000000E+00 0. -1.
         23    2    1    2    0    0  0.13870096224E+04 -0.64113819671E+03 -0.91188681676E+03  0.17818089651E+04  0.91933354214E+02 0.  0.
         11    1    3    3    0    0  0.32363768027E+03 -0.13870555531E+03 -0.25452963763E+03  0.43447199633E+03  0.00000000000E+00 0.  1.
        -11    1    3    3    0    0  0.10633719422E+04 -0.50243264141E+03 -0.65735717914E+03  0.13473369688E+04  0.00000000000E+00 0. -1.
         22    1    1    2    0    0 -0.13870096224E+04  0.64113819671E+03 -0.52758372684E+02  0.15289333948E+04  0.00000000000E+00 0.  1.
<mgrwt>
<rscale>  0 0.31670925E+04</rscale>
<asrwt>0</asrwt>
<pdfrwt beam="1">  1        1 0.32887597E+00 0.31670925E+04</pdfrwt>
<pdfrwt beam="2">  1       -1 0.18046901E+00 0.31670925E+04</pdfrwt>
<totfact> 0.41619737E-01</totfact>
</mgrwt>
</event>
<event>
 6    1  0.1780144E-005  0.2041571E+04  0.7818608E-02  0.8587428E-01
         -1   -1    0    0    0  501 -0.00000000000E+00  0.00000000000E+00  0.10906620260E+04  0.10906620260E+04  0.00000000000E+00 0.  1.
          1   -1    0    0  501    0  0.00000000000E+00 -0.00000000000E+00 -0.95538548659E+03  0.95538548659E+03  0.00000000000E+00 0. -1.
         23    2    1    2    0    0  0.23676324277E+03 -0.64008231153E+03  0.82584553064E+03  0.10751470386E+04  0.90322287183E+02 0.  0.
         13    1    3    3    0    0  0.17082232587E+03 -0.33518633747E+03  0.46640299697E+03  0.59921774292E+03  0.00000000000E+00 0. -1.
        -13    1    3    3    0    0  0.65940916901E+02 -0.30489597406E+03  0.35944253366E+03  0.47592929572E+03  0.00000000000E+00 0.  1.
         22    1    1    2    0    0 -0.23676324277E+03  0.64008231153E+03 -0.69056899123E+03  0.97090047394E+03  0.00000000000E+00 0. -1.
<mgrwt>
<rscale>  0 0.20415706E+04</rscale>
<asrwt>0</asrwt>
<pdfrwt beam="1">  1        1 0.14698238E+00 0.20415706E+04</pdfrwt>
<pdfrwt beam="2">  1       -1 0.16779416E+00 0.20415706E+04</pdfrwt>
<totfact> 0.38753709E+00</totfact>
</mgrwt>
</event>
<event>
 6    1  0.1780144E-005  0.2994628E+04  0.7818608E-02  0.8245266E-01
         -1   -1    0    0    0  501 -0.00000000000E+00  0.00000000000E+00  0.28069884739E+04  0.28069884739E+04  0.00000000000E+00 0.  1.
          1   -1    0    0  501    0  0.00000000000E+00 -0.00000000000E+00 -0.79870288587E+03  0.79870288587E+03  0.00000000000E+00 0. -1.
         23    2    1    2    0    0 -0.40150295991E+03  0.24228257827E+03  0.27156680282E+04  0.27569891793E+04  0.78936816892E+02 0.  0.
         13    1    3    3    0    0 -0.98266989372E+02  0.85108849436E+02  0.91843625537E+03  0.92759100504E+03  0.00000000000E+00 0.  1.
        -13    1    3    3    0    0 -0.30323597054E+03  0.15717372884E+03  0.17972317728E+04  0.18293981743E+04  0.00000000000E+00 0. -1.
         22    1    1    2    0    0  0.40150295991E+03 -0.24228257827E+03 -0.70738244012E+03  0.84870218048E+03  0.00000000000E+00 0. -1.
<mgrwt>
<rscale>  0 0.29946284E+04</rscale>
<asrwt>0</asrwt>
<pdfrwt beam="1">  1        1 0.12287737E+00 0.29946284E+04</pdfrwt>
<pdfrwt beam="2">  1       -1 0.43184438E+00 0.29946284E+04</pdfrwt>
<totfact> 0.81441765E-02</totfact>
</mgrwt>
</event>
<event>
 6    1  0.1780144E-005  0.2508035E+04  0.7818608E-02  0.8400128E-01
         -2   -1    0    0    0  501 -0.00000000000E+00  0.00000000000E+00  0.10653035861E+04  0.10653035861E+04  0.00000000000E+00 0. -1.
          2   -1    0    0  501    0  0.00000000000E+00 -0.00000000000E+00 -0.14761618087E+04  0.14761618087E+04  0.00000000000E+00 0.  1.
         23    2    1    2    0    0 -0.63606303923E+03 -0.16038231739E+03  0.87539078303E+03  0.10976041888E+04  0.90151287629E+02 0.  0.
         13    1    3    3    0    0 -0.28398195450E+03 -0.76767638991E+02  0.46722016082E+03  0.55211746898E+03  0.00000000000E+00 0.  1.
        -13    1    3    3    0    0 -0.35208108473E+03 -0.83614678399E+02  0.40817062221E+03  0.54548671982E+03  0.00000000000E+00 0. -1.
         22    1    1    2    0    0  0.63606303923E+03  0.16038231739E+03 -0.12862490056E+04  0.14438612060E+04  0.00000000000E+00 0.  1.
<mgrwt>
<rscale>  0 0.25080355E+04</rscale>
<asrwt>0</asrwt>
<pdfrwt beam="1">  1        2 0.22710182E+00 0.25080355E+04</pdfrwt>
<pdfrwt beam="2">  1       -2 0.16389286E+00 0.25080355E+04</pdfrwt>
<totfact> 0.27529955E+00</totfact>
</mgrwt>
</event>
<event>
 6    1  0.1780144E-005  0.6031530E+04  0.7818608E-02  0.7686505E-01
         -2   -1    0    0    0  501 -0.00000000000E+00  0.00000000000E+00  0.26920140901E+04  0.26920140901E+04  0.00000000000E+00 0.  1.
          2   -1    0    0  501    0  0.00000000000E+00 -0.00000000000E+00 -0.33784512583E+04  0.33784512583E+04  0.00000000000E+00 0. -1.
         23    2    1    2    0    0 -0.18670450104E+04  0.56993506144E+03  0.19693758546E+04  0.27744031740E+04  0.90491271505E+02 0.  0.
         11    1    3    3    0    0 -0.30598402534E+03  0.12060907515E+03  0.36292513909E+03  0.48978304315E+03  0.00000000000E+00 0.  1.
        -11    1    3    3    0    0 -0.15610609850E+04  0.44932598629E+03  0.16064507155E+04  0.22846201309E+04  0.00000000000E+00 0. -1.
         22    1    1    2    0    0  0.18670450104E+04 -0.56993506144E+03 -0.26558130228E+04  0.32960621744E+04  0.00000000000E+00 0. -1.
<mgrwt>
<rscale>  0 0.60315300E+04</rscale>
<asrwt>0</asrwt>
<pdfrwt beam="1">  1        2 0.51976173E+00 0.60315300E+04</pdfrwt>
<pdfrwt beam="2">  1       -2 0.41415602E+00 0.60315300E+04</pdfrwt>
<totfact> 0.39696985E-03</totfact>
</mgrwt>
</event>
<event>
 6    1  0.1780144E-005  0.2477015E+04  0.7818608E-02  0.8411220E-01
          2   -1    0    0  501    0  0.00000000000E+00  0.00000000000E+00  0.32259220296E+04  0.32259220296E+04  0.00000000000E+00 0.  1.
         -2   -1    0    0    0  501 -0.00000000000E+00 -0.00000000000E+00 -0.47549209265E+03  0.47549209265E+03  0.00000000000E+00 0. -1.
         23    2    1    2    0    0 -0.33879562614E+03  0.84240646769E+03  0.26320804726E+04  0.27857516687E+04  0.90186542920E+02 0.  0.
         11    1    3    3    0    0 -0.22251693104E+03  0.43548051878E+03  0.14400235271E+04  0.15207974308E+04  0.00000000000E+00 0.  1.
        -11    1    3    3    0    0 -0.11627869510E+03  0.40692594891E+03  0.11920569455E+04  0.12649542379E+04  0.00000000000E+00 0. -1.
         22    1    1    2    0    0  0.33879562614E+03 -0.84240646769E+03  0.11834946436E+03  0.91566245353E+03  0.00000000000E+00 0. -1.
<mgrwt>
<rscale>  0 0.24770147E+04</rscale>
<asrwt>0</asrwt>
<pdfrwt beam="1">  1        2 0.49629568E+00 0.24770147E+04</pdfrwt>
<pdfrwt beam="2">  1       -2 0.73152632E-01 0.24770147E+04</pdfrwt>
<totfact> 0.18815968E+00</totfact>
</mgrwt>
</event>
<event>
 6    1  0.1780144E-005  0.2961248E+04  0.7818608E-02  0.8254884E-01
          2   -1    0    0  501    0  0.00000000000E+00  0.00000000000E+00  0.30198800564E+04  0.30198800564E+04  0.00000000000E+00 0.  1.
         -2   -1    0    0    0  501 -0.00000000000E+00 -0.00000000000E+00 -0.72593874678E+03  0.72593874678E+03  0.00000000000E+00 0. -1.
         23    2    1    2    0    0 -0.50406591735E+03 -0.75567148280E+03 -0.32859077145E+03  0.97042759559E+03  0.92929996508E+02 0.  0.
         11    1    3    3    0    0 -0.30228636497E+03 -0.45267304123E+03 -0.14815731086E+03  0.56412810377E+03  0.00000000000E+00 0.  1.
        -11    1    3    3    0    0 -0.20177955239E+03 -0.30299844157E+03 -0.18043346059E+03  0.40629949182E+03  0.00000000000E+00 0. -1.
         22    1    1    2    0    0  0.50406591735E+03  0.75567148280E+03  0.26225320811E+04  0.27753912076E+04  0.00000000000E+00 0.  1.
<mgrwt>
<rscale>  0 0.29612483E+04</rscale>
<asrwt>0</asrwt>
<pdfrwt beam="1">  1        2 0.46459693E+00 0.29612483E+04</pdfrwt>
<pdfrwt beam="2">  1       -2 0.11168289E+00 0.29612483E+04</pdfrwt>
<totfact> 0.91943750E-01</totfact>
</mgrwt>
</event>
<event>
 6    1  0.1780144E-005  0.1653576E+04  0.7818608E-02  0.8788294E-01
          2   -1    0    0  501    0  0.00000000000E+00  0.00000000000E+00  0.30831918491E+04  0.30831918491E+04  0.00000000000E+00 0. -1.
         -2   -1    0    0    0  501 -0.00000000000E+00 -0.00000000000E+00 -0.22171138173E+03  0.22171138173E+03  0.00000000000E+00 0.  1.
         23    2    1    2    0    0  0.41380435471E+03  0.42540470239E+03  0.25790337089E+04  0.26476518511E+04  0.80263616571E+02 0.  0.
         11    1    3    3    0    0  0.11004208565E+03  0.96980606460E+02  0.50219652831E+03  0.52317860401E+03  0.00000000000E+00 0. -1.
        -11    1    3    3    0    0  0.30376226906E+03  0.32842409593E+03  0.20768371806E+04  0.21244732471E+04  0.00000000000E+00 0.  1.
         22    1    1    2    0    0 -0.41380435471E+03 -0.42540470239E+03  0.28244675847E+03  0.65725137974E+03  0.00000000000E+00 0.  1.
<mgrwt>
<rscale>  0 0.16535764E+04</rscale>
<asrwt>0</asrwt>
<pdfrwt beam="1">  1        2 0.47433718E+00 0.16535764E+04</pdfrwt>
<pdfrwt beam="2">  1       -2 0.34109446E-01 0.16535764E+04</pdfrwt>
<totfact> 0.11927659E+01</totfact>
</mgrwt>
</event>
<event>
 6    1  0.1780144E-005  0.3418935E+04  0.7818608E-02  0.8133275E-01
         -1   -1    0    0    0  501 -0.00000000000E+00  0.00000000000E+00  0.13190122606E+04  0.13190122606E+04  0.00000000000E+00 0.  1.
          1   -1    0    0  501    0  0.00000000000E+00 -0.00000000000E+00 -0.22155061363E+04  0.22155061363E+04  0.00000000000E+00 0. -1.
         23    2    1    2    0    0  0.65567910294E+03  0.13275869333E+04  0.43206093809E+03  0.15451818128E+04  0.92238978480E+02 0.  0.
         13    1    3    3    0    0  0.39278222547E+02  0.13329119370E+03  0.27763073521E+02  0.14170430246E+03  0.00000000000E+00 0.  1.
        -13    1    3    3    0    0  0.61640088039E+03  0.11942957396E+04  0.40429786457E+03  0.14034775104E+04  0.00000000000E+00 0. -1.
         22    1    1    2    0    0 -0.65567910294E+03 -0.13275869333E+04 -0.13285548138E+04  0.19893365841E+04  0.00000000000E+00 0. -1.
<mgrwt>
<rscale>  0 0.34189354E+04</rscale>
<asrwt>0</asrwt>
<pdfrwt beam="1">  1        1 0.34084710E+00 0.34189354E+04</pdfrwt>
<pdfrwt beam="2">  1       -1 0.20292496E+00 0.34189354E+04</pdfrwt>
<totfact> 0.25092403E-01</totfact>
</mgrwt>
</event>
<event>
 6    1  0.1780144E-005  0.1553981E+04  0.7818608E-02  0.8849329E-01
         -2   -1    0    0    0  501 -0.00000000000E+00  0.00000000000E+00  0.64120959443E+03  0.64120959443E+03  0.00000000000E+00 0.  1.
          2   -1    0    0  501    0  0.00000000000E+00 -0.00000000000E+00 -0.94152380138E+03  0.94152380138E+03  0.00000000000E+00 0. -1.
         23    2    1    2    0    0  0.65985908123E+03 -0.33490775712E+03 -0.38250161770E+03  0.83819865294E+03  0.93232405195E+02 0.  0.
         11    1    3    3    0    0  0.34082274773E+03 -0.21458871326E+03 -0.23846591093E+03  0.46805389851E+03  0.00000000000E+00 0. -1.
        -11    1    3    3    0    0  0.31903633350E+03 -0.12031904386E+03 -0.14403570677E+03  0.37014475443E+03  0.00000000000E+00 0.  1.
         22    1    1    2    0    0 -0.65985908123E+03  0.33490775712E+03  0.82187410749E+02  0.74453474288E+03  0.00000000000E+00 0.  1.
<mgrwt>
<rscale>  0 0.15539808E+04</rscale>
<asrwt>0</asrwt>
<pdfrwt beam="1">  1        2 0.14484982E+00 0.15539808E+04</pdfrwt>
<pdfrwt beam="2">  1       -2 0.98647630E-01 0.15539808E+04</pdfrwt>
<totfact> 0.22580641E+01</totfact>
</mgrwt>
</event>
<event>
 6    1  0.1780144E-005  0.9805053E+03  0.7818608E-02  0.9330188E-01
         -2   -1    0    0    0  501 -0.00000000000E+00  0.00000000000E+00  0.32105837018E+03  0.32105837018E+03  0.00000000000E+00 0.  1.
          2   -1    0    0  501    0  0.00000000000E+00 -0.00000000000E+00 -0.74861049066E+03  0.74861049066E+03  0.00000000000E+00 0. -1.
         23    2    1    2    0    0  0.17004276089E+03 -0.45483552690E+03 -0.23821386407E+03  0.54847899869E+03  0.91068490212E+02 0.  0.
         11    1    3    3    0    0  0.21956999292E+02 -0.70330540350E+02 -0.23616284889E+01  0.73716158425E+02  0.00000000000E+00 0. -1.
        -11    1    3    3    0    0  0.14808576160E+03 -0.38450498655E+03 -0.23585223558E+03  0.47476284027E+03  0.00000000000E+00 0.  1.
         22    1    1    2    0    0 -0.17004276089E+03  0.45483552690E+03 -0.18933825641E+03  0.52118986215E+03  0.00000000000E+00 0.  1.
<mgrwt>
<rscale>  0 0.98050531E+03</rscale>
<asrwt>0</asrwt>
<pdfrwt beam="1">  1        2 0.11517084E+00 0.98050531E+03</pdfrwt>
<pdfrwt beam="2">  1       -2 0.49393596E-01 0.98050531E+03</pdfrwt>
<totfact> 0.14574982E+02</totfact>
</mgrwt>
</event>
<event>
 6    1  0.1780144E-005  0.7123435E+03  0.7818608E-02  0.9696353E-01
         -1   -1    0    0    0  501 -0.00000000000E+00  0.00000000000E+00  0.20489780296E+03  0.20489780296E+03  0.00000000000E+00 0.  1.
          1   -1    0    0  501    0  0.00000000000E+00 -0.00000000000E+00 -0.61912967510E+03  0.61912967510E+03  0.00000000000E+00 0. -1.
         23    2    1    2    0    0 -0.30862376539E+03 -0.58928632787E+02 -0.38931282225E+03  0.50884154664E+03  0.92919501139E+02 0.  0.
         13    1    3    3    0    0 -0.11211551093E+03  0.23345113153E+02 -0.13031535741E+03  0.17348479609E+03  0.00000000000E+00 0. -1.
        -13    1    3    3    0    0 -0.19650825446E+03 -0.82273745940E+02 -0.25899746484E+03  0.33535675054E+03  0.00000000000E+00 0.  1.
         22    1    1    2    0    0  0.30862376539E+03  0.58928632787E+02 -0.24919049896E+02  0.31518593143E+03  0.00000000000E+00 0.  1.
<mgrwt>
<rscale>  0 0.71234349E+03</rscale>
<asrwt>0</asrwt>
<pdfrwt beam="1">  1        1 0.95250719E-01 0.71234349E+03</pdfrwt>
<pdfrwt beam="2">  1       -1 0.31522739E-01 0.71234349E+03</pdfrwt>
<totfact> 0.30945855E+02</totfact>
</mgrwt>
</event>
<event>
 6    1  0.1780144E-005  0.2135883E+04  0.7818608E-02  0.8545599E-01
         -2   -1    0    0    0  501 -0.00000000000E+00  0.00000000000E+00  0.52861896256E+03  0.52861896256E+03  0.00000000000E+00 0.  1.
          2   -1    0    0  501    0  0.00000000000E+00 -0.00000000000E+00 -0.21575065493E+04  0.21575065493E+04  0.00000000000E+00 0. -1.
         23    2    1    2    0    0  0.39435038577E+03 -0.65689764059E+03 -0.17480301326E+04  0.19107406506E+04  0.91070040933E+02 0.  0.
         11    1    3    3    0    0  0.80917576436E+02 -0.20814653369E+03 -0.54863131398E+03  0.59234192182E+03  0.00000000000E+00 0.  1.
        -11    1    3    3    0    0  0.31343280933E+03 -0.44875110690E+03 -0.11993988186E+04  0.13183987287E+04  0.00000000000E+00 0. -1.
         22    1    1    2    0    0 -0.39435038577E+03  0.65689764059E+03  0.11914254580E+03  0.77538486133E+03  0.00000000000E+00 0.  1.
<mgrwt>
<rscale>  0 0.21358828E+04</rscale>
<asrwt>0</asrwt>
<pdfrwt beam="1">  1        2 0.33192408E+00 0.21358828E+04</pdfrwt>
<pdfrwt beam="2">  1       -2 0.81325997E-01 0.21358828E+04</pdfrwt>
<totfact> 0.66767192E+00</totfact>
</mgrwt>
</event>
<event>
 6    1  0.1780144E-005  0.2980733E+04  0.7818608E-02  0.8249254E-01
         -2   -1    0    0    0  501 -0.00000000000E+00  0.00000000000E+00  0.92703876712E+03  0.92703876712E+03  0.00000000000E+00 0.  1.
          2   -1    0    0  501    0  0.00000000000E+00 -0.00000000000E+00 -0.23960075832E+04  0.23960075832E+04  0.00000000000E+00 0. -1.
         23    2    1    2    0    0 -0.51724059597E+03  0.13085183714E+04 -0.12782359535E+04  0.19031388930E+04  0.91062236347E+02 0.  0.
         11    1    3    3    0    0 -0.39970490281E+03  0.10488304074E+04 -0.97223008462E+03  0.14849379012E+04  0.00000000000E+00 0.  1.
        -11    1    3    3    0    0 -0.11753569316E+03  0.25968796400E+03 -0.30600586890E+03  0.41820099189E+03  0.00000000000E+00 0. -1.
         22    1    1    2    0    0  0.51724059597E+03 -0.13085183714E+04 -0.19073286260E+03  0.14199074573E+04  0.00000000000E+00 0. -1.
<mgrwt>
<rscale>  0 0.29807327E+04</rscale>
<asrwt>0</asrwt>
<pdfrwt beam="1">  1        2 0.36861654E+00 0.29807327E+04</pdfrwt>
<pdfrwt beam="2">  1       -2 0.14262135E+00 0.29807327E+04</pdfrwt>
<totfact> 0.11723665E+00</totfact>
</mgrwt>
</event>
<event>
 6    1  0.1780144E-005  0.2365074E+04  0.7818608E-02  0.8452696E-01
         -1   -1    0    0    0  501 -0.00000000000E+00  0.00000000000E+00  0.74298177653E+03  0.74298177653E+03  0.00000000000E+00 0.  1.
          1   -1    0    0  501    0  0.00000000000E+00 -0.00000000000E+00 -0.18821373819E+04  0.18821373819E+04  0.00000000000E+00 0. -1.
         23    2    1    2    0    0  0.93036613283E+03  0.28362334425E+03 -0.13135430930E+04  0.16369722370E+04  0.90880718615E+02 0.  0.
         13    1    3    3    0    0  0.22330833184E+03  0.74342538428E+02 -0.38522311999E+03  0.45143136385E+03  0.00000000000E+00 0.  1.
        -13    1    3    3    0    0  0.70705780099E+03  0.20928080582E+03 -0.92831997304E+03  0.11855408732E+04  0.00000000000E+00 0. -1.
         22    1    1    2    0    0 -0.93036613283E+03 -0.28362334425E+03  0.17438748762E+03  0.98814692144E+03  0.00000000000E+00 0.  1.
<mgrwt>
<rscale>  0 0.23650740E+04</rscale>
<asrwt>0</asrwt>
<pdfrwt beam="1">  1        1 0.28955959E+00 0.23650740E+04</pdfrwt>
<pdfrwt beam="2">  1       -1 0.11430489E+00 0.23650740E+04</pdfrwt>
<totfact> 0.22424946E+00</totfact>
</mgrwt>
</event>
<event>
 6    1  0.1780144E-005  0.1385971E+04  0.7818608E-02  0.8964037E-01
          2   -1    0    0  501    0  0.00000000000E+00  0.00000000000E+00  0.17724566484E+04  0.17724566484E+04  0.00000000000E+00 0. -1.
         -2   -1    0    0    0  501 -0.00000000000E+00 -0.00000000000E+00 -0.27093956335E+03  0.27093956335E+03  0.00000000000E+00 0.  1.
         23    2    1    2    0    0  0.20350153108E+03  0.17074619226E+02  0.17256756258E+04  0.17401612086E+04  0.92196804308E+02 0.  0.
         11    1    3    3    0    0  0.34356557983E+01  0.17964506787E+02  0.29473625561E+03  0.29530321299E+03  0.00000000000E+00 0. -1.
        -11    1    3    3    0    0  0.20006587528E+03 -0.88988756130E+00  0.14309393702E+04  0.14448579956E+04  0.00000000000E+00 0.  1.
         22    1    1    2    0    0 -0.20350153108E+03 -0.17074619226E+02 -0.22415854071E+03  0.30323500317E+03  0.00000000000E+00 0.  1.
<mgrwt>
<rscale>  0 0.13859706E+04</rscale>
<asrwt>0</asrwt>
<pdfrwt beam="1">  1        2 0.27268563E+00 0.13859706E+04</pdfrwt>
<pdfrwt beam="2">  1       -2 0.41683011E-01 0.13859706E+04</pdfrwt>
<totfact> 0.47490421E+01</totfact>
</mgrwt>
</event>
<event>
 6    1  0.1780144E-005  0.1167981E+04  0.7818608E-02  0.9141354E-01
         -2   -1    0    0    0  501 -0.00000000000E+00  0.00000000000E+00  0.18937202888E+03  0.18937202888E+03  0.00000000000E+00 0. -1.
          2   -1    0    0  501    0  0.00000000000E+00 -0.00000000000E+00 -0.18009246439E+04  0.18009246439E+04  0.00000000000E+00 0.  1.
         23    2    1    2    0    0 -0.28269620477E+03 -0.16377713552E+03 -0.16283035655E+04  0.16631565061E+04  0.89313874117E+02 0.  0.
         13    1    3    3    0    0 -0.25850342236E+03 -0.15981485821E+03 -0.15802657917E+04  0.16092249006E+04  0.00000000000E+00 0.  1.
        -13    1    3    3    0    0 -0.24192782411E+02 -0.39622773125E+01 -0.48037773764E+02  0.53931605488E+02  0.00000000000E+00 0. -1.
         22    1    1    2    0    0  0.28269620477E+03  0.16377713552E+03  0.16750950462E+02  0.32714016668E+03  0.00000000000E+00 0. -1.
<mgrwt>
<rscale>  0 0.11679807E+04</rscale>
<asrwt>0</asrwt>
<pdfrwt beam="1">  1        2 0.27706532E+00 0.11679807E+04</pdfrwt>
<pdfrwt beam="2">  1       -2 0.29134159E-01 0.11679807E+04</pdfrwt>
<totfact> 0.92317536E+01</totfact>
</mgrwt>
</event>
<event>
 6    1  0.1780144E-005  0.6792496E+03  0.7818608E-02  0.9753391E-01
          1   -1    0    0  501    0  0.00000000000E+00  0.00000000000E+00  0.11675411716E+04  0.11675411716E+04  0.00000000000E+00 0. -1.
         -1   -1    0    0    0  501 -0.00000000000E+00 -0.00000000000E+00 -0.98793080068E+02  0.98793080068E+02  0.00000000000E+00 0.  1.
         23    2    1    2    0    0  0.23004101046E+03 -0.19715136092E+03  0.28420105096E+03  0.42532201366E+03  0.91329361813E+02 0.  0.
         11    1    3    3    0    0  0.61459252664E+02 -0.14390243926E+02  0.89509112481E+02  0.10952716592E+03  0.00000000000E+00 0.  1.
        -11    1    3    3    0    0  0.16858175780E+03 -0.18276111699E+03  0.19469193848E+03  0.31579484774E+03  0.00000000000E+00 0. -1.
         22    1    1    2    0    0 -0.23004101046E+03  0.19715136092E+03  0.78454704057E+03  0.84101223800E+03  0.00000000000E+00 0. -1.
<mgrwt>
<rscale>  0 0.67924955E+03</rscale>
<asrwt>0</asrwt>
<pdfrwt beam="1">  1        1 0.17962171E+00 0.67924955E+03</pdfrwt>
<pdfrwt beam="2">  1       -1 0.15198936E-01 0.67924955E+03</pdfrwt>
<totfact> 0.36919654E+02</totfact>
</mgrwt>
</event>
<event>
 6    1  0.1780144E-005  0.1813405E+04  0.7818608E-02  0.8699203E-01
         -2   -1    0    0    0  501 -0.00000000000E+00  0.00000000000E+00  0.91736646295E+03  0.91736646295E+03  0.00000000000E+00 0.  1.
          2   -1    0    0  501    0  0.00000000000E+00 -0.00000000000E+00 -0.89616220106E+03  0.89616220106E+03  0.00000000000E+00 0. -1.
         23    2    1    2    0    0  0.82006263896E+03 -0.20175608681E+03 -0.31324085963E+03  0.90519954431E+03  0.89767079066E+02 0.  0.
         11    1    3    3    0    0  0.52226285245E+03 -0.95938759471E+02 -0.16443992939E+03  0.55588058340E+03  0.00000000000E+00 0. -1.
        -11    1    3    3    0    0  0.29779978651E+03 -0.10581732734E+03 -0.14880093024E+03  0.34931896091E+03  0.00000000000E+00 0.  1.
         22    1    1    2    0    0 -0.82006263896E+03  0.20175608681E+03  0.33444512152E+03  0.90832911970E+03  0.00000000000E+00 0. -1.
<mgrwt>
<rscale>  0 0.18134047E+04</rscale>
<asrwt>0</asrwt>
<pdfrwt beam="1">  1        2 0.13787111E+00 0.18134047E+04</pdfrwt>
<pdfrwt beam="2">  1       -2 0.14113330E+00 0.18134047E+04</pdfrwt>
<totfact> 0.97818760E+00</totfact>
</mgrwt>
</event>
<event>
 6    1  0.1780144E-005  0.7599656E+03  0.7818608E-02  0.9619844E-01
          1   -1    0    0  501    0  0.00000000000E+00  0.00000000000E+00  0.55424547461E+03  0.55424547461E+03  0.00000000000E+00 0. -1.
         -1   -1    0    0    0  501 -0.00000000000E+00 -0.00000000000E+00 -0.26051080683E+03  0.26051080683E+03  0.00000000000E+00 0.  1.
         23    2    1    2    0    0 -0.27960870576E+03 -0.52878251033E+02 -0.11218251230E+03  0.31902863963E+03  0.90648877922E+02 0.  0.
         11    1    3    3    0    0 -0.69499273615E+02  0.14918234491E+02 -0.57892988069E+02  0.91674973798E+02  0.00000000000E+00 0. -1.
        -11    1    3    3    0    0 -0.21010943215E+03 -0.67796485523E+02 -0.54289524234E+02  0.22735366583E+03  0.00000000000E+00 0.  1.
         22    1    1    2    0    0  0.27960870576E+03  0.52878251033E+02  0.40591718008E+03  0.49572764181E+03  0.00000000000E+00 0. -1.
<mgrwt>
<rscale>  0 0.75996562E+03</rscale>
<asrwt>0</asrwt>
<pdfrwt beam="1">  1        1 0.85268534E-01 0.75996562E+03</pdfrwt>
<pdfrwt beam="2">  1       -1 0.40078586E-01 0.75996562E+03</pdfrwt>
<totfact> 0.23559617E+02</totfact>
</mgrwt>
</event>
<event>
 6    1  0.1780144E-005  0.3269111E+04  0.7818608E-02  0.8170800E-01
         -2   -1    0    0    0  501 -0.00000000000E+00  0.00000000000E+00  0.99631491161E+03  0.99631491161E+03  0.00000000000E+00 0.  1.
          2   -1    0    0  501    0  0.00000000000E+00 -0.00000000000E+00 -0.26816533255E+04  0.26816533255E+04  0.00000000000E+00 0. -1.
         23    2    1    2    0    0  0.65319528245E+02 -0.16314878550E+04 -0.79703891508E+03  0.18191795828E+04  0.90133571645E+02 0.  0.
         11    1    3    3    0    0  0.32231922894E+02 -0.67717965195E+03 -0.38021313403E+03  0.77728579374E+03  0.00000000000E+00 0.  1.
        -11    1    3    3    0    0  0.33087605350E+02 -0.95430820302E+03 -0.41682578104E+03  0.10418937891E+04  0.00000000000E+00 0. -1.
         22    1    1    2    0    0 -0.65319528245E+02  0.16314878550E+04 -0.88829949883E+03  0.18587886543E+04  0.00000000000E+00 0.  1.
<mgrwt>
<rscale>  0 0.32691107E+04</rscale>
<asrwt>0</asrwt>
<pdfrwt beam="1">  1        2 0.41256206E+00 0.32691107E+04</pdfrwt>
<pdfrwt beam="2">  1       -2 0.15327922E+00 0.32691107E+04</pdfrwt>
<totfact> 0.64470997E-01</totfact>
</mgrwt>
</event>
<event>
 6    1  0.2384451E-005  0.3484373E+04  0.7818608E-02  0.8117503E-01
          2   -1    0    0  501    0  0.00000000000E+00  0.00000000000E+00  0.24882598450E+04  0.24882598450E+04  0.00000000000E+00 0. -1.
         -2   -1    0    0    0  501 -0.00000000000E+00 -0.00000000000E+00 -0.12198136758E+04  0.12198136758E+04  0.00000000000E+00 0.  1.
         23    2    1    2    0    0 -0.51772903355E+02  0.49666766349E+03 -0.11401850883E+04  0.12482231725E+04  0.93165720526E+02 0.  0.
         11    1    3    3    0    0 -0.62847261277E+01  0.35548496921E+03 -0.87305949229E+03  0.94267806710E+03  0.00000000000E+00 0.  1.
        -11    1    3    3    0    0 -0.45488177228E+02  0.14118269428E+03 -0.26712559598E+03  0.30554510544E+03  0.00000000000E+00 0. -1.
         22    1    1    2    0    0  0.51772903355E+02 -0.49666766349E+03  0.24086312575E+04  0.24598503483E+04  0.00000000000E+00 0. -1.
<mgrwt>
<rscale>  0 0.34843728E+04</rscale>
<asrwt>0</asrwt>
<pdfrwt beam="1">  1        2 0.38280921E+00 0.34843728E+04</pdfrwt>
<pdfrwt beam="2">  1       -2 0.18766364E+00 0.34843728E+04</pdfrwt>
<totfact> 0.46754688E-01</totfact>
</mgrwt>
</event>
<event>
 6    1  0.1780144E-005  0.2504444E+04  0.7818608E-02  0.8401404E-01
         -1   -1    0    0    0  501 -0.00000000000E+00  0.00000000000E+00  0.11044157197E+04  0.11044157197E+04  0.00000000000E+00 0.  1.
          1   -1    0    0  501    0  0.00000000000E+00 -0.00000000000E+00 -0.14198090814E+04  0.14198090814E+04  0.00000000000E+00 0. -1.
         23    2    1    2    0    0  0.26157234959E+03  0.55444177956E+03  0.94074380814E+03  0.11264743333E+04  0.90109544438E+02 0.  0.
         11    1    3    3    0    0  0.75048443693E+01  0.83614925322E+01  0.49796739927E+02  0.51048531357E+02  0.00000000000E+00 0.  1.
        -11    1    3    3    0    0  0.25406750522E+03  0.54608028703E+03  0.89094706822E+03  0.10754258019E+04  0.00000000000E+00 0. -1.
         22    1    1    2    0    0 -0.26157234959E+03 -0.55444177956E+03 -0.12561371698E+04  0.13977504678E+04  0.00000000000E+00 0. -1.
<mgrwt>
<rscale>  0 0.25044436E+04</rscale>
<asrwt>0</asrwt>
<pdfrwt beam="1">  1        1 0.21843217E+00 0.25044436E+04</pdfrwt>
<pdfrwt beam="2">  1       -1 0.16991011E+00 0.25044436E+04</pdfrwt>
<totfact> 0.16285160E+00</totfact>
</mgrwt>
</event>
<event>
 6    1  0.1874052E-005  0.1985270E+04  0.7818608E-02  0.8613539E-01
         -1   -1    0    0    0  501 -0.00000000000E+00  0.00000000000E+00  0.81224775426E+03  0.81224775426E+03  0.00000000000E+00 0. -1.
          1   -1    0    0  501    0  0.00000000000E+00 -0.00000000000E+00 -0.12130829408E+04  0.12130829408E+04  0.00000000000E+00 0.  1.
         23    2    1    2    0    0  0.11412339352E+03  0.31780478154E+03  0.74911308136E+03  0.82682952821E+03  0.91938196240E+02 0.  0.
         11    1    3    3    0    0  0.49352555360E+02  0.25034800229E+03  0.51557091060E+03  0.57525921186E+03  0.00000000000E+00 0. -1.
        -11    1    3    3    0    0  0.64770838163E+02  0.67456779248E+02  0.23354217076E+03  0.25157031635E+03  0.00000000000E+00 0.  1.
         22    1    1    2    0    0 -0.11412339352E+03 -0.31780478154E+03 -0.11499482679E+04  0.11985011669E+04  0.00000000000E+00 0.  1.
<mgrwt>
<rscale>  0 0.19852696E+04</rscale>
<asrwt>0</asrwt>
<pdfrwt beam="1">  1        1 0.18662815E+00 0.19852696E+04</pdfrwt>
<pdfrwt beam="2">  1       -1 0.12496119E+00 0.19852696E+04</pdfrwt>
<totfact> 0.54380825E+00</totfact>
</mgrwt>
</event>
<event>
 6    1  0.1780144E-005  0.1834549E+04  0.7818608E-02  0.8688139E-01
          2   -1    0    0  501    0  0.00000000000E+00  0.00000000000E+00  0.14479116389E+04  0.14479116389E+04  0.00000000000E+00 0. -1.
         -2   -1    0    0    0  501 -0.00000000000E+00 -0.00000000000E+00 -0.58110783071E+03  0.58110783071E+03  0.00000000000E+00 0.  1.
         23    2    1    2    0    0 -0.81050594010E+03 -0.31913964390E+02 -0.33836172571E+02  0.81695892863E+03  0.91316068873E+02 0.  0.
         13    1    3    3    0    0 -0.31876848660E+03  0.29585202186E+02 -0.27943343098E+02  0.32135566380E+03  0.00000000000E+00 0. -1.
        -13    1    3    3    0    0 -0.49173745350E+03 -0.61499166576E+02 -0.58928294732E+01  0.49560326483E+03  0.00000000000E+00 0.  1.
         22    1    1    2    0    0  0.81050594010E+03  0.31913964390E+02  0.90063998079E+03  0.12120605410E+04  0.00000000000E+00 0. -1.
<mgrwt>
<rscale>  0 0.18345493E+04</rscale>
<asrwt>0</asrwt>
<pdfrwt beam="1">  1        2 0.22275564E+00 0.18345493E+04</pdfrwt>
<pdfrwt beam="2">  1       -2 0.89401205E-01 0.18345493E+04</pdfrwt>
<totfact> 0.13729394E+01</totfact>
</mgrwt>
</event>
<event>
 6    1  0.1780144E-005  0.2739927E+04  0.7818608E-02  0.8322165E-01
         -1   -1    0    0    0  501 -0.00000000000E+00  0.00000000000E+00  0.27420232517E+04  0.27420232517E+04  0.00000000000E+00 0.  1.
          1   -1    0    0  501    0  0.00000000000E+00 -0.00000000000E+00 -0.68445829658E+03  0.68445829658E+03  0.00000000000E+00 0. -1.
         23    2    1    2    0    0 -0.74594462690E+03 -0.46901096755E+03 -0.27949237537E+03  0.92883432739E+03  0.90623097314E+02 0.  0.
         11    1    3    3    0    0 -0.62108184057E+03 -0.36575129509E+03 -0.25714764430E+03  0.76527222184E+03  0.00000000000E+00 0. -1.
        -11    1    3    3    0    0 -0.12486278633E+03 -0.10325967246E+03 -0.22344731069E+02  0.16356210555E+03  0.00000000000E+00 0.  1.
         22    1    1    2    0    0  0.74594462690E+03  0.46901096755E+03  0.23370573305E+04  0.24976472209E+04  0.00000000000E+00 0.  1.
<mgrwt>
<rscale>  0 0.27399274E+04</rscale>
<asrwt>0</asrwt>
<pdfrwt beam="1">  1        1 0.10530128E+00 0.27399274E+04</pdfrwt>
<pdfrwt beam="2">  1       -1 0.42184973E+00 0.27399274E+04</pdfrwt>
<totfact> 0.12410492E-01</totfact>
</mgrwt>
</event>
<event>
 6    1  0.1780144E-005  0.3350862E+04  0.7818608E-02  0.8150073E-01
         -1   -1    0    0    0  501 -0.00000000000E+00  0.00000000000E+00  0.14060546990E+04  0.14060546990E+04  0.00000000000E+00 0.  1.
          1   -1    0    0  501    0  0.00000000000E+00 -0.00000000000E+00 -0.19964155702E+04  0.19964155702E+04  0.00000000000E+00 0. -1.
         23    2    1    2    0    0  0.15270199813E+03 -0.15736010077E+04 -0.85442046401E+03  0.17995774157E+04  0.94374330488E+02 0.  0.
         13    1    3    3    0    0  0.73906403911E+01 -0.49289399690E+03 -0.24678544368E+03  0.55127322532E+03  0.00000000000E+00 0.  1.
        -13    1    3    3    0    0  0.14531135774E+03 -0.10807070107E+04 -0.60763502034E+03  0.12483041904E+04  0.00000000000E+00 0. -1.
         22    1    1    2    0    0 -0.15270199813E+03  0.15736010077E+04  0.26405959282E+03  0.16028928536E+04  0.00000000000E+00 0.  1.
<mgrwt>
<rscale>  0 0.33508623E+04</rscale>
<asrwt>0</asrwt>
<pdfrwt beam="1">  1        1 0.30714086E+00 0.33508623E+04</pdfrwt>
<pdfrwt beam="2">  1       -1 0.21631611E+00 0.33508623E+04</pdfrwt>
<totfact> 0.28844285E-01</totfact>
</mgrwt>
</event>
<event>
 6    1  0.1780144E-005  0.1285930E+04  0.7818608E-02  0.9040798E-01
         -2   -1    0    0    0  501 -0.00000000000E+00  0.00000000000E+00  0.21949121682E+04  0.21949121682E+04  0.00000000000E+00 0.  1.
          2   -1    0    0  501    0  0.00000000000E+00 -0.00000000000E+00 -0.18834658790E+03  0.18834658790E+03  0.00000000000E+00 0. -1.
         23    2    1    2    0    0 -0.12517867827E+03  0.56648398367E+03  0.15089428589E+04  0.16189275595E+04  0.86279118285E+02 0.  0.
         11    1    3    3    0    0 -0.67348138477E+02  0.22027845309E+03  0.49554974436E+03  0.54646858811E+03  0.00000000000E+00 0. -1.
        -11    1    3    3    0    0 -0.57830539790E+02  0.34620553059E+03  0.10133931145E+04  0.10724589714E+04  0.00000000000E+00 0.  1.
         22    1    1    2    0    0  0.12517867827E+03 -0.56648398367E+03  0.49762272145E+03  0.76433119664E+03  0.00000000000E+00 0. -1.
<mgrwt>
<rscale>  0 0.12859304E+04</rscale>
<asrwt>0</asrwt>
<pdfrwt beam="1">  1        2 0.28976400E-01 0.12859304E+04</pdfrwt>
<pdfrwt beam="2">  1       -2 0.33767878E+00 0.12859304E+04</pdfrwt>
<totfact> 0.34149636E+00</totfact>
</mgrwt>
</event>
<event>
 6    1  0.1780144E-005  0.1151349E+04  0.7818608E-02  0.9156540E-01
         -2   -1    0    0    0  501 -0.00000000000E+00  0.00000000000E+00  0.13862967953E+03  0.13862967953E+03  0.00000000000E+00 0.  1.
          2   -1    0    0  501    0  0.00000000000E+00 -0.00000000000E+00 -0.23905507768E+04  0.23905507768E+04  0.00000000000E+00 0. -1.
         23    2    1    2    0    0 -0.22873942683E+03  0.43852826343E+03 -0.50230061911E+03  0.71099438752E+03  0.92619349537E+02 0.  0.
         11    1    3    3    0    0 -0.12660411857E+03  0.14552866216E+03 -0.18994075731E+03  0.27071144349E+03  0.00000000000E+00 0.  1.
        -11    1    3    3    0    0 -0.10213530827E+03  0.29299960127E+03 -0.31235986181E+03  0.44028294403E+03  0.00000000000E+00 0. -1.
         22    1    1    2    0    0  0.22873942683E+03 -0.43852826343E+03 -0.17496204781E+04  0.18181860688E+04  0.00000000000E+00 0. -1.
<mgrwt>
<rscale>  0 0.11513493E+04</rscale>
<asrwt>0</asrwt>
<pdfrwt beam="1">  1        2 0.36777701E+00 0.11513493E+04</pdfrwt>
<pdfrwt beam="2">  1       -2 0.21327645E-01 0.11513493E+04</pdfrwt>
<totfact> 0.76472150E+01</totfact>
</mgrwt>
</event>
<event>
 6    1  0.1780144E-005  0.1780582E+04  0.7818608E-02  0.8716695E-01
          2   -1    0    0  501    0  0.00000000000E+00  0.00000000000E+00  0.11493552193E+04  0.11493552193E+04  0.00000000000E+00 0. -1.
         -2   -1    0    0    0  501 -0.00000000000E+00 -0.00000000000E+00 -0.68961946887E+03  0.68961946887E+03  0.00000000000E+00 0.  1.
         23    2    1    2    0    0 -0.48314414129E+03 -0.54473172114E+03  0.75603871058E+03  0.10528726887E+04  0.82373888236E+02 0.  0.
         13    1    3    3    0    0 -0.36597166480E+03 -0.39069765521E+03  0.60138266429E+03  0.80513416653E+03  0.00000000000E+00 0. -1.
        -13    1    3    3    0    0 -0.11717247649E+03 -0.15403406593E+03  0.15465604629E+03  0.24773852217E+03  0.00000000000E+00 0.  1.
         22    1    1    2    0    0  0.48314414129E+03  0.54473172114E+03 -0.29630296020E+03  0.78610199942E+03  0.00000000000E+00 0.  1.
<mgrwt>
<rscale>  0 0.17805816E+04</rscale>
<asrwt>0</asrwt>
<pdfrwt beam="1">  1        2 0.17682388E+00 0.17805816E+04</pdfrwt>
<pdfrwt beam="2">  1       -2 0.10609530E+00 0.17805816E+04</pdfrwt>
<totfact> 0.13778011E+01</totfact>
</mgrwt>
</event>
<event>
 6    1  0.1780144E-005  0.9937379E+03  0.7818608E-02  0.9315440E-01
         -2   -1    0    0    0  501 -0.00000000000E+00  0.00000000000E+00  0.20282348581E+03  0.20282348581E+03  0.00000000000E+00 0.  1.
          2   -1    0    0  501    0  0.00000000000E+00 -0.00000000000E+00 -0.12172100111E+04  0.12172100111E+04  0.00000000000E+00 0. -1.
         23    2    1    2    0    0  0.46477495256E+03  0.81827283076E+02 -0.71363641311E+03  0.86042462387E+03  0.91335329747E+02 0.  0.
         13    1    3    3    0    0  0.35286973813E+03  0.43160192717E+02 -0.46768968720E+03  0.58746361406E+03  0.00000000000E+00 0. -1.
        -13    1    3    3    0    0  0.11190521443E+03  0.38667090358E+02 -0.24594672591E+03  0.27296100981E+03  0.00000000000E+00 0.  1.
         22    1    1    2    0    0 -0.46477495256E+03 -0.81827283076E+02 -0.30075011214E+03  0.55960887299E+03  0.00000000000E+00 0.  1.
<mgrwt>
<rscale>  0 0.99373795E+03</rscale>
<asrwt>0</asrwt>
<pdfrwt beam="1">  1        2 0.18726309E+00 0.99373795E+03</pdfrwt>
<pdfrwt beam="2">  1       -2 0.31203612E-01 0.99373795E+03</pdfrwt>
<totfact> 0.17572116E+02</totfact>
</mgrwt>
</event>
<event>
 6    1  0.1780144E-005  0.2220359E+04  0.7818608E-02  0.8510002E-01
         -1   -1    0    0    0  501 -0.00000000000E+00  0.00000000000E+00  0.40229713724E+03  0.40229713724E+03  0.00000000000E+00 0.  1.
          1   -1    0    0  501    0  0.00000000000E+00 -0.00000000000E+00 -0.30636532758E+04  0.30636532758E+04  0.00000000000E+00 0. -1.
         23    2    1    2    0    0  0.58043588749E+03 -0.24776956838E+03 -0.27556894631E+04  0.28278325911E+04  0.67209878884E+02 0.  0.
         11    1    3    3    0    0  0.21084203517E+03 -0.62959144932E+02 -0.10490927686E+04  0.10719206383E+04  0.00000000000E+00 0.  1.
        -11    1    3    3    0    0  0.36959385232E+03 -0.18481042344E+03 -0.17065966945E+04  0.17559119528E+04  0.00000000000E+00 0. -1.
         22    1    1    2    0    0 -0.58043588749E+03  0.24776956838E+03  0.94333324575E+02  0.63811782189E+03  0.00000000000E+00 0.  1.
<mgrwt>
<rscale>  0 0.22203594E+04</rscale>
<asrwt>0</asrwt>
<pdfrwt beam="1">  1        1 0.47133129E+00 0.22203594E+04</pdfrwt>
<pdfrwt beam="2">  1       -1 0.61891865E-01 0.22203594E+04</pdfrwt>
<totfact> 0.12949246E+00</totfact>
</mgrwt>
</event>
<event>
 6    1  0.1780144E-005  0.9427391E+03  0.7818608E-02  0.9373678E-01
         -1   -1    0    0    0  501 -0.00000000000E+00  0.00000000000E+00  0.48884388353E+03  0.48884388353E+03  0.00000000000E+00 0.  1.
          1   -1    0    0  501    0  0.00000000000E+00 -0.00000000000E+00 -0.45451990131E+03  0.45451990131E+03  0.00000000000E+00 0. -1.
         23    2    1    2    0    0 -0.99115619587E+01 -0.26390821048E+03  0.40440919214E+03  0.48871134041E+03  0.74472793277E+02 0.  0.
         11    1    3    3    0    0  0.68057638649E+01 -0.25505827174E+03  0.36998986298E+03  0.44943691338E+03  0.00000000000E+00 0. -1.
        -11    1    3    3    0    0 -0.16717325824E+02 -0.88499387429E+01  0.34419329162E+02  0.39274427029E+02  0.00000000000E+00 0.  1.
         22    1    1    2    0    0  0.99115619587E+01  0.26390821048E+03 -0.37008520992E+03  0.45465244442E+03  0.00000000000E+00 0. -1.
<mgrwt>
<rscale>  0 0.94273914E+03</rscale>
<asrwt>0</asrwt>
<pdfrwt beam="1">  1        1 0.69926139E-01 0.94273914E+03</pdfrwt>
<pdfrwt beam="2">  1       -1 0.75206751E-01 0.94273914E+03</pdfrwt>
<totfact> 0.90363139E+01</totfact>
</mgrwt>
</event>
<event>
 6    1  0.1780144E-005  0.2171342E+04  0.7818608E-02  0.8530452E-01
          1   -1    0    0  501    0  0.00000000000E+00  0.00000000000E+00  0.13304640479E+04  0.13304640479E+04  0.00000000000E+00 0. -1.
         -1   -1    0    0    0  501 -0.00000000000E+00 -0.00000000000E+00 -0.88591765645E+03  0.88591765645E+03  0.00000000000E+00 0.  1.
         23    2    1    2    0    0  0.79797686324E+03  0.68214417049E+03  0.49764432367E+03  0.11652360750E+04  0.89652072067E+02 0.  0.
         11    1    3    3    0    0  0.29953201952E+03  0.20430742350E+03  0.15337016521E+03  0.39367926233E+03  0.00000000000E+00 0.  1.
        -11    1    3    3    0    0  0.49844484372E+03  0.47783674699E+03  0.34427415846E+03  0.77155681267E+03  0.00000000000E+00 0. -1.
         22    1    1    2    0    0 -0.79797686324E+03 -0.68214417049E+03 -0.53097932269E+02  0.10511456293E+04  0.00000000000E+00 0.  1.
<mgrwt>
<rscale>  0 0.21713421E+04</rscale>
<asrwt>0</asrwt>
<pdfrwt beam="1">  1        1 0.20468678E+00 0.21713421E+04</pdfrwt>
<pdfrwt beam="2">  1       -1 0.13629502E+00 0.21713421E+04</pdfrwt>
<totfact> 0.35348542E+00</totfact>
</mgrwt>
</event>
<event>
 6    1  0.1780144E-005  0.2254346E+04  0.7818608E-02  0.8496143E-01
          1   -1    0    0  501    0  0.00000000000E+00  0.00000000000E+00  0.82245266551E+03  0.82245266551E+03  0.00000000000E+00 0. -1.
         -1   -1    0    0    0  501 -0.00000000000E+00 -0.00000000000E+00 -0.15447927730E+04  0.15447927730E+04  0.00000000000E+00 0.  1.
         23    2    1    2    0    0  0.58655770256E+03 -0.23837157383E+03 -0.13386216414E+04  0.14836879279E+04  0.92471741080E+02 0.  0.
         13    1    3    3    0    0  0.21820692515E+03 -0.42290310001E+02 -0.44361214723E+03  0.49617987633E+03  0.00000000000E+00 0.  1.
        -13    1    3    3    0    0  0.36835077741E+03 -0.19608126383E+03 -0.89500949415E+03  0.98750805154E+03  0.00000000000E+00 0. -1.
         22    1    1    2    0    0 -0.58655770256E+03  0.23837157383E+03  0.61628153387E+03  0.88355751066E+03  0.00000000000E+00 0. -1.
<mgrwt>
<rscale>  0 0.22543460E+04</rscale>
<asrwt>0</asrwt>
<pdfrwt beam="1">  1        1 0.12653118E+00 0.22543460E+04</pdfrwt>
<pdfrwt beam="2">  1       -1 0.23766043E+00 0.22543460E+04</pdfrwt>
<totfact> 0.16113401E+00</totfact>
</mgrwt>
</event>
<event>
 6    1  0.1780144E-005  0.9882750E+03  0.7818608E-02  0.9321499E-01
          2   -1    0    0  501    0  0.00000000000E+00  0.00000000000E+00  0.10151519460E+04  0.10151519460E+04  0.00000000000E+00 0. -1.
         -2   -1    0    0    0  501 -0.00000000000E+00 -0.00000000000E+00 -0.24052742472E+03  0.24052742472E+03  0.00000000000E+00 0.  1.
         23    2    1    2    0    0  0.99122135253E+02 -0.31947467876E+03  0.84561464717E+03  0.91373073999E+03  0.89165383610E+02 0.  0.
         11    1    3    3    0    0  0.65826678910E+02 -0.76514339381E+02  0.25031005139E+03  0.26989390066E+03  0.00000000000E+00 0. -1.
        -11    1    3    3    0    0  0.33295456343E+02 -0.24296033938E+03  0.59530459578E+03  0.64383683933E+03  0.00000000000E+00 0.  1.
         22    1    1    2    0    0 -0.99122135253E+02  0.31947467876E+03 -0.70990125907E+02  0.34194863071E+03  0.00000000000E+00 0.  1.
<mgrwt>
<rscale>  0 0.98827503E+03</rscale>
<asrwt>0</asrwt>
<pdfrwt beam="1">  1        2 0.15617722E+00 0.98827503E+03</pdfrwt>
<pdfrwt beam="2">  1       -2 0.37004220E-01 0.98827503E+03</pdfrwt>
<totfact> 0.16915056E+02</totfact>
</mgrwt>
</event>
<event>
 6    1  0.1780144E-005  0.1745970E+04  0.7818608E-02  0.8735572E-01
         -1   -1    0    0    0  501 -0.00000000000E+00  0.00000000000E+00  0.13516803831E+04  0.13516803831E+04  0.00000000000E+00 0.  1.
          1   -1    0    0  501    0  0.00000000000E+00 -0.00000000000E+00 -0.56381896942E+03  0.56381896942E+03  0.00000000000E+00 0. -1.
         23    2    1    2    0    0  0.40514395218E+02 -0.84610689968E+03  0.17447041314E+03  0.86965671550E+03  0.91239113653E+02 0.  0.
         13    1    3    3    0    0 -0.26723483096E+02 -0.29550875597E+03  0.76032608880E+02  0.30630136633E+03  0.00000000000E+00 0. -1.
        -13    1    3    3    0    0  0.67237878314E+02 -0.55059814371E+03  0.98437804255E+02  0.56335534917E+03  0.00000000000E+00 0.  1.
         22    1    1    2    0    0 -0.40514395218E+02  0.84610689968E+03  0.61339100058E+03  0.10458426371E+04  0.00000000000E+00 0. -1.
<mgrwt>
<rscale>  0 0.17459703E+04</rscale>
<asrwt>0</asrwt>
<pdfrwt beam="1">  1        1 0.86741380E-01 0.17459703E+04</pdfrwt>
<pdfrwt beam="2">  1       -1 0.20795083E+00 0.17459703E+04</pdfrwt>
<totfact> 0.47116234E+00</totfact>
</mgrwt>
</event>
