<event>
 6    1  0.2325157E-005  0.1149909E+04  0.7818608E-02  0.9157867E-01
         -1   -1    0    0    0  501 -0.00000000000E+00  0.00000000000E+00  0.24538407304E+03  0.24538407304E+03  0.00000000000E+00 0.  1.
          1   -1    0    0  501    0  0.00000000000E+00 -0.00000000000E+00 -0.13471653549E+04  0.13471653549E+04  0.00000000000E+00 0. -1.
         23    2    1    2    0    0  0.24347459615E+03 -0.20072713974E+03 -0.12139143448E+04  0.12576687217E+04  0.92581388135E+02 0.  0.
         13    1    3    3    0    0  0.55270379641E+02 -0.78959351083E+02 -0.24765611692E+03  0.26574978126E+03  0.00000000000E+00 0. -1.
        -13    1    3    3    0    0  0.18820421651E+03 -0.12176778866E+03 -0.96625822784E+03  0.99191894040E+03  0.00000000000E+00 0.  1.
         22    1    1    2    0    0 -0.24347459615E+03  0.20072713974E+03  0.11213306295E+03  0.33488070623E+03  0.00000000000E+00 0.  1.
<mgrwt>
<rscale>  0 0.11499094E+04</rscale>
<asrwt>0</asrwt>
<pdfrwt beam="1">  1        1 0.20725621E+00 0.11499094E+04</pdfrwt>
<pdfrwt beam="2">  1       -1 0.37751396E-01 0.11499094E+04</pdfrwt>
<totfact> 0.56254432E+01</totfact>
</mgrwt>
</event>
<event>
 6    1  0.2325157E-005  0.9911758E+03  0.7818608E-02  0.9318276E-01
         -1   -1    0    0    0  501 -0.00000000000E+00  0.00000000000E+00  0.40430771541E+03  0.40430771541E+03  0.00000000000E+00 0.  1.
          1   -1    0    0  501    0  0.00000000000E+00 -0.00000000000E+00 -0.60747635805E+03  0.60747635805E+03  0.00000000000E+00 0. -1.
         23    2    1    2    0    0 -0.36683200448E+03 -0.32745729355E+03 -0.11622367499E+03  0.51243106605E+03  0.85344339068E+02 0.  0.
         11    1    3    3    0    0 -0.17786079680E+03 -0.14678096793E+03 -0.11816316778E+02  0.23090851203E+03  0.00000000000E+00 0. -1.
        -11    1    3    3    0    0 -0.18897120768E+03 -0.18067632562E+03 -0.10440735822E+03  0.28152255402E+03  0.00000000000E+00 0.  1.
         22    1    1    2    0    0  0.36683200448E+03  0.32745729355E+03 -0.86944967649E+02  0.49935300741E+03  0.00000000000E+00 0.  1.
<mgrwt>
<rscale>  0 0.99117582E+03</rscale>
<asrwt>0</asrwt>
<pdfrwt beam="1">  1        1 0.93457901E-01 0.99117582E+03</pdfrwt>
<pdfrwt beam="2">  1       -1 0.62201187E-01 0.99117582E+03</pdfrwt>
<totfact> 0.88482776E+01</totfact>
</mgrwt>
</event>
<event>
 6    1  0.2325157E-005  0.1717915E+04  0.7818608E-02  0.8751212E-01
          2   -1    0    0  501    0  0.00000000000E+00  0.00000000000E+00  0.31357324655E+04  0.31357324655E+04  0.00000000000E+00 0.  1.
         -2   -1    0    0    0  501 -0.00000000000E+00 -0.00000000000E+00 -0.23529039135E+03  0.23529039135E+03  0.00000000000E+00 0. -1.
         23    2    1    2    0    0 -0.60922630953E+03 -0.31180229609E+03  0.24648797517E+04  0.25597942178E+04  0.92395231906E+02 0.  0.
         13    1    3    3    0    0 -0.57582598042E+03 -0.26997650136E+03  0.22316211982E+04  0.23204732369E+04  0.00000000000E+00 0.  1.
        -13    1    3    3    0    0 -0.33400329111E+02 -0.41825794725E+02  0.23325855359E+03  0.23932098092E+03  0.00000000000E+00 0. -1.
         22    1    1    2    0    0  0.60922630953E+03  0.31180229609E+03  0.43556232237E+03  0.81122863900E+03  0.00000000000E+00 0. -1.
<mgrwt>
<rscale>  0 0.17179147E+04</rscale>
<asrwt>0</asrwt>
<pdfrwt beam="1">  1        2 0.48242035E+00 0.17179147E+04</pdfrwt>
<pdfrwt beam="2">  1       -2 0.36198524E-01 0.17179147E+04</pdfrwt>
<totfact> 0.97967780E+00</totfact>
</mgrwt>
</event>
<event>
 6    1  0.2325157E-005  0.5763506E+04  0.7818608E-02  0.7720436E-01
          2   -1    0    0  501    0  0.00000000000E+00  0.00000000000E+00  0.22076257424E+04  0.22076257424E+04  0.00000000000E+00 0.  1.
         -2   -1    0    0    0  501 -0.00000000000E+00 -0.00000000000E+00 -0.37617331899E+04  0.37617331899E+04  0.00000000000E+00 0. -1.
         23    2    1    2    0    0 -0.80838970847E+03  0.17446769260E+04 -0.29993395956E+04  0.35639301848E+04  0.90381723883E+02 0.  0.
         11    1    3    3    0    0 -0.23981951033E+03  0.46358230520E+03 -0.87628890450E+03  0.10199530359E+04  0.00000000000E+00 0. -1.
        -11    1    3    3    0    0 -0.56857019814E+03  0.12810946208E+04 -0.21230506911E+04  0.25439771490E+04  0.00000000000E+00 0.  1.
         22    1    1    2    0    0  0.80838970847E+03 -0.17446769260E+04  0.14452321481E+04  0.24054287474E+04  0.00000000000E+00 0.  1.
<mgrwt>
<rscale>  0 0.57635055E+04</rscale>
<asrwt>0</asrwt>
<pdfrwt beam="1">  1        2 0.33963473E+00 0.57635055E+04</pdfrwt>
<pdfrwt beam="2">  1       -2 0.57872818E+00 0.57635055E+04</pdfrwt>
<totfact> 0.22221742E-03</totfact>
</mgrwt>
</event>
<event>
 6    1  0.2325157E-005  0.3032580E+04  0.7818608E-02  0.8234488E-01
         -2   -1    0    0    0  501 -0.00000000000E+00  0.00000000000E+00  0.13861803408E+04  0.13861803408E+04  0.00000000000E+00 0. -1.
          2   -1    0    0  501    0  0.00000000000E+00 -0.00000000000E+00 -0.16586122141E+04  0.16586122141E+04  0.00000000000E+00 0.  1.
         23    2    1    2    0    0 -0.57684712091E+03 -0.12535991163E+04 -0.76415347997E+03  0.15798510941E+04  0.87952222518E+02 0.  0.
         11    1    3    3    0    0 -0.14274216897E+03 -0.40764175332E+03 -0.24008095195E+03  0.49415178776E+03  0.00000000000E+00 0. -1.
        -11    1    3    3    0    0 -0.43410495194E+03 -0.84595736293E+03 -0.52407252802E+03  0.10856993064E+04  0.00000000000E+00 0.  1.
         22    1    1    2    0    0  0.57684712091E+03  0.12535991163E+04  0.49172160663E+03  0.14649414608E+04  0.00000000000E+00 0. -1.
<mgrwt>
<rscale>  0 0.30325802E+04</rscale>
<asrwt>0</asrwt>
<pdfrwt beam="1">  1        2 0.25517111E+00 0.30325802E+04</pdfrwt>
<pdfrwt beam="2">  1       -2 0.21325851E+00 0.30325802E+04</pdfrwt>
<totfact> 0.96349181E-01</totfact>
</mgrwt>
</event>
<event>
 6    1  0.2325157E-005  0.2473326E+04  0.7818608E-02  0.8412550E-01
          2   -1    0    0  501    0  0.00000000000E+00  0.00000000000E+00  0.86137051020E+03  0.86137051020E+03  0.00000000000E+00 0.  1.
         -2   -1    0    0    0  501 -0.00000000000E+00 -0.00000000000E+00 -0.17754682171E+04  0.17754682171E+04  0.00000000000E+00 0. -1.
         23    2    1    2    0    0 -0.49977623224E+03 -0.11294181250E+04 -0.44898296451E+03  0.13171064412E+04  0.88442588920E+02 0.  0.
         13    1    3    3    0    0 -0.30630736430E+03 -0.63808990507E+03 -0.21672866725E+03  0.74023931507E+03  0.00000000000E+00 0. -1.
        -13    1    3    3    0    0 -0.19346886794E+03 -0.49132821996E+03 -0.23225429725E+03  0.57686712611E+03  0.00000000000E+00 0.  1.
         22    1    1    2    0    0  0.49977623224E+03  0.11294181250E+04 -0.46511474241E+03  0.13197322861E+04  0.00000000000E+00 0. -1.
<mgrwt>
<rscale>  0 0.24733265E+04</rscale>
<asrwt>0</asrwt>
<pdfrwt beam="1">  1        2 0.13251854E+00 0.24733265E+04</pdfrwt>
<pdfrwt beam="2">  1       -2 0.27314895E+00 0.24733265E+04</pdfrwt>
<totfact> 0.12916361E+00</totfact>
</mgrwt>
</event>
<event>
 6    1  0.2325157E-005  0.1722432E+04  0.7818608E-02  0.8748673E-01
         -2   -1    0    0    0  501 -0.00000000000E+00  0.00000000000E+00  0.36643567816E+03  0.36643567816E+03  0.00000000000E+00 0. -1.
          2   -1    0    0  501    0  0.00000000000E+00 -0.00000000000E+00 -0.20240748461E+04  0.20240748461E+04  0.00000000000E+00 0.  1.
         23    2    1    2    0    0  0.75694866196E+03  0.37215780241E+03 -0.10573218867E+04  0.13552069239E+04  0.84755694528E+02 0.  0.
         11    1    3    3    0    0  0.36881418523E+03  0.22452510898E+03 -0.56629665646E+03  0.71212873197E+03  0.00000000000E+00 0. -1.
        -11    1    3    3    0    0  0.38813447674E+03  0.14763269343E+03 -0.49102523029E+03  0.64307819196E+03  0.00000000000E+00 0.  1.
         22    1    1    2    0    0 -0.75694866196E+03 -0.37215780241E+03 -0.60031728118E+03  0.10353036003E+04  0.00000000000E+00 0.  1.
<mgrwt>
<rscale>  0 0.17224323E+04</rscale>
<asrwt>0</asrwt>
<pdfrwt beam="1">  1        2 0.31139614E+00 0.17224323E+04</pdfrwt>
<pdfrwt beam="2">  1       -2 0.56374718E-01 0.17224323E+04</pdfrwt>
<totfact> 0.18172296E+01</totfact>
</mgrwt>
</event>
<event>
 6    1  0.2325157E-005  0.1843847E+04  0.7818608E-02  0.8683324E-01
          2   -1    0    0  501    0  0.00000000000E+00  0.00000000000E+00  0.20810943392E+04  0.20810943392E+04  0.00000000000E+00 0. -1.
         -2   -1    0    0    0  501 -0.00000000000E+00 -0.00000000000E+00 -0.40841132942E+03  0.40841132942E+03  0.00000000000E+00 0.  1.
         23    2    1    2    0    0  0.81353363399E+03  0.42092073635E+03  0.95086309175E+03  0.13233001833E+04  0.89283346130E+02 0.  0.
         11    1    3    3    0    0  0.50365592043E+03  0.30503207654E+03  0.58467817931E+03  0.82979661801E+03  0.00000000000E+00 0. -1.
        -11    1    3    3    0    0  0.30987771356E+03  0.11588865981E+03  0.36618491244E+03  0.49350356527E+03  0.00000000000E+00 0.  1.
         22    1    1    2    0    0 -0.81353363399E+03 -0.42092073635E+03  0.72181991798E+03  0.11662054853E+04  0.00000000000E+00 0.  1.
<mgrwt>
<rscale>  0 0.18438465E+04</rscale>
<asrwt>0</asrwt>
<pdfrwt beam="1">  1        2 0.32016835E+00 0.18438465E+04</pdfrwt>
<pdfrwt beam="2">  1       -2 0.62832513E-01 0.18438465E+04</pdfrwt>
<totfact> 0.13298751E+01</totfact>
</mgrwt>
</event>
<event>
 6    1  0.2325157E-005  0.1476992E+04  0.7818608E-02  0.8899899E-01
          2   -1    0    0  501    0  0.00000000000E+00  0.00000000000E+00  0.60770371146E+03  0.60770371146E+03  0.00000000000E+00 0.  1.
         -2   -1    0    0    0  501 -0.00000000000E+00 -0.00000000000E+00 -0.89743745306E+03  0.89743745306E+03  0.00000000000E+00 0. -1.
         23    2    1    2    0    0  0.32670357620E+03 -0.53749970975E+03  0.24342725442E+03  0.68057957654E+03  0.91052551482E+02 0.  0.
         11    1    3    3    0    0  0.15823616868E+03 -0.25114692222E+03  0.16341126642E+03  0.33884613560E+03  0.00000000000E+00 0. -1.
        -11    1    3    3    0    0  0.16846740752E+03 -0.28635278753E+03  0.80015988001E+02  0.34173344094E+03  0.00000000000E+00 0.  1.
         22    1    1    2    0    0 -0.32670357620E+03  0.53749970975E+03 -0.53316099602E+03  0.82456158797E+03  0.00000000000E+00 0. -1.
<mgrwt>
<rscale>  0 0.14769916E+04</rscale>
<asrwt>0</asrwt>
<pdfrwt beam="1">  1        2 0.93492879E-01 0.14769916E+04</pdfrwt>
<pdfrwt beam="2">  1       -2 0.13806730E+00 0.14769916E+04</pdfrwt>
<totfact> 0.17589415E+01</totfact>
</mgrwt>
</event>
<event>
 6    1  0.2325157E-005  0.3152596E+04  0.7818608E-02  0.8201450E-01
          2   -1    0    0  501    0  0.00000000000E+00  0.00000000000E+00  0.29001270510E+04  0.29001270510E+04  0.00000000000E+00 0.  1.
         -2   -1    0    0    0  501 -0.00000000000E+00 -0.00000000000E+00 -0.85676074140E+03  0.85676074140E+03  0.00000000000E+00 0. -1.
         23    2    1    2    0    0  0.33795099382E+02  0.10842825044E+04  0.23832225622E+04  0.26200883683E+04  0.91118708115E+02 0.  0.
         13    1    3    3    0    0  0.35532696327E+00  0.28116087907E+03  0.52739897775E+03  0.59766315589E+03  0.00000000000E+00 0. -1.
        -13    1    3    3    0    0  0.33439772419E+02  0.80312162533E+03  0.18558235844E+04  0.20224252125E+04  0.00000000000E+00 0.  1.
         22    1    1    2    0    0 -0.33795099382E+02 -0.10842825044E+04 -0.33985625259E+03  0.11367994240E+04  0.00000000000E+00 0. -1.
<mgrwt>
<rscale>  0 0.31525958E+04</rscale>
<asrwt>0</asrwt>
<pdfrwt beam="1">  1        2 0.44617339E+00 0.31525958E+04</pdfrwt>
<pdfrwt beam="2">  1       -2 0.13180935E+00 0.31525958E+04</pdfrwt>
<totfact> 0.71162533E-01</totfact>
</mgrwt>
</event>
<event>
 6    1  0.2325157E-005  0.7299301E+04  0.7818608E-02  0.7547332E-01
          2   -1    0    0  501    0  0.00000000000E+00  0.00000000000E+00  0.39292015197E+04  0.39292015197E+04  0.00000000000E+00 0.  1.
         -2   -1    0    0    0  501 -0.00000000000E+00 -0.00000000000E+00 -0.33899888708E+04  0.33899888708E+04  0.00000000000E+00 0. -1.
         23    2    1    2    0    0  0.92569163190E+03  0.21069549211E+04  0.31092696841E+04  0.38693560175E+04  0.90520630254E+02 0.  0.
         13    1    3    3    0    0  0.61309660523E+03  0.14952884982E+04  0.21648332454E+04  0.27015325504E+04  0.00000000000E+00 0. -1.
        -13    1    3    3    0    0  0.31259502668E+03  0.61166642287E+03  0.94443643870E+03  0.11678234671E+04  0.00000000000E+00 0.  1.
         22    1    1    2    0    0 -0.92569163190E+03 -0.21069549211E+04 -0.25700570353E+04  0.34498343730E+04  0.00000000000E+00 0. -1.
<mgrwt>
<rscale>  0 0.72993012E+04</rscale>
<asrwt>0</asrwt>
<pdfrwt beam="1">  1        2 0.60449254E+00 0.72993012E+04</pdfrwt>
<pdfrwt beam="2">  1       -2 0.52153675E+00 0.72993012E+04</pdfrwt>
<totfact> 0.29539485E-04</totfact>
</mgrwt>
</event>
<event>
 6    1  0.2696022E-005  0.5274037E+04  0.7818608E-02  0.7787571E-01
         -2   -1    0    0    0  501 -0.00000000000E+00  0.00000000000E+00  0.27288675926E+04  0.27288675926E+04  0.00000000000E+00 0. -1.
          2   -1    0    0  501    0  0.00000000000E+00 -0.00000000000E+00 -0.25482604761E+04  0.25482604761E+04  0.00000000000E+00 0.  1.
         23    2    1    2    0    0  0.15931523375E+03 -0.18165884635E+04  0.19950963553E+04  0.27046300246E+04  0.96120308281E+02 0.  0.
         13    1    3    3    0    0  0.29971587408E+02 -0.83164807880E+03  0.87774536707E+03  0.12095345189E+04  0.00000000000E+00 0.  1.
        -13    1    3    3    0    0  0.12934364634E+03 -0.98494038465E+03  0.11173509882E+04  0.14950955057E+04  0.00000000000E+00 0. -1.
         22    1    1    2    0    0 -0.15931523375E+03  0.18165884635E+04 -0.18144892388E+04  0.25724980441E+04  0.00000000000E+00 0.  1.
<mgrwt>
<rscale>  0 0.52740366E+04</rscale>
<asrwt>0</asrwt>
<pdfrwt beam="1">  1        2 0.39204007E+00 0.52740366E+04</pdfrwt>
<pdfrwt beam="2">  1       -2 0.41982578E+00 0.52740366E+04</pdfrwt>
<totfact> 0.12800992E-02</totfact>
</mgrwt>
</event>
<event>
 6    1  0.2325157E-005  0.3201572E+03  0.7818608E-02  0.1075577E+00
         -1   -1    0    0    0  501 -0.00000000000E+00  0.00000000000E+00  0.24014663531E+02  0.24014663531E+02  0.00000000000E+00 0.  1.
          1   -1    0    0  501    0  0.00000000000E+00 -0.00000000000E+00 -0.10670628224E+04  0.10670628224E+04  0.00000000000E+00 0. -1.
         23    2    1    2    0    0  0.86917661885E+02  0.11356331662E+03 -0.66771347029E+03  0.68942161920E+03  0.94918827326E+02 0.  0.
         13    1    3    3    0    0  0.37850985051E+02  0.88902471997E+02 -0.24846388063E+03  0.26659078486E+03  0.00000000000E+00 0.  1.
        -13    1    3    3    0    0  0.49066676833E+02  0.24660844620E+02 -0.41924958966E+03  0.42283083434E+03  0.00000000000E+00 0. -1.
         22    1    1    2    0    0 -0.86917661885E+02 -0.11356331662E+03 -0.37533468854E+03  0.40165586669E+03  0.00000000000E+00 0.  1.
<mgrwt>
<rscale>  0 0.32015718E+03</rscale>
<asrwt>0</asrwt>
<pdfrwt beam="1">  1        1 0.16416351E+00 0.32015718E+03</pdfrwt>
<pdfrwt beam="2">  1       -1 0.36945637E-02 0.32015718E+03</pdfrwt>
<totfact> 0.39568145E+03</totfact>
</mgrwt>
</event>
<event>
 6    1  0.2325157E-005  0.5206569E+04  0.7818608E-02  0.7797409E-01
         -2   -1    0    0    0  501 -0.00000000000E+00  0.00000000000E+00  0.22402595560E+04  0.22402595560E+04  0.00000000000E+00 0. -1.
          2   -1    0    0  501    0  0.00000000000E+00 -0.00000000000E+00 -0.30251360474E+04  0.30251360474E+04  0.00000000000E+00 0.  1.
         23    2    1    2    0    0  0.28557503845E+03 -0.14356684631E+04 -0.25686677211E+04  0.29578843489E+04  0.91262925905E+02 0.  0.
         13    1    3    3    0    0  0.18082380901E+03 -0.97709040851E+03 -0.16600832432E+04  0.19347556152E+04  0.00000000000E+00 0.  1.
        -13    1    3    3    0    0  0.10475122944E+03 -0.45857805456E+03 -0.90858447793E+03  0.10231287337E+04  0.00000000000E+00 0. -1.
         22    1    1    2    0    0 -0.28557503845E+03  0.14356684631E+04  0.17837912297E+04  0.23075112545E+04  0.00000000000E+00 0. -1.
<mgrwt>
<rscale>  0 0.52065689E+04</rscale>
<asrwt>0</asrwt>
<pdfrwt beam="1">  1        2 0.46540554E+00 0.52065689E+04</pdfrwt>
<pdfrwt beam="2">  1       -2 0.34465532E+00 0.52065689E+04</pdfrwt>
<totfact> 0.20206147E-02</totfact>
</mgrwt>
</event>
<event>
 6    1  0.2325157E-005  0.2052914E+04  0.7818608E-02  0.8582273E-01
         -2   -1    0    0    0  501 -0.00000000000E+00  0.00000000000E+00  0.10148303312E+04  0.10148303312E+04  0.00000000000E+00 0. -1.
          2   -1    0    0  501    0  0.00000000000E+00 -0.00000000000E+00 -0.10382172915E+04  0.10382172915E+04  0.00000000000E+00 0.  1.
         23    2    1    2    0    0  0.17924347561E+03 -0.63966221472E+03 -0.79149438172E+03  0.10375255977E+04  0.93273988972E+02 0.  0.
         13    1    3    3    0    0  0.61095637168E+02 -0.38209493554E+03 -0.47652474061E+03  0.61384447954E+03  0.00000000000E+00 0.  1.
        -13    1    3    3    0    0  0.11814783844E+03 -0.25756727918E+03 -0.31496964111E+03  0.42368111812E+03  0.00000000000E+00 0. -1.
         22    1    1    2    0    0 -0.17924347561E+03  0.63966221472E+03  0.76810742143E+03  0.10155220250E+04  0.00000000000E+00 0. -1.
<mgrwt>
<rscale>  0 0.20529144E+04</rscale>
<asrwt>0</asrwt>
<pdfrwt beam="1">  1        2 0.15972574E+00 0.20529144E+04</pdfrwt>
<pdfrwt beam="2">  1       -2 0.15612774E+00 0.20529144E+04</pdfrwt>
<totfact> 0.59298446E+00</totfact>
</mgrwt>
</event>
<event>
 6    1  0.2381224E-005  0.3026390E+04  0.7818608E-02  0.8236235E-01
         -1   -1    0    0    0  501 -0.00000000000E+00  0.00000000000E+00  0.19149831647E+04  0.19149831647E+04  0.00000000000E+00 0. -1.
          1   -1    0    0  501    0  0.00000000000E+00 -0.00000000000E+00 -0.11957068196E+04  0.11957068196E+04  0.00000000000E+00 0.  1.
         23    2    1    2    0    0  0.48257786969E+03 -0.29529181628E+03 -0.10810724518E+04  0.12235401632E+04  0.90852781000E+02 0.  0.
         13    1    3    3    0    0  0.10242206348E+03 -0.38697397264E+02 -0.15087777723E+03  0.18641853799E+03  0.00000000000E+00 0. -1.
        -13    1    3    3    0    0  0.38015580621E+03 -0.25659441902E+03 -0.93019467456E+03  0.10371216252E+04  0.00000000000E+00 0.  1.
         22    1    1    2    0    0 -0.48257786969E+03  0.29529181628E+03  0.18003487968E+04  0.18871498211E+04  0.00000000000E+00 0. -1.
<mgrwt>
<rscale>  0 0.30263896E+04</rscale>
<asrwt>0</asrwt>
<pdfrwt beam="1">  1        1 0.18395489E+00 0.30263896E+04</pdfrwt>
<pdfrwt beam="2">  1       -1 0.29461280E+00 0.30263896E+04</pdfrwt>
<totfact> 0.32707313E-01</totfact>
</mgrwt>
</event>
<event>
 6    1  0.2325157E-005  0.2469756E+04  0.7818608E-02  0.8413840E-01
         -2   -1    0    0    0  501 -0.00000000000E+00  0.00000000000E+00  0.90418417909E+03  0.90418417909E+03  0.00000000000E+00 0. -1.
          2   -1    0    0  501    0  0.00000000000E+00 -0.00000000000E+00 -0.16865190867E+04  0.16865190867E+04  0.00000000000E+00 0.  1.
         23    2    1    2    0    0 -0.10866442037E+04 -0.48746660094E+03 -0.55860594679E+02  0.11956461917E+04  0.89610810568E+02 0.  0.
         11    1    3    3    0    0 -0.10987804844E+03 -0.80039734615E+02 -0.23063078408E+01  0.13595905157E+03  0.00000000000E+00 0. -1.
        -11    1    3    3    0    0 -0.97676615524E+03 -0.40742686633E+03 -0.53554286838E+02  0.10596871402E+04  0.00000000000E+00 0.  1.
         22    1    1    2    0    0  0.10866442037E+04  0.48746660094E+03 -0.72647431290E+03  0.13950570740E+04  0.00000000000E+00 0.  1.
<mgrwt>
<rscale>  0 0.24697562E+04</rscale>
<asrwt>0</asrwt>
<pdfrwt beam="1">  1        2 0.25946447E+00 0.24697562E+04</pdfrwt>
<pdfrwt beam="2">  1       -2 0.13910526E+00 0.24697562E+04</pdfrwt>
<totfact> 0.32584892E+00</totfact>
</mgrwt>
</event>
<event>
 6    1  0.2325157E-005  0.2791830E+04  0.7818608E-02  0.8305809E-01
          2   -1    0    0  501    0  0.00000000000E+00  0.00000000000E+00  0.13419839569E+04  0.13419839569E+04  0.00000000000E+00 0.  1.
         -2   -1    0    0    0  501 -0.00000000000E+00 -0.00000000000E+00 -0.14520136748E+04  0.14520136748E+04  0.00000000000E+00 0. -1.
         23    2    1    2    0    0  0.51863847063E+02 -0.11587953917E+04 -0.82953783617E+03  0.14290109831E+04  0.91884435886E+02 0.  0.
         13    1    3    3    0    0  0.12168880047E+01 -0.89348420262E+03 -0.63806118682E+03  0.10979242138E+04  0.00000000000E+00 0. -1.
        -13    1    3    3    0    0  0.50646959059E+02 -0.26531118913E+03 -0.19147664935E+03  0.33108676926E+03  0.00000000000E+00 0.  1.
         22    1    1    2    0    0 -0.51863847063E+02  0.11587953917E+04  0.71950811833E+03  0.13649866486E+04  0.00000000000E+00 0.  1.
<mgrwt>
<rscale>  0 0.27918303E+04</rscale>
<asrwt>0</asrwt>
<pdfrwt beam="1">  1        2 0.20645907E+00 0.27918303E+04</pdfrwt>
<pdfrwt beam="2">  1       -2 0.22338672E+00 0.27918303E+04</pdfrwt>
<totfact> 0.12802653E+00</totfact>
</mgrwt>
</event>
<event>
 6    1  0.2325157E-005  0.1544271E+04  0.7818608E-02  0.8855535E-01
          2   -1    0    0  501    0  0.00000000000E+00  0.00000000000E+00  0.10898635691E+04  0.10898635691E+04  0.00000000000E+00 0.  1.
         -2   -1    0    0    0  501 -0.00000000000E+00 -0.00000000000E+00 -0.54703477136E+03  0.54703477136E+03  0.00000000000E+00 0. -1.
         23    2    1    2    0    0 -0.42830498479E+03  0.62453759062E+03  0.41703818203E+03  0.86922937460E+03  0.90257954244E+02 0.  0.
         11    1    3    3    0    0 -0.46098648835E+02  0.35692886093E+02  0.51303593571E+02  0.77660326135E+02  0.00000000000E+00 0.  1.
        -11    1    3    3    0    0 -0.38220633596E+03  0.58884470453E+03  0.36573458846E+03  0.79156904847E+03  0.00000000000E+00 0. -1.
         22    1    1    2    0    0  0.42830498479E+03 -0.62453759062E+03  0.12579061569E+03  0.76766896583E+03  0.00000000000E+00 0. -1.
<mgrwt>
<rscale>  0 0.15442710E+04</rscale>
<asrwt>0</asrwt>
<pdfrwt beam="1">  1        2 0.16767132E+00 0.15442710E+04</pdfrwt>
<pdfrwt beam="2">  1       -2 0.84159196E-01 0.15442710E+04</pdfrwt>
<totfact> 0.26239149E+01</totfact>
</mgrwt>
</event>
<event>
 6    1  0.2325157E-005  0.3408827E+04  0.7818608E-02  0.8135743E-01
         -2   -1    0    0    0  501 -0.00000000000E+00  0.00000000000E+00  0.78578215736E+03  0.78578215736E+03  0.00000000000E+00 0.  1.
          2   -1    0    0  501    0  0.00000000000E+00 -0.00000000000E+00 -0.36969859335E+04  0.36969859335E+04  0.00000000000E+00 0. -1.
         23    2    1    2    0    0  0.15247795620E+03  0.16963266807E+04 -0.14404930359E+04  0.22324872603E+04  0.90583917908E+02 0.  0.
         11    1    3    3    0    0  0.57987389304E+02  0.30475746212E+03 -0.28476002760E+03  0.42110321937E+03  0.00000000000E+00 0. -1.
        -11    1    3    3    0    0  0.94490566898E+02  0.13915692186E+04 -0.11557330083E+04  0.18113840410E+04  0.00000000000E+00 0.  1.
         22    1    1    2    0    0 -0.15247795620E+03 -0.16963266807E+04 -0.14707107403E+04  0.22502808306E+04  0.00000000000E+00 0. -1.
<mgrwt>
<rscale>  0 0.34088271E+04</rscale>
<asrwt>0</asrwt>
<pdfrwt beam="1">  1        2 0.56876707E+00 0.34088271E+04</pdfrwt>
<pdfrwt beam="2">  1       -2 0.12088956E+00 0.34088271E+04</pdfrwt>
<totfact> 0.25273287E-01</totfact>
</mgrwt>
</event>
<event>
 6    1  0.2325157E-005  0.1023992E+04  0.7818608E-02  0.9282615E-01
         -2   -1    0    0    0  501 -0.00000000000E+00  0.00000000000E+00  0.75688476858E+03  0.75688476858E+03  0.00000000000E+00 0. -1.
          2   -1    0    0  501    0  0.00000000000E+00 -0.00000000000E+00 -0.34634068636E+03  0.34634068636E+03  0.00000000000E+00 0.  1.
         23    2    1    2    0    0 -0.39024241846E+02 -0.11916727732E+03 -0.32349332295E+03  0.35855462590E+03  0.90497283520E+02 0.  0.
         13    1    3    3    0    0 -0.12773231024E+02 -0.12605175060E+03 -0.27930842613E+03  0.30670082518E+03  0.00000000000E+00 0. -1.
        -13    1    3    3    0    0 -0.26251010821E+02  0.68844732856E+01 -0.44184896825E+02  0.51853800719E+02  0.00000000000E+00 0.  1.
         22    1    1    2    0    0  0.39024241846E+02  0.11916727732E+03  0.73403740517E+03  0.74467082904E+03  0.00000000000E+00 0. -1.
<mgrwt>
<rscale>  0 0.10239922E+04</rscale>
<asrwt>0</asrwt>
<pdfrwt beam="1">  1        2 0.53283183E-01 0.10239922E+04</pdfrwt>
<pdfrwt beam="2">  1       -2 0.11644381E+00 0.10239922E+04</pdfrwt>
<totfact> 0.53307681E+01</totfact>
</mgrwt>
</event>
<event>
 6    1  0.2325157E-005  0.1899236E+04  0.7818608E-02  0.8655237E-01
          2   -1    0    0  501    0  0.00000000000E+00  0.00000000000E+00  0.21845113798E+04  0.21845113798E+04  0.00000000000E+00 0.  1.
         -2   -1    0    0    0  501 -0.00000000000E+00 -0.00000000000E+00 -0.41280380022E+03  0.41280380022E+03  0.00000000000E+00 0. -1.
         23    2    1    2    0    0  0.30089384263E+03  0.43501988277E+03 -0.18702049415E+03  0.56842507217E+03  0.91383775921E+02 0.  0.
         11    1    3    3    0    0  0.24351770924E+02  0.95797087951E+02 -0.41538900094E+02  0.10721740077E+03  0.00000000000E+00 0. -1.
        -11    1    3    3    0    0  0.27654207171E+03  0.33922279482E+03 -0.14548159405E+03  0.46120767140E+03  0.00000000000E+00 0.  1.
         22    1    1    2    0    0 -0.30089384263E+03 -0.43501988277E+03  0.19587280737E+04  0.20288901078E+04  0.00000000000E+00 0.  1.
<mgrwt>
<rscale>  0 0.18992363E+04</rscale>
<asrwt>0</asrwt>
<pdfrwt beam="1">  1        2 0.33607867E+00 0.18992363E+04</pdfrwt>
<pdfrwt beam="2">  1       -2 0.63508278E-01 0.18992363E+04</pdfrwt>
<totfact> 0.11324880E+01</totfact>
</mgrwt>
</event>
<event>
 6    1  0.2325157E-005  0.2639530E+04  0.7818608E-02  0.8354896E-01
          2   -1    0    0  501    0  0.00000000000E+00  0.00000000000E+00  0.35586133536E+04  0.35586133536E+04  0.00000000000E+00 0.  1.
         -2   -1    0    0    0  501 -0.00000000000E+00 -0.00000000000E+00 -0.48945476677E+03  0.48945476677E+03  0.00000000000E+00 0. -1.
         23    2    1    2    0    0 -0.76967082412E+03 -0.63600182965E+03  0.21660531652E+03  0.10258253001E+04  0.92239787109E+02 0.  0.
         13    1    3    3    0    0 -0.46187196677E+03 -0.36253128140E+03  0.17111649058E+03  0.61158441529E+03  0.00000000000E+00 0. -1.
        -13    1    3    3    0    0 -0.30779885736E+03 -0.27347054825E+03  0.45488825944E+02  0.41424088480E+03  0.00000000000E+00 0.  1.
         22    1    1    2    0    0  0.76967082412E+03  0.63600182965E+03  0.28525532703E+04  0.30222428203E+04  0.00000000000E+00 0.  1.
<mgrwt>
<rscale>  0 0.26395305E+04</rscale>
<asrwt>0</asrwt>
<pdfrwt beam="1">  1        2 0.54747896E+00 0.26395305E+04</pdfrwt>
<pdfrwt beam="2">  1       -2 0.75300736E-01 0.26395305E+04</pdfrwt>
<totfact> 0.10319986E+00</totfact>
</mgrwt>
</event>
<event>
 6    1  0.2325157E-005  0.2394387E+04  0.7818608E-02  0.8441608E-01
         -2   -1    0    0    0  501 -0.00000000000E+00  0.00000000000E+00  0.43305853051E+03  0.43305853051E+03  0.00000000000E+00 0. -1.
          2   -1    0    0  501    0  0.00000000000E+00 -0.00000000000E+00 -0.33096492312E+04  0.33096492312E+04  0.00000000000E+00 0.  1.
         23    2    1    2    0    0  0.36617298667E+03 -0.11376984337E+04 -0.14808567778E+04  0.19051785604E+04  0.91258797947E+02 0.  0.
         13    1    3    3    0    0  0.18219512749E+03 -0.42508469366E+03 -0.58795532014E+03  0.74805315303E+03  0.00000000000E+00 0. -1.
        -13    1    3    3    0    0  0.18397785918E+03 -0.71261374007E+03 -0.89290145768E+03  0.11571254073E+04  0.00000000000E+00 0.  1.
         22    1    1    2    0    0 -0.36617298667E+03  0.11376984337E+04 -0.13957339228E+04  0.18375292013E+04  0.00000000000E+00 0.  1.
<mgrwt>
<rscale>  0 0.23943866E+04</rscale>
<asrwt>0</asrwt>
<pdfrwt beam="1">  1        2 0.50917678E+00 0.23943866E+04</pdfrwt>
<pdfrwt beam="2">  1       -2 0.66624393E-01 0.23943866E+04</pdfrwt>
<totfact> 0.20462683E+00</totfact>
</mgrwt>
</event>
<event>
 6    1  0.2325157E-005  0.1493124E+04  0.7818608E-02  0.8889038E-01
          2   -1    0    0  501    0  0.00000000000E+00  0.00000000000E+00  0.13182847717E+04  0.13182847717E+04  0.00000000000E+00 0.  1.
         -2   -1    0    0    0  501 -0.00000000000E+00 -0.00000000000E+00 -0.42278809537E+03  0.42278809537E+03  0.00000000000E+00 0. -1.
         23    2    1    2    0    0 -0.58664107232E+03 -0.25515277692E+03  0.68696326897E+01  0.64612596882E+03  0.90448263825E+02 0.  0.
         13    1    3    3    0    0 -0.39608473505E+03 -0.12741085581E+03 -0.89540968040E+01  0.41616921963E+03  0.00000000000E+00 0.  1.
        -13    1    3    3    0    0 -0.19055633726E+03 -0.12774192112E+03  0.15823729494E+02  0.22995674919E+03  0.00000000000E+00 0. -1.
         22    1    1    2    0    0  0.58664107232E+03  0.25515277692E+03  0.88862704368E+03  0.10949468983E+04  0.00000000000E+00 0.  1.
<mgrwt>
<rscale>  0 0.14931244E+04</rscale>
<asrwt>0</asrwt>
<pdfrwt beam="1">  1        2 0.20281304E+00 0.14931244E+04</pdfrwt>
<pdfrwt beam="2">  1       -2 0.65044323E-01 0.14931244E+04</pdfrwt>
<totfact> 0.33991971E+01</totfact>
</mgrwt>
</event>
<event>
 6    1  0.2325157E-005  0.2845472E+04  0.7818608E-02  0.8289289E-01
          2   -1    0    0  501    0  0.00000000000E+00  0.00000000000E+00  0.19385896312E+04  0.19385896312E+04  0.00000000000E+00 0.  1.
         -2   -1    0    0    0  501 -0.00000000000E+00 -0.00000000000E+00 -0.10441497545E+04  0.10441497545E+04  0.00000000000E+00 0. -1.
         23    2    1    2    0    0 -0.69388043319E+03 -0.10709838564E+04  0.11035284241E+04  0.16896057898E+04  0.92283616014E+02 0.  0.
         13    1    3    3    0    0 -0.21563871748E+03 -0.39117157605E+03  0.42642344123E+03  0.61753721315E+03  0.00000000000E+00 0. -1.
        -13    1    3    3    0    0 -0.47824171570E+03 -0.67981228032E+03  0.67710498290E+03  0.10720685766E+04  0.00000000000E+00 0.  1.
         22    1    1    2    0    0  0.69388043319E+03  0.10709838564E+04 -0.20908854748E+03  0.12931335959E+04  0.00000000000E+00 0.  1.
<mgrwt>
<rscale>  0 0.28454721E+04</rscale>
<asrwt>0</asrwt>
<pdfrwt beam="1">  1        2 0.29824456E+00 0.28454721E+04</pdfrwt>
<pdfrwt beam="2">  1       -2 0.16063842E+00 0.28454721E+04</pdfrwt>
<totfact> 0.15614507E+00</totfact>
</mgrwt>
</event>
<event>
 6    1  0.2325157E-005  0.2372658E+04  0.7818608E-02  0.8449812E-01
          2   -1    0    0  501    0  0.00000000000E+00  0.00000000000E+00  0.21792402944E+04  0.21792402944E+04  0.00000000000E+00 0.  1.
         -2   -1    0    0    0  501 -0.00000000000E+00 -0.00000000000E+00 -0.64581047636E+03  0.64581047636E+03  0.00000000000E+00 0. -1.
         23    2    1    2    0    0 -0.11737896110E+03  0.90099844833E+03 -0.13729418720E+03  0.92323723466E+03  0.89113821780E+02 0.  0.
         11    1    3    3    0    0 -0.43960590485E+02  0.62437261849E+03 -0.11265694423E+03  0.63597585435E+03  0.00000000000E+00 0.  1.
        -11    1    3    3    0    0 -0.73418370617E+02  0.27662582984E+03 -0.24637242972E+02  0.28726138031E+03  0.00000000000E+00 0. -1.
         22    1    1    2    0    0  0.11737896110E+03 -0.90099844833E+03  0.16707240053E+04  0.19018135361E+04  0.00000000000E+00 0.  1.
<mgrwt>
<rscale>  0 0.23726578E+04</rscale>
<asrwt>0</asrwt>
<pdfrwt beam="1">  1        2 0.33526773E+00 0.23726578E+04</pdfrwt>
<pdfrwt beam="2">  1       -2 0.99355459E-01 0.23726578E+04</pdfrwt>
<totfact> 0.40093624E+00</totfact>
</mgrwt>
</event>
<event>
 6    1  0.2325157E-005  0.1957794E+04  0.7818608E-02  0.8626611E-01
          2   -1    0    0  501    0  0.00000000000E+00  0.00000000000E+00  0.25228857952E+04  0.25228857952E+04  0.00000000000E+00 0.  1.
         -2   -1    0    0    0  501 -0.00000000000E+00 -0.00000000000E+00 -0.37981890488E+03  0.37981890488E+03  0.00000000000E+00 0. -1.
         23    2    1    2    0    0 -0.45217662541E+02 -0.54068879833E+03 -0.12962252006E+03  0.56614608330E+03  0.96593872938E+02 0.  0.
         13    1    3    3    0    0  0.27325814930E+02 -0.20931359947E+03 -0.34982381255E+02  0.21396880634E+03  0.00000000000E+00 0.  1.
        -13    1    3    3    0    0 -0.72543477471E+02 -0.33137519885E+03 -0.94640138801E+02  0.35217727696E+03  0.00000000000E+00 0. -1.
         22    1    1    2    0    0  0.45217662541E+02  0.54068879833E+03  0.22726894104E+04  0.23365586168E+04  0.00000000000E+00 0.  1.
<mgrwt>
<rscale>  0 0.19577944E+04</rscale>
<asrwt>0</asrwt>
<pdfrwt beam="1">  1        2 0.38813627E+00 0.19577944E+04</pdfrwt>
<pdfrwt beam="2">  1       -2 0.58433679E-01 0.19577944E+04</pdfrwt>
<totfact> 0.86260079E+00</totfact>
</mgrwt>
</event>
<event>
 6    1  0.2325157E-005  0.7428032E+03  0.7818608E-02  0.9646709E-01
         -2   -1    0    0    0  501 -0.00000000000E+00  0.00000000000E+00  0.43778522449E+03  0.43778522449E+03  0.00000000000E+00 0. -1.
          2   -1    0    0  501    0  0.00000000000E+00 -0.00000000000E+00 -0.31508409624E+03  0.31508409624E+03  0.00000000000E+00 0.  1.
         23    2    1    2    0    0 -0.19175653799E+03  0.63784045377E+02 -0.24633098867E+03  0.33212750248E+03  0.93758986896E+02 0.  0.
         13    1    3    3    0    0 -0.18115257482E+03  0.49360082338E+02 -0.16854997155E+03  0.25231283361E+03  0.00000000000E+00 0.  1.
        -13    1    3    3    0    0 -0.10603963164E+02  0.14423963039E+02 -0.77781017112E+02  0.79814668874E+02  0.00000000000E+00 0. -1.
         22    1    1    2    0    0  0.19175653799E+03 -0.63784045377E+02  0.36903211691E+03  0.42074181824E+03  0.00000000000E+00 0. -1.
<mgrwt>
<rscale>  0 0.74280324E+03</rscale>
<asrwt>0</asrwt>
<pdfrwt beam="1">  1        2 0.48474476E-01 0.74280324E+03</pdfrwt>
<pdfrwt beam="2">  1       -2 0.67351573E-01 0.74280324E+03</pdfrwt>
<totfact> 0.21207202E+02</totfact>
</mgrwt>
</event>
<event>
 6    1  0.2325157E-005  0.2959264E+04  0.7818608E-02  0.8255460E-01
         -2   -1    0    0    0  501 -0.00000000000E+00  0.00000000000E+00  0.11578884515E+04  0.11578884515E+04  0.00000000000E+00 0. -1.
          2   -1    0    0  501    0  0.00000000000E+00 -0.00000000000E+00 -0.18907788494E+04  0.18907788494E+04  0.00000000000E+00 0.  1.
         23    2    1    2    0    0  0.18623728185E+02 -0.14774854392E+04 -0.32200924114E+03  0.15150006515E+04  0.90702571540E+02 0.  0.
         11    1    3    3    0    0 -0.24463324088E+01 -0.13781886288E+04 -0.31146010987E+03  0.14129463122E+04  0.00000000000E+00 0. -1.
        -11    1    3    3    0    0  0.21070060594E+02 -0.99296810442E+02 -0.10549131271E+02  0.10205433939E+03  0.00000000000E+00 0.  1.
         22    1    1    2    0    0 -0.18623728185E+02  0.14774854392E+04 -0.41088115683E+03  0.15336666494E+04  0.00000000000E+00 0. -1.
<mgrwt>
<rscale>  0 0.29592641E+04</rscale>
<asrwt>0</asrwt>
<pdfrwt beam="1">  1        2 0.29088906E+00 0.29592641E+04</pdfrwt>
<pdfrwt beam="2">  1       -2 0.17813668E+00 0.29592641E+04</pdfrwt>
<totfact> 0.12329055E+00</totfact>
</mgrwt>
</event>
<event>
 6    1  0.2325157E-005  0.2087309E+04  0.7818608E-02  0.8566855E-01
         -2   -1    0    0    0  501 -0.00000000000E+00  0.00000000000E+00  0.47284357582E+03  0.47284357582E+03  0.00000000000E+00 0. -1.
          2   -1    0    0  501    0  0.00000000000E+00 -0.00000000000E+00 -0.23035413184E+04  0.23035413184E+04  0.00000000000E+00 0.  1.
         23    2    1    2    0    0  0.32780856349E+03 -0.98658818158E+03 -0.10028208589E+04  0.14474022650E+04  0.92243955327E+02 0.  0.
         11    1    3    3    0    0  0.11790497792E+03 -0.46900665146E+03 -0.50519645766E+03  0.69935133071E+03  0.00000000000E+00 0. -1.
        -11    1    3    3    0    0  0.20990358557E+03 -0.51758153011E+03 -0.49762440128E+03  0.74805093430E+03  0.00000000000E+00 0.  1.
         22    1    1    2    0    0 -0.32780856349E+03  0.98658818158E+03 -0.82787688369E+03  0.13289826293E+04  0.00000000000E+00 0. -1.
<mgrwt>
<rscale>  0 0.20873090E+04</rscale>
<asrwt>0</asrwt>
<pdfrwt beam="1">  1        2 0.35439096E+00 0.20873090E+04</pdfrwt>
<pdfrwt beam="2">  1       -2 0.72745167E-01 0.20873090E+04</pdfrwt>
<totfact> 0.71120839E+00</totfact>
</mgrwt>
</event>
<event>
 6    1  0.2325157E-005  0.3958242E+04  0.7818608E-02  0.8013024E-01
         -2   -1    0    0    0  501 -0.00000000000E+00  0.00000000000E+00  0.19332520047E+04  0.19332520047E+04  0.00000000000E+00 0. -1.
          2   -1    0    0  501    0  0.00000000000E+00 -0.00000000000E+00 -0.20260782047E+04  0.20260782047E+04  0.00000000000E+00 0.  1.
         23    2    1    2    0    0 -0.11590373777E+03 -0.12260044708E+04  0.15019931597E+04  0.19443936276E+04  0.90346491507E+02 0.  0.
         11    1    3    3    0    0 -0.50275264809E+02 -0.92732289106E+03  0.11115804220E+04  0.14484703591E+04  0.00000000000E+00 0. -1.
        -11    1    3    3    0    0 -0.65628472961E+02 -0.29868157975E+03  0.39041273764E+03  0.49592326852E+03  0.00000000000E+00 0.  1.
         22    1    1    2    0    0  0.11590373777E+03  0.12260044708E+04 -0.15948193597E+04  0.20149365818E+04  0.00000000000E+00 0.  1.
<mgrwt>
<rscale>  0 0.39582419E+04</rscale>
<asrwt>0</asrwt>
<pdfrwt beam="1">  1        2 0.31170434E+00 0.39582419E+04</pdfrwt>
<pdfrwt beam="2">  1       -2 0.29742338E+00 0.39582419E+04</pdfrwt>
<totfact> 0.16857496E-01</totfact>
</mgrwt>
</event>
<event>
 6    1  0.2325157E-005  0.2933560E+04  0.7818608E-02  0.8262962E-01
         -2   -1    0    0    0  501 -0.00000000000E+00  0.00000000000E+00  0.12400803235E+04  0.12400803235E+04  0.00000000000E+00 0. -1.
          2   -1    0    0  501    0  0.00000000000E+00 -0.00000000000E+00 -0.17349228486E+04  0.17349228486E+04  0.00000000000E+00 0.  1.
         23    2    1    2    0    0  0.68850068597E+03 -0.63984892113E+03  0.89252639815E+03  0.12992250347E+04  0.89120608518E+02 0.  0.
         13    1    3    3    0    0  0.47424236628E+03 -0.45185184825E+03  0.56511155791E+03  0.86511674798E+03  0.00000000000E+00 0.  1.
        -13    1    3    3    0    0  0.21425831969E+03 -0.18799707288E+03  0.32741484023E+03  0.43410828669E+03  0.00000000000E+00 0. -1.
         22    1    1    2    0    0 -0.68850068597E+03  0.63984892113E+03 -0.13873689233E+04  0.16757781374E+04  0.00000000000E+00 0.  1.
<mgrwt>
<rscale>  0 0.29335601E+04</rscale>
<asrwt>0</asrwt>
<pdfrwt beam="1">  1        2 0.26691121E+00 0.29335601E+04</pdfrwt>
<pdfrwt beam="2">  1       -2 0.19078159E+00 0.29335601E+04</pdfrwt>
<totfact> 0.12362242E+00</totfact>
</mgrwt>
</event>
<event>
 6    1  0.2325157E-005  0.5933426E+03  0.7818608E-02  0.9919315E-01
         -2   -1    0    0    0  501 -0.00000000000E+00  0.00000000000E+00  0.40920904843E+02  0.40920904843E+02  0.00000000000E+00 0. -1.
          2   -1    0    0  501    0  0.00000000000E+00 -0.00000000000E+00 -0.21508285658E+04  0.21508285658E+04  0.00000000000E+00 0.  1.
         23    2    1    2    0    0  0.17241610586E+03  0.13926897719E+03 -0.17636935261E+04  0.17806687137E+04  0.10508592813E+03 0.  0.
         13    1    3    3    0    0  0.63677466628E+02 -0.57433196996E+01 -0.48246331914E+03  0.48668127126E+03  0.00000000000E+00 0. -1.
        -13    1    3    3    0    0  0.10873863924E+03  0.14501229689E+03 -0.12812302070E+04  0.12939874425E+04  0.00000000000E+00 0.  1.
         22    1    1    2    0    0 -0.17241610586E+03 -0.13926897719E+03 -0.34621413482E+03  0.41108075693E+03  0.00000000000E+00 0. -1.
<mgrwt>
<rscale>  0 0.59334257E+03</rscale>
<asrwt>0</asrwt>
<pdfrwt beam="1">  1        2 0.33089668E+00 0.59334257E+03</pdfrwt>
<pdfrwt beam="2">  1       -2 0.62955242E-02 0.59334257E+03</pdfrwt>
<totfact> 0.82275723E+02</totfact>
</mgrwt>
</event>
<event>
 6    1  0.2325157E-005  0.5107272E+04  0.7818608E-02  0.7812169E-01
          2   -1    0    0  501    0  0.00000000000E+00  0.00000000000E+00  0.23050327972E+04  0.23050327972E+04  0.00000000000E+00 0.  1.
         -2   -1    0    0    0  501 -0.00000000000E+00 -0.00000000000E+00 -0.28290521353E+04  0.28290521353E+04  0.00000000000E+00 0. -1.
         23    2    1    2    0    0 -0.19605019821E+04  0.93810009496E+03  0.10840298277E+04  0.24304906711E+04  0.92544179164E+02 0.  0.
         13    1    3    3    0    0 -0.14131561169E+04  0.64033018965E+03  0.74359612984E+03  0.17204558020E+04  0.00000000000E+00 0.  1.
        -13    1    3    3    0    0 -0.54734586526E+03  0.29776990531E+03  0.34043369788E+03  0.71003486913E+03  0.00000000000E+00 0. -1.
         22    1    1    2    0    0  0.19605019821E+04 -0.93810009496E+03 -0.16080491658E+04  0.27035942613E+04  0.00000000000E+00 0. -1.
<mgrwt>
<rscale>  0 0.51072724E+04</rscale>
<asrwt>0</asrwt>
<pdfrwt beam="1">  1        2 0.35462043E+00 0.51072724E+04</pdfrwt>
<pdfrwt beam="2">  1       -2 0.43523879E+00 0.51072724E+04</pdfrwt>
<totfact> 0.14162945E-02</totfact>
</mgrwt>
</event>
<event>
 6    1  0.2325157E-005  0.2452564E+04  0.7818608E-02  0.8420083E-01
         -2   -1    0    0    0  501 -0.00000000000E+00  0.00000000000E+00  0.10115692790E+04  0.10115692790E+04  0.00000000000E+00 0. -1.
          2   -1    0    0  501    0  0.00000000000E+00 -0.00000000000E+00 -0.14865684633E+04  0.14865684633E+04  0.00000000000E+00 0.  1.
         23    2    1    2    0    0 -0.16907873662E+03 -0.25879418475E+03  0.96903554119E+03  0.10213851097E+04  0.92927999001E+02 0.  0.
         11    1    3    3    0    0 -0.12791987927E+03 -0.19462832551E+03  0.58120164092E+03  0.62613020053E+03  0.00000000000E+00 0.  1.
        -11    1    3    3    0    0 -0.41158857354E+02 -0.64165859237E+02  0.38783390027E+03  0.39525490917E+03  0.00000000000E+00 0. -1.
         22    1    1    2    0    0  0.16907873662E+03  0.25879418475E+03 -0.14440347255E+04  0.14767526325E+04  0.00000000000E+00 0.  1.
<mgrwt>
<rscale>  0 0.24525635E+04</rscale>
<asrwt>0</asrwt>
<pdfrwt beam="1">  1        2 0.22870284E+00 0.24525635E+04</pdfrwt>
<pdfrwt beam="2">  1       -2 0.15562604E+00 0.24525635E+04</pdfrwt>
<totfact> 0.31414049E+00</totfact>
</mgrwt>
</event>
<event>
 6    1  0.2325157E-005  0.5151560E+04  0.7818608E-02  0.7805544E-01
         -2   -1    0    0    0  501 -0.00000000000E+00  0.00000000000E+00  0.17313820477E+04  0.17313820477E+04  0.00000000000E+00 0. -1.
          2   -1    0    0  501    0  0.00000000000E+00 -0.00000000000E+00 -0.38319917197E+04  0.38319917197E+04  0.00000000000E+00 0.  1.
         23    2    1    2    0    0  0.13317413897E+04  0.17248994620E+04  0.43048714806E+03  0.22234240080E+04  0.97374799209E+02 0.  0.
         13    1    3    3    0    0  0.50040911875E+03  0.59348309418E+03  0.12017665046E+03  0.78554051234E+03  0.00000000000E+00 0.  1.
        -13    1    3    3    0    0  0.83133227097E+03  0.11314163678E+04  0.31031049760E+03  0.14378834957E+04  0.00000000000E+00 0. -1.
         22    1    1    2    0    0 -0.13317413897E+04 -0.17248994620E+04 -0.25310968200E+04  0.33399497594E+04  0.00000000000E+00 0.  1.
<mgrwt>
<rscale>  0 0.51515596E+04</rscale>
<asrwt>0</asrwt>
<pdfrwt beam="1">  1        2 0.58953718E+00 0.51515596E+04</pdfrwt>
<pdfrwt beam="2">  1       -2 0.26636647E+00 0.51515596E+04</pdfrwt>
<totfact> 0.16971161E-02</totfact>
</mgrwt>
</event>
<event>
 6    1  0.2325157E-005  0.2230716E+04  0.7818608E-02  0.8505751E-01
          2   -1    0    0  501    0  0.00000000000E+00  0.00000000000E+00  0.29477755670E+04  0.29477755670E+04  0.00000000000E+00 0. -1.
         -2   -1    0    0    0  501 -0.00000000000E+00 -0.00000000000E+00 -0.42202105641E+03  0.42202105641E+03  0.00000000000E+00 0.  1.
         23    2    1    2    0    0  0.64170053796E+03  0.83231737482E+03  0.70925750047E+03  0.12711796549E+04  0.91212499928E+02 0.  0.
         13    1    3    3    0    0  0.56051571705E+03  0.73711979268E+03  0.65788277117E+03  0.11359283421E+04  0.00000000000E+00 0. -1.
        -13    1    3    3    0    0  0.81184820915E+02  0.95197582145E+02  0.51374729302E+02  0.13525131276E+03  0.00000000000E+00 0.  1.
         22    1    1    2    0    0 -0.64170053796E+03 -0.83231737482E+03  0.18164970101E+04  0.20986169685E+04  0.00000000000E+00 0. -1.
<mgrwt>
<rscale>  0 0.22307159E+04</rscale>
<asrwt>0</asrwt>
<pdfrwt beam="1">  1        2 0.45350392E+00 0.22307159E+04</pdfrwt>
<pdfrwt beam="2">  1       -2 0.64926318E-01 0.22307159E+04</pdfrwt>
<totfact> 0.37485046E+00</totfact>
</mgrwt>
</event>
<event>
 6    1  0.2325157E-005  0.1994050E+04  0.7818608E-02  0.8609408E-01
         -2   -1    0    0    0  501 -0.00000000000E+00  0.00000000000E+00  0.77482147681E+03  0.77482147681E+03  0.00000000000E+00 0. -1.
          2   -1    0    0  501    0  0.00000000000E+00 -0.00000000000E+00 -0.12829517268E+04  0.12829517268E+04  0.00000000000E+00 0.  1.
         23    2    1    2    0    0 -0.71702539968E+02  0.99169256664E+03 -0.21637349340E+03  0.10215698423E+04  0.90509960953E+02 0.  0.
         11    1    3    3    0    0  0.15520545145E+02  0.35639062931E+03 -0.91266696973E+02  0.36821838352E+03  0.00000000000E+00 0. -1.
        -11    1    3    3    0    0 -0.87223085113E+02  0.63530193733E+03 -0.12510679643E+03  0.65335145876E+03  0.00000000000E+00 0.  1.
         22    1    1    2    0    0  0.71702539968E+02 -0.99169256664E+03 -0.29175675656E+03  0.10362033613E+04  0.00000000000E+00 0.  1.
<mgrwt>
<rscale>  0 0.19940497E+04</rscale>
<asrwt>0</asrwt>
<pdfrwt beam="1">  1        2 0.19737719E+00 0.19940497E+04</pdfrwt>
<pdfrwt beam="2">  1       -2 0.11920330E+00 0.19940497E+04</pdfrwt>
<totfact> 0.84898658E+00</totfact>
</mgrwt>
</event>
<event>
 6    1  0.2325157E-005  0.1947631E+04  0.7818608E-02  0.8631504E-01
         -2   -1    0    0    0  501 -0.00000000000E+00  0.00000000000E+00  0.54146744102E+03  0.54146744102E+03  0.00000000000E+00 0. -1.
          2   -1    0    0  501    0  0.00000000000E+00 -0.00000000000E+00 -0.17513816746E+04  0.17513816746E+04  0.00000000000E+00 0.  1.
         23    2    1    2    0    0 -0.21234904009E+03 -0.32522998045E+03  0.44234659546E+03  0.59554758018E+03  0.90220589263E+02 0.  0.
         11    1    3    3    0    0 -0.79514571521E+01 -0.41859572778E+02  0.88751395100E+02  0.98449274432E+02  0.00000000000E+00 0. -1.
        -11    1    3    3    0    0 -0.20439758294E+03 -0.28337040767E+03  0.35359520036E+03  0.49709830575E+03  0.00000000000E+00 0.  1.
         22    1    1    2    0    0  0.21234904009E+03  0.32522998045E+03 -0.16522608290E+04  0.16973015354E+04  0.00000000000E+00 0.  1.
<mgrwt>
<rscale>  0 0.19476305E+04</rscale>
<asrwt>0</asrwt>
<pdfrwt beam="1">  1        2 0.26944334E+00 0.19476305E+04</pdfrwt>
<pdfrwt beam="2">  1       -2 0.83302682E-01 0.19476305E+04</pdfrwt>
<totfact> 0.10806519E+01</totfact>
</mgrwt>
</event>
<event>
 6    1  0.2325157E-005  0.3800479E+04  0.7818608E-02  0.8046052E-01
          2   -1    0    0  501    0  0.00000000000E+00  0.00000000000E+00  0.24517421891E+04  0.24517421891E+04  0.00000000000E+00 0.  1.
         -2   -1    0    0    0  501 -0.00000000000E+00 -0.00000000000E+00 -0.14727932309E+04  0.14727932309E+04  0.00000000000E+00 0. -1.
         23    2    1    2    0    0  0.44330281502E+03 -0.87665770141E+03  0.21681819697E+04  0.23820305523E+04  0.89500765719E+02 0.  0.
         11    1    3    3    0    0  0.34680283793E+03 -0.62575796513E+03  0.16444769722E+04  0.17933626938E+04  0.00000000000E+00 0. -1.
        -11    1    3    3    0    0  0.96499977088E+02 -0.25089973629E+03  0.52370499749E+03  0.58866785851E+03  0.00000000000E+00 0.  1.
         22    1    1    2    0    0 -0.44330281502E+03  0.87665770141E+03 -0.11892330115E+04  0.15425048677E+04  0.00000000000E+00 0. -1.
<mgrwt>
<rscale>  0 0.38004785E+04</rscale>
<asrwt>0</asrwt>
<pdfrwt beam="1">  1        2 0.37719111E+00 0.38004785E+04</pdfrwt>
<pdfrwt beam="2">  1       -2 0.22658357E+00 0.38004785E+04</pdfrwt>
<totfact> 0.26734182E-01</totfact>
</mgrwt>
</event>
<event>
 6    1  0.2325157E-005  0.1427366E+04  0.7818608E-02  0.8934245E-01
          2   -1    0    0  501    0  0.00000000000E+00  0.00000000000E+00  0.14273626447E+04  0.14273626447E+04  0.00000000000E+00 0.  1.
         -2   -1    0    0    0  501 -0.00000000000E+00 -0.00000000000E+00 -0.35684220076E+03  0.35684220076E+03  0.00000000000E+00 0. -1.
         23    2    1    2    0    0  0.66405633246E+03 -0.12487666381E+03  0.26219677207E+03  0.73066217792E+03  0.92493659880E+02 0.  0.
         11    1    3    3    0    0  0.29887674801E+03 -0.83888632046E+02  0.80349526704E+02  0.32065660687E+03  0.00000000000E+00 0. -1.
        -11    1    3    3    0    0  0.36517958445E+03 -0.40988031763E+02  0.18184724537E+03  0.41000557106E+03  0.00000000000E+00 0.  1.
         22    1    1    2    0    0 -0.66405633246E+03  0.12487666381E+03  0.80832367188E+03  0.10535426676E+04  0.00000000000E+00 0.  1.
<mgrwt>
<rscale>  0 0.14273657E+04</rscale>
<asrwt>0</asrwt>
<pdfrwt beam="1">  1        2 0.21959425E+00 0.14273657E+04</pdfrwt>
<pdfrwt beam="2">  1       -2 0.54898801E-01 0.14273657E+04</pdfrwt>
<totfact> 0.42309633E+01</totfact>
</mgrwt>
</event>
<event>
 6    1  0.2325157E-005  0.2175481E+04  0.7818608E-02  0.8528703E-01
          2   -1    0    0  501    0  0.00000000000E+00  0.00000000000E+00  0.32460075440E+03  0.32460075440E+03  0.00000000000E+00 0.  1.
         -2   -1    0    0    0  501 -0.00000000000E+00 -0.00000000000E+00 -0.36450299256E+04  0.36450299256E+04  0.00000000000E+00 0. -1.
         23    2    1    2    0    0  0.59922766995E+03 -0.77147015122E+03 -0.79809070624E+03  0.12647404186E+04  0.91539916350E+02 0.  0.
         13    1    3    3    0    0  0.18963907397E+03 -0.21234339303E+03 -0.18613262517E+03  0.34014415928E+03  0.00000000000E+00 0. -1.
        -13    1    3    3    0    0  0.40958859598E+03 -0.55912675819E+03 -0.61195808107E+03  0.92459625928E+03  0.00000000000E+00 0.  1.
         22    1    1    2    0    0 -0.59922766995E+03  0.77147015122E+03 -0.25223384650E+04  0.27048902615E+04  0.00000000000E+00 0. -1.
<mgrwt>
<rscale>  0 0.21754811E+04</rscale>
<asrwt>0</asrwt>
<pdfrwt beam="1">  1        2 0.49938575E-01 0.21754811E+04</pdfrwt>
<pdfrwt beam="2">  1       -2 0.56077386E+00 0.21754811E+04</pdfrwt>
<totfact> 0.68420873E-02</totfact>
</mgrwt>
</event>
<event>
 6    1  0.2325157E-005  0.2433372E+04  0.7818608E-02  0.8427114E-01
         -2   -1    0    0    0  501 -0.00000000000E+00  0.00000000000E+00  0.94144408929E+03  0.94144408929E+03  0.00000000000E+00 0. -1.
          2   -1    0    0  501    0  0.00000000000E+00 -0.00000000000E+00 -0.15723983098E+04  0.15723983098E+04  0.00000000000E+00 0.  1.
         23    2    1    2    0    0  0.46528192666E+03  0.32244305990E+03 -0.14265079591E+04  0.15374395370E+04  0.91315794535E+02 0.  0.
         11    1    3    3    0    0  0.92734356524E+02  0.88925379104E+02 -0.24259042467E+03  0.27451320200E+03  0.00000000000E+00 0. -1.
        -11    1    3    3    0    0  0.37254757013E+03  0.23351768080E+03 -0.11839175344E+04  0.12629263350E+04  0.00000000000E+00 0.  1.
         22    1    1    2    0    0 -0.46528192666E+03 -0.32244305990E+03  0.79555373859E+03  0.97640286211E+03  0.00000000000E+00 0. -1.
<mgrwt>
<rscale>  0 0.24333722E+04</rscale>
<asrwt>0</asrwt>
<pdfrwt beam="1">  1        2 0.24190743E+00 0.24333722E+04</pdfrwt>
<pdfrwt beam="2">  1       -2 0.14483755E+00 0.24333722E+04</pdfrwt>
<totfact> 0.34064681E+00</totfact>
</mgrwt>
</event>
<event>
 6    1  0.2325157E-005  0.3840293E+04  0.7818608E-02  0.8037563E-01
         -2   -1    0    0    0  501 -0.00000000000E+00  0.00000000000E+00  0.27324155737E+04  0.27324155737E+04  0.00000000000E+00 0. -1.
          2   -1    0    0  501    0  0.00000000000E+00 -0.00000000000E+00 -0.13493419610E+04  0.13493419610E+04  0.00000000000E+00 0.  1.
         23    2    1    2    0    0  0.10456008539E+04  0.43351873346E+03  0.23391162574E+04  0.26001242547E+04  0.89228000800E+02 0.  0.
         13    1    3    3    0    0  0.74398507646E+03  0.27208838401E+03  0.16862691016E+04  0.18630752443E+04  0.00000000000E+00 0. -1.
        -13    1    3    3    0    0  0.30161577740E+03  0.16143034945E+03  0.65284715579E+03  0.73704901040E+03  0.00000000000E+00 0.  1.
         22    1    1    2    0    0 -0.10456008539E+04 -0.43351873346E+03 -0.95604264474E+03  0.14816332800E+04  0.00000000000E+00 0.  1.
<mgrwt>
<rscale>  0 0.38402932E+04</rscale>
<asrwt>0</asrwt>
<pdfrwt beam="1">  1        2 0.20759107E+00 0.38402932E+04</pdfrwt>
<pdfrwt beam="2">  1       -2 0.42037163E+00 0.38402932E+04</pdfrwt>
<totfact> 0.67386043E-02</totfact>
</mgrwt>
</event>
<event>
 6    1  0.2325157E-005  0.2508382E+04  0.7818608E-02  0.8400005E-01
          2   -1    0    0  501    0  0.00000000000E+00  0.00000000000E+00  0.13968802310E+04  0.13968802310E+04  0.00000000000E+00 0.  1.
         -2   -1    0    0    0  501 -0.00000000000E+00 -0.00000000000E+00 -0.11260772251E+04  0.11260772251E+04  0.00000000000E+00 0. -1.
         23    2    1    2    0    0 -0.95349543766E+03 -0.77580637142E+03  0.37733047616E+03  0.12891109594E+04  0.91649887142E+02 0.  0.
         13    1    3    3    0    0 -0.37410816739E+03 -0.36101431755E+03  0.17060166674E+03  0.54716833523E+03  0.00000000000E+00 0.  1.
        -13    1    3    3    0    0 -0.57938727027E+03 -0.41479205386E+03  0.20672880942E+03  0.74194262415E+03  0.00000000000E+00 0. -1.
         22    1    1    2    0    0  0.95349543766E+03  0.77580637142E+03 -0.10652747019E+03  0.12338464967E+04  0.00000000000E+00 0. -1.
<mgrwt>
<rscale>  0 0.25083820E+04</rscale>
<asrwt>0</asrwt>
<pdfrwt beam="1">  1        2 0.21490465E+00 0.25083820E+04</pdfrwt>
<pdfrwt beam="2">  1       -2 0.17324265E+00 0.25083820E+04</pdfrwt>
<totfact> 0.26183471E+00</totfact>
</mgrwt>
</event>
<event>
 6    1  0.2325157E-005  0.1969269E+04  0.7818608E-02  0.8621125E-01
         -2   -1    0    0    0  501 -0.00000000000E+00  0.00000000000E+00  0.34987792355E+03  0.34987792355E+03  0.00000000000E+00 0. -1.
          2   -1    0    0  501    0  0.00000000000E+00 -0.00000000000E+00 -0.27709803839E+04  0.27709803839E+04  0.00000000000E+00 0.  1.
         23    2    1    2    0    0 -0.76493457690E+03  0.23542574638E+03 -0.21163890576E+04  0.22644702840E+04  0.90403733343E+02 0.  0.
         11    1    3    3    0    0 -0.54922303930E+03  0.16442397956E+03 -0.13961407099E+04  0.15092680589E+04  0.00000000000E+00 0. -1.
        -11    1    3    3    0    0 -0.21571153759E+03  0.71001766817E+02 -0.72024834768E+03  0.75520222502E+03  0.00000000000E+00 0.  1.
         22    1    1    2    0    0  0.76493457690E+03 -0.23542574638E+03 -0.30471340284E+03  0.85638802354E+03  0.00000000000E+00 0. -1.
<mgrwt>
<rscale>  0 0.19692688E+04</rscale>
<asrwt>0</asrwt>
<pdfrwt beam="1">  1        2 0.42630466E+00 0.19692688E+04</pdfrwt>
<pdfrwt beam="2">  1       -2 0.53827375E-01 0.19692688E+04</pdfrwt>
<totfact> 0.73020656E+00</totfact>
</mgrwt>
</event>
<event>
 6    1  0.2325157E-005  0.2330696E+04  0.7818608E-02  0.8465916E-01
         -2   -1    0    0    0  501 -0.00000000000E+00  0.00000000000E+00  0.43379835758E+03  0.43379835758E+03  0.00000000000E+00 0. -1.
          2   -1    0    0  501    0  0.00000000000E+00 -0.00000000000E+00 -0.31305693164E+04  0.31305693164E+04  0.00000000000E+00 0.  1.
         23    2    1    2    0    0 -0.89217531204E+03 -0.34344342071E+03 -0.33301372670E+03  0.10146072101E+04  0.67819451654E+02 0.  0.
         11    1    3    3    0    0 -0.74055198976E+03 -0.26558297548E+03 -0.29302717752E+03  0.83953349734E+03  0.00000000000E+00 0.  1.
        -11    1    3    3    0    0 -0.15162332228E+03 -0.77860445226E+02 -0.39986549185E+02  0.17507371278E+03  0.00000000000E+00 0. -1.
         22    1    1    2    0    0  0.89217531204E+03  0.34344342071E+03 -0.23637572321E+04  0.25497604639E+04  0.00000000000E+00 0.  1.
<mgrwt>
<rscale>  0 0.23306959E+04</rscale>
<asrwt>0</asrwt>
<pdfrwt beam="1">  1        2 0.48162604E+00 0.23306959E+04</pdfrwt>
<pdfrwt beam="2">  1       -2 0.66738210E-01 0.23306959E+04</pdfrwt>
<totfact> 0.26854287E+00</totfact>
</mgrwt>
</event>
<event>
 6    1  0.2325157E-005  0.1099765E+04  0.7818608E-02  0.9205421E-01
         -2   -1    0    0    0  501 -0.00000000000E+00  0.00000000000E+00  0.39553517449E+03  0.39553517449E+03  0.00000000000E+00 0. -1.
          2   -1    0    0  501    0  0.00000000000E+00 -0.00000000000E+00 -0.76445984550E+03  0.76445984550E+03  0.00000000000E+00 0.  1.
         23    2    1    2    0    0 -0.37458508015E+03 -0.11719373130E+03  0.21451156538E+03  0.45682633834E+03  0.92880238989E+02 0.  0.
         13    1    3    3    0    0 -0.22597586285E+03 -0.90377679299E+02  0.84715622211E+02  0.25770128473E+03  0.00000000000E+00 0.  1.
        -13    1    3    3    0    0 -0.14860921730E+03 -0.26816051999E+02  0.12979594317E+03  0.19912505361E+03  0.00000000000E+00 0. -1.
         22    1    1    2    0    0  0.37458508015E+03  0.11719373130E+03 -0.58343623639E+03  0.70316868166E+03  0.00000000000E+00 0.  1.
<mgrwt>
<rscale>  0 0.10997650E+04</rscale>
<asrwt>0</asrwt>
<pdfrwt beam="1">  1        2 0.11760921E+00 0.10997650E+04</pdfrwt>
<pdfrwt beam="2">  1       -2 0.60851566E-01 0.10997650E+04</pdfrwt>
<totfact> 0.91326881E+01</totfact>
</mgrwt>
</event>
<event>
 6    1  0.2325157E-005  0.1266215E+04  0.7818608E-02  0.9056794E-01
         -2   -1    0    0    0  501 -0.00000000000E+00  0.00000000000E+00  0.31870436825E+03  0.31870436825E+03  0.00000000000E+00 0. -1.
          2   -1    0    0  501    0  0.00000000000E+00 -0.00000000000E+00 -0.12576706971E+04  0.12576706971E+04  0.00000000000E+00 0.  1.
         23    2    1    2    0    0 -0.36626930836E+01  0.56878274084E+03 -0.13507359119E+03  0.59160567344E+03  0.90692757207E+02 0.  0.
         13    1    3    3    0    0 -0.39096275434E+02  0.15137936066E+03 -0.50025478373E+02  0.16415473820E+03  0.00000000000E+00 0.  1.
        -13    1    3    3    0    0  0.35433582351E+02  0.41740338018E+03 -0.85048112820E+02  0.42745093524E+03  0.00000000000E+00 0. -1.
         22    1    1    2    0    0  0.36626930836E+01 -0.56878274084E+03 -0.80389273766E+03  0.98476939191E+03  0.00000000000E+00 0.  1.
<mgrwt>
<rscale>  0 0.12662151E+04</rscale>
<asrwt>0</asrwt>
<pdfrwt beam="1">  1        2 0.19348780E+00 0.12662151E+04</pdfrwt>
<pdfrwt beam="2">  1       -2 0.49031441E-01 0.12662151E+04</pdfrwt>
<totfact> 0.67704649E+01</totfact>
</mgrwt>
</event>
<event>
 6    1  0.2325157E-005  0.2697335E+04  0.7818608E-02  0.8335870E-01
          2   -1    0    0  501    0  0.00000000000E+00  0.00000000000E+00  0.19398682679E+04  0.19398682679E+04  0.00000000000E+00 0.  1.
         -2   -1    0    0    0  501 -0.00000000000E+00 -0.00000000000E+00 -0.93764282086E+03  0.93764282086E+03  0.00000000000E+00 0. -1.
         23    2    1    2    0    0 -0.12966869528E+04 -0.13559436435E+02  0.11227704220E+03  0.13047463017E+04  0.90420493814E+02 0.  0.
         13    1    3    3    0    0 -0.38012572722E+03  0.25713308734E+02  0.43674643766E+01  0.38101944502E+03  0.00000000000E+00 0.  1.
        -13    1    3    3    0    0 -0.91656122563E+03 -0.39272745168E+02  0.10790957783E+03  0.92372685672E+03  0.00000000000E+00 0. -1.
         22    1    1    2    0    0  0.12966869528E+04  0.13559436435E+02  0.88994840483E+03  0.15727647870E+04  0.00000000000E+00 0.  1.
<mgrwt>
<rscale>  0 0.26973347E+04</rscale>
<asrwt>0</asrwt>
<pdfrwt beam="1">  1        2 0.29844127E+00 0.26973347E+04</pdfrwt>
<pdfrwt beam="2">  1       -2 0.14425274E+00 0.26973347E+04</pdfrwt>
<totfact> 0.21033520E+00</totfact>
</mgrwt>
</event>
<event>
 6    1  0.2325157E-005  0.3844391E+04  0.7818608E-02  0.8036695E-01
          2   -1    0    0  501    0  0.00000000000E+00  0.00000000000E+00  0.24943382140E+04  0.24943382140E+04  0.00000000000E+00 0.  1.
         -2   -1    0    0    0  501 -0.00000000000E+00 -0.00000000000E+00 -0.14812888025E+04  0.14812888025E+04  0.00000000000E+00 0. -1.
         23    2    1    2    0    0  0.82227562398E+03  0.63774599156E+03  0.21767906719E+04  0.24144893312E+04  0.92108359774E+02 0.  0.
         11    1    3    3    0    0  0.63687840132E+03  0.44365058328E+03  0.16034797799E+04  0.17814565228E+04  0.00000000000E+00 0.  1.
        -11    1    3    3    0    0  0.18539722266E+03  0.19409540828E+03  0.57331089199E+03  0.63303280844E+03  0.00000000000E+00 0. -1.
         22    1    1    2    0    0 -0.82227562398E+03 -0.63774599156E+03 -0.11637412604E+04  0.15611376854E+04  0.00000000000E+00 0. -1.
<mgrwt>
<rscale>  0 0.38443909E+04</rscale>
<asrwt>0</asrwt>
<pdfrwt beam="1">  1        2 0.38374434E+00 0.38443909E+04</pdfrwt>
<pdfrwt beam="2">  1       -2 0.22789058E+00 0.38443909E+04</pdfrwt>
<totfact> 0.24698474E-01</totfact>
</mgrwt>
</event>
<event>
 6    1  0.2325157E-005  0.6298186E+03  0.7818608E-02  0.9845403E-01
          2   -1    0    0  501    0  0.00000000000E+00  0.00000000000E+00  0.18815000773E+04  0.18815000773E+04  0.00000000000E+00 0. -1.
         -2   -1    0    0    0  501 -0.00000000000E+00 -0.00000000000E+00 -0.52706815194E+02  0.52706815194E+02  0.00000000000E+00 0.  1.
         23    2    1    2    0    0  0.23395339228E+03 -0.99215053752E+01  0.15447854008E+04  0.15661130304E+04  0.10731012759E+03 0.  0.
         11    1    3    3    0    0  0.49762531282E+02 -0.45457592204E+02  0.31757589819E+03  0.32464927741E+03  0.00000000000E+00 0.  1.
        -11    1    3    3    0    0  0.18419086100E+03  0.35536086828E+02  0.12272095026E+04  0.12414637530E+04  0.00000000000E+00 0. -1.
         22    1    1    2    0    0 -0.23395339228E+03  0.99215053752E+01  0.28400786140E+03  0.36809386217E+03  0.00000000000E+00 0.  1.
<mgrwt>
<rscale>  0 0.62981863E+03</rscale>
<asrwt>0</asrwt>
<pdfrwt beam="1">  1        2 0.28946150E+00 0.62981863E+03</pdfrwt>
<pdfrwt beam="2">  1       -2 0.81087423E-02 0.62981863E+03</pdfrwt>
<totfact> 0.76968149E+02</totfact>
</mgrwt>
</event>
<event>
 6    1  0.2325157E-005  0.3869173E+04  0.7818608E-02  0.8031471E-01
          2   -1    0    0  501    0  0.00000000000E+00  0.00000000000E+00  0.25325670940E+04  0.25325670940E+04  0.00000000000E+00 0.  1.
         -2   -1    0    0    0  501 -0.00000000000E+00 -0.00000000000E+00 -0.14777991778E+04  0.14777991778E+04  0.00000000000E+00 0. -1.
         23    2    1    2    0    0 -0.12754702185E+04 -0.14038245262E+04  0.91675427378E+03  0.21086314470E+04  0.91326898437E+02 0.  0.
         13    1    3    3    0    0 -0.11440643330E+04 -0.12804980872E+04  0.85421973974E+03  0.19178764072E+04  0.00000000000E+00 0. -1.
        -13    1    3    3    0    0 -0.13140588546E+03 -0.12332643899E+03  0.62534534034E+02  0.19075503987E+03  0.00000000000E+00 0.  1.
         22    1    1    2    0    0  0.12754702185E+04  0.14038245262E+04  0.13801364240E+03  0.19017348248E+04  0.00000000000E+00 0. -1.
<mgrwt>
<rscale>  0 0.38691733E+04</rscale>
<asrwt>0</asrwt>
<pdfrwt beam="1">  1        2 0.38962571E+00 0.38691733E+04</pdfrwt>
<pdfrwt beam="2">  1       -2 0.22735372E+00 0.38691733E+04</pdfrwt>
<totfact> 0.23601068E-01</totfact>
</mgrwt>
</event>
<event>
 6    1  0.2325157E-005  0.1339448E+04  0.7818608E-02  0.8998855E-01
         -2   -1    0    0    0  501 -0.00000000000E+00  0.00000000000E+00  0.36026543636E+03  0.36026543636E+03  0.00000000000E+00 0. -1.
          2   -1    0    0  501    0  0.00000000000E+00 -0.00000000000E+00 -0.12449988873E+04  0.12449988873E+04  0.00000000000E+00 0.  1.
         23    2    1    2    0    0 -0.16623767360E+03  0.63184146487E+03 -0.28759269636E+03  0.72014530248E+03  0.95084682448E+02 0.  0.
         13    1    3    3    0    0 -0.62303922248E+02  0.27123926254E+03 -0.72491003373E+02  0.28758905028E+03  0.00000000000E+00 0. -1.
        -13    1    3    3    0    0 -0.10393375135E+03  0.36060220233E+03 -0.21510169298E+03  0.43255625221E+03  0.00000000000E+00 0.  1.
         22    1    1    2    0    0  0.16623767360E+03 -0.63184146487E+03 -0.59714075457E+03  0.88511902116E+03  0.00000000000E+00 0. -1.
<mgrwt>
<rscale>  0 0.13394477E+04</rscale>
<asrwt>0</asrwt>
<pdfrwt beam="1">  1        2 0.19153829E+00 0.13394477E+04</pdfrwt>
<pdfrwt beam="2">  1       -2 0.55425452E-01 0.13394477E+04</pdfrwt>
<totfact> 0.53252229E+01</totfact>
</mgrwt>
</event>
<event>
 6    1  0.2325157E-005  0.3218867E+04  0.7818608E-02  0.8183852E-01
         -2   -1    0    0    0  501 -0.00000000000E+00  0.00000000000E+00  0.18483250957E+04  0.18483250957E+04  0.00000000000E+00 0. -1.
          2   -1    0    0  501    0  0.00000000000E+00 -0.00000000000E+00 -0.14014182909E+04  0.14014182909E+04  0.00000000000E+00 0.  1.
         23    2    1    2    0    0 -0.35615279565E+03 -0.91972700951E+03 -0.10582870797E+04  0.14502014405E+04  0.10183363429E+03 0.  0.
         13    1    3    3    0    0 -0.75712601349E+02 -0.32880764360E+03 -0.35584888716E+03  0.49038280453E+03  0.00000000000E+00 0. -1.
        -13    1    3    3    0    0 -0.28044019430E+03 -0.59091936591E+03 -0.70243819257E+03  0.95981863597E+03  0.00000000000E+00 0.  1.
         22    1    1    2    0    0  0.35615279565E+03  0.91972700951E+03  0.15051938845E+04  0.17995419461E+04  0.00000000000E+00 0. -1.
<mgrwt>
<rscale>  0 0.32188673E+04</rscale>
<asrwt>0</asrwt>
<pdfrwt beam="1">  1        2 0.21560281E+00 0.32188673E+04</pdfrwt>
<pdfrwt beam="2">  1       -2 0.28435771E+00 0.32188673E+04</pdfrwt>
<totfact> 0.48099803E-01</totfact>
</mgrwt>
</event>
<event>
 6    1  0.2325157E-005  0.3104536E+04  0.7818608E-02  0.8214494E-01
          2   -1    0    0  501    0  0.00000000000E+00  0.00000000000E+00  0.13528908902E+04  0.13528908902E+04  0.00000000000E+00 0.  1.
         -2   -1    0    0    0  501 -0.00000000000E+00 -0.00000000000E+00 -0.17810280071E+04  0.17810280071E+04  0.00000000000E+00 0. -1.
         23    2    1    2    0    0  0.23501422459E+03 -0.15327892299E+04 -0.24074875446E+03  0.15719365327E+04  0.91378285172E+02 0.  0.
         11    1    3    3    0    0  0.16192264530E+03 -0.12532833524E+04 -0.21534453747E+03  0.12819170700E+04  0.00000000000E+00 0. -1.
        -11    1    3    3    0    0  0.73091579288E+02 -0.27950587745E+03 -0.25404216998E+02  0.29001946268E+03  0.00000000000E+00 0.  1.
         22    1    1    2    0    0 -0.23501422459E+03  0.15327892299E+04 -0.18738836241E+03  0.15619823646E+04  0.00000000000E+00 0.  1.
<mgrwt>
<rscale>  0 0.31045364E+04</rscale>
<asrwt>0</asrwt>
<pdfrwt beam="1">  1        2 0.20813706E+00 0.31045364E+04</pdfrwt>
<pdfrwt beam="2">  1       -2 0.27400431E+00 0.31045364E+04</pdfrwt>
<totfact> 0.59886509E-01</totfact>
</mgrwt>
</event>
<event>
 6    1  0.2325157E-005  0.2230326E+04  0.7818608E-02  0.8505911E-01
          4   -1    0    0  501    0  0.00000000000E+00  0.00000000000E+00  0.65203759508E+03  0.65203759508E+03  0.00000000000E+00 0.  1.
         -4   -1    0    0    0  501 -0.00000000000E+00 -0.00000000000E+00 -0.19072350101E+04  0.19072350101E+04  0.00000000000E+00 0. -1.
         23    2    1    2    0    0  0.16048298951E+03 -0.63264474285E+03  0.40640764696E+03  0.77407638556E+03  0.89626528459E+02 0.  0.
         13    1    3    3    0    0  0.14482667797E+03 -0.60131137677E+03  0.35903860965E+03  0.71516352095E+03  0.00000000000E+00 0.  1.
        -13    1    3    3    0    0  0.15656311539E+02 -0.31333366083E+02  0.47369037311E+02  0.58912864613E+02  0.00000000000E+00 0. -1.
         22    1    1    2    0    0 -0.16048298951E+03  0.63264474285E+03 -0.16616050620E+04  0.17851962197E+04  0.00000000000E+00 0. -1.
<mgrwt>
<rscale>  0 0.22303264E+04</rscale>
<asrwt>0</asrwt>
<pdfrwt beam="1">  1        4 0.10031348E+00 0.22303264E+04</pdfrwt>
<pdfrwt beam="2">  1       -4 0.29342077E+00 0.22303264E+04</pdfrwt>
<totfact> 0.50731936E-02</totfact>
</mgrwt>
</event>
<event>
 6    1  0.2325157E-005  0.2964854E+04  0.7818608E-02  0.8253839E-01
         -2   -1    0    0    0  501 -0.00000000000E+00  0.00000000000E+00  0.18192487203E+04  0.18192487203E+04  0.00000000000E+00 0. -1.
          2   -1    0    0  501    0  0.00000000000E+00 -0.00000000000E+00 -0.12079653253E+04  0.12079653253E+04  0.00000000000E+00 0.  1.
         23    2    1    2    0    0 -0.10087905288E+04 -0.10627623023E+04  0.52585055553E+03  0.15594195053E+04  0.90268180757E+02 0.  0.
         13    1    3    3    0    0 -0.57189882778E+03 -0.56124843297E+03  0.25028719822E+03  0.83947111584E+03  0.00000000000E+00 0. -1.
        -13    1    3    3    0    0 -0.43689170104E+03 -0.50151386936E+03  0.27556335730E+03  0.71994838946E+03  0.00000000000E+00 0.  1.
         22    1    1    2    0    0  0.10087905288E+04  0.10627623023E+04  0.85432839468E+02  0.14677945402E+04  0.00000000000E+00 0.  1.
<mgrwt>
<rscale>  0 0.29648537E+04</rscale>
<asrwt>0</asrwt>
<pdfrwt beam="1">  1        2 0.18584082E+00 0.29648537E+04</pdfrwt>
<pdfrwt beam="2">  1       -2 0.27988442E+00 0.29648537E+04</pdfrwt>
<totfact> 0.67837839E-01</totfact>
</mgrwt>
</event>
<event>
 6    1  0.2325157E-005  0.1401504E+04  0.7818608E-02  0.8952731E-01
         -2   -1    0    0    0  501 -0.00000000000E+00  0.00000000000E+00  0.34218867359E+03  0.34218867359E+03  0.00000000000E+00 0. -1.
          2   -1    0    0  501    0  0.00000000000E+00 -0.00000000000E+00 -0.14350369899E+04  0.14350369899E+04  0.00000000000E+00 0.  1.
         23    2    1    2    0    0  0.32418613409E+03 -0.45006894957E+03 -0.11790807694E+02  0.56217667441E+03  0.90801328213E+02 0.  0.
         13    1    3    3    0    0  0.37535906813E+02 -0.88533989255E+02  0.24904413475E+02  0.99334995667E+02  0.00000000000E+00 0. -1.
        -13    1    3    3    0    0  0.28665022728E+03 -0.36153496031E+03 -0.36695221168E+02  0.46284167875E+03  0.00000000000E+00 0.  1.
         22    1    1    2    0    0 -0.32418613409E+03  0.45006894957E+03 -0.10810575086E+04  0.12150489891E+04  0.00000000000E+00 0.  1.
<mgrwt>
<rscale>  0 0.14015041E+04</rscale>
<asrwt>0</asrwt>
<pdfrwt beam="1">  1        2 0.22077492E+00 0.14015041E+04</pdfrwt>
<pdfrwt beam="2">  1       -2 0.52644412E-01 0.14015041E+04</pdfrwt>
<totfact> 0.45771810E+01</totfact>
</mgrwt>
</event>
<event>
 6    1  0.2325157E-005  0.2754951E+04  0.7818608E-02  0.8317392E-01
         -2   -1    0    0    0  501 -0.00000000000E+00  0.00000000000E+00  0.20661365524E+04  0.20661365524E+04  0.00000000000E+00 0. -1.
          2   -1    0    0  501    0  0.00000000000E+00 -0.00000000000E+00 -0.91835079215E+03  0.91835079215E+03  0.00000000000E+00 0.  1.
         23    2    1    2    0    0 -0.11723752000E+04 -0.13819853779E+03  0.13401705431E+04  0.17884211465E+04  0.93971629398E+02 0.  0.
         11    1    3    3    0    0 -0.17323510298E+03 -0.66241483132E+01  0.24505426445E+03  0.30017640276E+03  0.00000000000E+00 0.  1.
        -11    1    3    3    0    0 -0.99914009705E+03 -0.13157438948E+03  0.10951162787E+04  0.14882447438E+04  0.00000000000E+00 0. -1.
         22    1    1    2    0    0  0.11723752000E+04  0.13819853779E+03 -0.19238478284E+03  0.11960661981E+04  0.00000000000E+00 0.  1.
<mgrwt>
<rscale>  0 0.27549506E+04</rscale>
<asrwt>0</asrwt>
<pdfrwt beam="1">  1        2 0.14128474E+00 0.27549506E+04</pdfrwt>
<pdfrwt beam="2">  1       -2 0.31786716E+00 0.27549506E+04</pdfrwt>
<totfact> 0.61431995E-01</totfact>
</mgrwt>
</event>
<event>
 6    1  0.2325157E-005  0.1527677E+04  0.7818608E-02  0.8866254E-01
          2   -1    0    0  501    0  0.00000000000E+00  0.00000000000E+00  0.10855203839E+04  0.10855203839E+04  0.00000000000E+00 0.  1.
         -2   -1    0    0    0  501 -0.00000000000E+00 -0.00000000000E+00 -0.53748315433E+03  0.53748315433E+03  0.00000000000E+00 0. -1.
         23    2    1    2    0    0  0.13408132301E+03 -0.74145797831E+03  0.38961615760E+03  0.85304576610E+03  0.90269563039E+02 0.  0.
         13    1    3    3    0    0  0.20345112483E+02 -0.35176200893E+03  0.16460546241E+03  0.38890280635E+03  0.00000000000E+00 0. -1.
        -13    1    3    3    0    0  0.11373621052E+03 -0.38969596938E+03  0.22501069519E+03  0.46414295975E+03  0.00000000000E+00 0.  1.
         22    1    1    2    0    0 -0.13408132301E+03  0.74145797831E+03  0.15842107194E+03  0.76995777210E+03  0.00000000000E+00 0. -1.
<mgrwt>
<rscale>  0 0.15276766E+04</rscale>
<asrwt>0</asrwt>
<pdfrwt beam="1">  1        2 0.16700314E+00 0.15276766E+04</pdfrwt>
<pdfrwt beam="2">  1       -2 0.82689716E-01 0.15276766E+04</pdfrwt>
<totfact> 0.27514142E+01</totfact>
</mgrwt>
</event>
<event>
 6    1  0.2325157E-005  0.1445047E+04  0.7818608E-02  0.8921842E-01
         -2   -1    0    0    0  501 -0.00000000000E+00  0.00000000000E+00  0.14156094382E+03  0.14156094382E+03  0.00000000000E+00 0. -1.
          2   -1    0    0  501    0  0.00000000000E+00 -0.00000000000E+00 -0.36877404234E+04  0.36877404234E+04  0.00000000000E+00 0.  1.
         23    2    1    2    0    0  0.55432682721E+02 -0.58346547125E+03 -0.67377362018E+03  0.89771132775E+03  0.91706042714E+02 0.  0.
         11    1    3    3    0    0  0.71970813317E+02 -0.28068878386E+03 -0.31682969616E+03  0.42935655080E+03  0.00000000000E+00 0. -1.
        -11    1    3    3    0    0 -0.16538130596E+02 -0.30277668739E+03 -0.35694392402E+03  0.46835477694E+03  0.00000000000E+00 0.  1.
         22    1    1    2    0    0 -0.55432682721E+02  0.58346547125E+03 -0.28724058594E+04  0.29315900395E+04  0.00000000000E+00 0.  1.
<mgrwt>
<rscale>  0 0.14450467E+04</rscale>
<asrwt>0</asrwt>
<pdfrwt beam="1">  1        2 0.56734469E+00 0.14450467E+04</pdfrwt>
<pdfrwt beam="2">  1       -2 0.21778606E-01 0.14450467E+04</pdfrwt>
<totfact> 0.10836641E+01</totfact>
</mgrwt>
</event>
<event>
 6    1  0.2325157E-005  0.7981518E+04  0.7818608E-02  0.7483894E-01
          2   -1    0    0  501    0  0.00000000000E+00  0.00000000000E+00  0.40336316000E+04  0.40336316000E+04  0.00000000000E+00 0. -1.
         -2   -1    0    0    0  501 -0.00000000000E+00 -0.00000000000E+00 -0.39483421672E+04  0.39483421672E+04  0.00000000000E+00 0.  1.
         23    2    1    2    0    0 -0.23538932210E+04 -0.26617913144E+04  0.18582125074E+04  0.40109282467E+04  0.92980539545E+02 0.  0.
         11    1    3    3    0    0 -0.16296573337E+03 -0.17884706986E+03  0.15320989018E+03  0.28638675790E+03  0.00000000000E+00 0.  1.
        -11    1    3    3    0    0 -0.21909274876E+04 -0.24829442445E+04  0.17050026172E+04  0.37245414888E+04  0.00000000000E+00 0. -1.
         22    1    1    2    0    0  0.23538932210E+04  0.26617913144E+04 -0.17729230747E+04  0.39710455205E+04  0.00000000000E+00 0.  1.
<mgrwt>
<rscale>  0 0.79815181E+04</rscale>
<asrwt>0</asrwt>
<pdfrwt beam="1">  1        2 0.62055871E+00 0.79815181E+04</pdfrwt>
<pdfrwt beam="2">  1       -2 0.60743726E+00 0.79815181E+04</pdfrwt>
<totfact> 0.91141951E-05</totfact>
</mgrwt>
</event>
<event>
 6    1  0.2325157E-005  0.1188830E+04  0.7818608E-02  0.9122690E-01
         -2   -1    0    0    0  501 -0.00000000000E+00  0.00000000000E+00  0.43177000010E+03  0.43177000010E+03  0.00000000000E+00 0. -1.
          2   -1    0    0  501    0  0.00000000000E+00 -0.00000000000E+00 -0.81832761380E+03  0.81832761380E+03  0.00000000000E+00 0.  1.
         23    2    1    2    0    0 -0.15998889143E+03 -0.53799885291E+03 -0.78082457799E+00  0.56902277063E+03  0.93525893149E+02 0.  0.
         13    1    3    3    0    0 -0.74046660288E+02 -0.15630938150E+03 -0.34353233153E+02  0.17633965882E+03  0.00000000000E+00 0.  1.
        -13    1    3    3    0    0 -0.85942231137E+02 -0.38168947141E+03  0.33572408575E+02  0.39268311181E+03  0.00000000000E+00 0. -1.
         22    1    1    2    0    0  0.15998889143E+03  0.53799885291E+03 -0.38577678912E+03  0.68107484327E+03  0.00000000000E+00 0.  1.
<mgrwt>
<rscale>  0 0.11888302E+04</rscale>
<asrwt>0</asrwt>
<pdfrwt beam="1">  1        2 0.12589655E+00 0.11888302E+04</pdfrwt>
<pdfrwt beam="2">  1       -2 0.66426155E-01 0.11888302E+04</pdfrwt>
<totfact> 0.68770518E+01</totfact>
</mgrwt>
</event>
<event>
 6    1  0.2325157E-005  0.4490436E+04  0.7818608E-02  0.7912313E-01
         -2   -1    0    0    0  501 -0.00000000000E+00  0.00000000000E+00  0.24141820316E+04  0.24141820316E+04  0.00000000000E+00 0. -1.
          2   -1    0    0  501    0  0.00000000000E+00 -0.00000000000E+00 -0.20880796672E+04  0.20880796672E+04  0.00000000000E+00 0.  1.
         23    2    1    2    0    0 -0.80473783202E+02  0.21003671360E+04 -0.62585638783E+03  0.21948294460E+04  0.86959432928E+02 0.  0.
         13    1    3    3    0    0 -0.35993611038E+02  0.12656042663E+04 -0.41931625949E+03  0.13337450373E+04  0.00000000000E+00 0.  1.
        -13    1    3    3    0    0 -0.44480172165E+02  0.83476286965E+03 -0.20654012835E+03  0.86108440868E+03  0.00000000000E+00 0. -1.
         22    1    1    2    0    0  0.80473783202E+02 -0.21003671360E+04  0.95195875218E+03  0.23074322529E+04  0.00000000000E+00 0. -1.
<mgrwt>
<rscale>  0 0.44904362E+04</rscale>
<asrwt>0</asrwt>
<pdfrwt beam="1">  1        2 0.32124303E+00 0.44904362E+04</pdfrwt>
<pdfrwt beam="2">  1       -2 0.37141262E+00 0.44904362E+04</pdfrwt>
<totfact> 0.51444382E-02</totfact>
</mgrwt>
</event>
<event>
 6    1  0.2325157E-005  0.4489062E+04  0.7818608E-02  0.7912554E-01
         -2   -1    0    0    0  501 -0.00000000000E+00  0.00000000000E+00  0.20347530997E+04  0.20347530997E+04  0.00000000000E+00 0. -1.
          2   -1    0    0  501    0  0.00000000000E+00 -0.00000000000E+00 -0.24759367955E+04  0.24759367955E+04  0.00000000000E+00 0.  1.
         23    2    1    2    0    0  0.23730946470E+03  0.78363289482E+03 -0.23196201083E+04  0.24615633370E+04  0.90886298821E+02 0.  0.
         11    1    3    3    0    0  0.15128329761E+03  0.51872509566E+03 -0.16538612230E+04  0.17398906018E+04  0.00000000000E+00 0.  1.
        -11    1    3    3    0    0  0.86026167090E+02  0.26490779916E+03 -0.66575888525E+03  0.72167273522E+03  0.00000000000E+00 0. -1.
         22    1    1    2    0    0 -0.23730946470E+03 -0.78363289482E+03  0.18784364125E+04  0.20491265582E+04  0.00000000000E+00 0. -1.
<mgrwt>
<rscale>  0 0.44890623E+04</rscale>
<asrwt>0</asrwt>
<pdfrwt beam="1">  1        2 0.38091335E+00 0.44890623E+04</pdfrwt>
<pdfrwt beam="2">  1       -2 0.31303894E+00 0.44890623E+04</pdfrwt>
<totfact> 0.72057572E-02</totfact>
</mgrwt>
</event>
<event>
 6    1  0.2325157E-005  0.1216740E+04  0.7818608E-02  0.9098329E-01
          1   -1    0    0  501    0  0.00000000000E+00  0.00000000000E+00  0.65016535062E+03  0.65016535062E+03  0.00000000000E+00 0.  1.
         -1   -1    0    0    0  501 -0.00000000000E+00 -0.00000000000E+00 -0.56926124269E+03  0.56926124269E+03  0.00000000000E+00 0. -1.
         23    2    1    2    0    0 -0.11943172595E+03 -0.33089336269E+03  0.53433587545E+03  0.64553224550E+03  0.86271070218E+02 0.  0.
         13    1    3    3    0    0 -0.47718441466E+02 -0.54392846593E+02  0.72036409940E+02  0.10210228094E+03  0.00000000000E+00 0. -1.
        -13    1    3    3    0    0 -0.71713284485E+02 -0.27650051610E+03  0.46229946551E+03  0.54342996456E+03  0.00000000000E+00 0.  1.
         22    1    1    2    0    0  0.11943172595E+03  0.33089336269E+03 -0.45343176752E+03  0.57389434780E+03  0.00000000000E+00 0. -1.
<mgrwt>
<rscale>  0 0.12167398E+04</rscale>
<asrwt>0</asrwt>
<pdfrwt beam="1">  1        1 0.10002544E+00 0.12167398E+04</pdfrwt>
<pdfrwt beam="2">  1       -1 0.87578653E-01 0.12167398E+04</pdfrwt>
<totfact> 0.38624442E+01</totfact>
</mgrwt>
</event>
<event>
 6    1  0.2325157E-005  0.1623958E+04  0.7818608E-02  0.8805963E-01
          1   -1    0    0  501    0  0.00000000000E+00  0.00000000000E+00  0.68618746795E+03  0.68618746795E+03  0.00000000000E+00 0.  1.
         -1   -1    0    0    0  501 -0.00000000000E+00 -0.00000000000E+00 -0.96083110163E+03  0.96083110163E+03  0.00000000000E+00 0. -1.
         23    2    1    2    0    0 -0.12052571378E+03  0.64088096091E+03 -0.62402151991E+03  0.90720794440E+03  0.91479742716E+02 0.  0.
         13    1    3    3    0    0 -0.53979698991E+02  0.27707365487E+03 -0.33332862868E+03  0.43679696980E+03  0.00000000000E+00 0. -1.
        -13    1    3    3    0    0 -0.66546014787E+02  0.36380730604E+03 -0.29069289123E+03  0.47041097460E+03  0.00000000000E+00 0.  1.
         22    1    1    2    0    0  0.12052571378E+03 -0.64088096091E+03  0.34937788623E+03  0.73981062518E+03  0.00000000000E+00 0.  1.
<mgrwt>
<rscale>  0 0.16239584E+04</rscale>
<asrwt>0</asrwt>
<pdfrwt beam="1">  1        1 0.10556730E+00 0.16239584E+04</pdfrwt>
<pdfrwt beam="2">  1       -1 0.14782017E+00 0.16239584E+04</pdfrwt>
<totfact> 0.97603813E+00</totfact>
</mgrwt>
</event>
<event>
 6    1  0.2325157E-005  0.2738483E+04  0.7818608E-02  0.8322626E-01
          2   -1    0    0  501    0  0.00000000000E+00  0.00000000000E+00  0.21133478262E+04  0.21133478262E+04  0.00000000000E+00 0.  1.
         -2   -1    0    0    0  501 -0.00000000000E+00 -0.00000000000E+00 -0.88713357465E+03  0.88713357465E+03  0.00000000000E+00 0. -1.
         23    2    1    2    0    0 -0.11039261840E+04  0.33050289504E+03  0.14215560276E+04  0.18317027251E+04  0.80175744831E+02 0.  0.
         13    1    3    3    0    0 -0.59821209350E+03  0.16028296162E+03  0.82000592144E+03  0.10275981937E+04  0.00000000000E+00 0.  1.
        -13    1    3    3    0    0 -0.50571409054E+03  0.17021993342E+03  0.60155010612E+03  0.80410453132E+03  0.00000000000E+00 0. -1.
         22    1    1    2    0    0  0.11039261840E+04 -0.33050289504E+03 -0.19534177605E+03  0.11687786758E+04  0.00000000000E+00 0.  1.
<mgrwt>
<rscale>  0 0.27384827E+04</rscale>
<asrwt>0</asrwt>
<pdfrwt beam="1">  1        2 0.32513043E+00 0.27384827E+04</pdfrwt>
<pdfrwt beam="2">  1       -2 0.13648209E+00 0.27384827E+04</pdfrwt>
<totfact> 0.19377636E+00</totfact>
</mgrwt>
</event>
<event>
 6    1  0.2325157E-005  0.8078658E+03  0.7818608E-02  0.9548701E-01
         -2   -1    0    0    0  501 -0.00000000000E+00  0.00000000000E+00  0.24392213815E+03  0.24392213815E+03  0.00000000000E+00 0. -1.
          2   -1    0    0  501    0  0.00000000000E+00 -0.00000000000E+00 -0.66890925462E+03  0.66890925462E+03  0.00000000000E+00 0.  1.
         23    2    1    2    0    0 -0.57282138422E+02 -0.32129967866E+03  0.44231587422E+02  0.34127131808E+03  0.89414497297E+02 0.  0.
         13    1    3    3    0    0 -0.58747996396E+02 -0.22677424285E+03  0.67735601329E+02  0.24385650696E+03  0.00000000000E+00 0. -1.
        -13    1    3    3    0    0  0.14658579735E+01 -0.94525435814E+02 -0.23504013907E+02  0.97414811118E+02  0.00000000000E+00 0.  1.
         22    1    1    2    0    0  0.57282138422E+02  0.32129967866E+03 -0.46921870390E+03  0.57156007469E+03  0.00000000000E+00 0.  1.
<mgrwt>
<rscale>  0 0.80786577E+03</rscale>
<asrwt>0</asrwt>
<pdfrwt beam="1">  1        2 0.10290911E+00 0.80786577E+03</pdfrwt>
<pdfrwt beam="2">  1       -2 0.37526483E-01 0.80786577E+03</pdfrwt>
<totfact> 0.29213969E+02</totfact>
</mgrwt>
</event>
<event>
 6    1  0.2325157E-005  0.3400412E+04  0.7818608E-02  0.8137805E-01
          2   -1    0    0  501    0  0.00000000000E+00  0.00000000000E+00  0.14423516289E+04  0.14423516289E+04  0.00000000000E+00 0.  1.
         -2   -1    0    0    0  501 -0.00000000000E+00 -0.00000000000E+00 -0.20041581957E+04  0.20041581957E+04  0.00000000000E+00 0. -1.
         23    2    1    2    0    0 -0.85843653431E+03 -0.43547898949E+03  0.11378698926E+04  0.14931907773E+04  0.91189754149E+02 0.  0.
         11    1    3    3    0    0 -0.12994534278E+03 -0.92316170655E+02  0.22737370148E+03  0.27768123379E+03  0.00000000000E+00 0.  1.
        -11    1    3    3    0    0 -0.72849119153E+03 -0.34316281883E+03  0.91049619114E+03  0.12155095435E+04  0.00000000000E+00 0. -1.
         22    1    1    2    0    0  0.85843653431E+03  0.43547898949E+03 -0.16996764595E+04  0.19533190473E+04  0.00000000000E+00 0. -1.
<mgrwt>
<rscale>  0 0.34004122E+04</rscale>
<asrwt>0</asrwt>
<pdfrwt beam="1">  1        2 0.22190025E+00 0.34004122E+04</pdfrwt>
<pdfrwt beam="2">  1       -2 0.30833203E+00 0.34004122E+04</pdfrwt>
<totfact> 0.32030449E-01</totfact>
</mgrwt>
</event>
<event>
 6    1  0.2325157E-005  0.1438279E+04  0.7818608E-02  0.8926567E-01
         -2   -1    0    0    0  501 -0.00000000000E+00  0.00000000000E+00  0.54620869545E+03  0.54620869545E+03  0.00000000000E+00 0. -1.
          2   -1    0    0  501    0  0.00000000000E+00 -0.00000000000E+00 -0.94682019645E+03  0.94682019645E+03  0.00000000000E+00 0.  1.
         23    2    1    2    0    0 -0.54090208773E+03 -0.42548571284E+03 -0.40712035679E+03  0.80480252976E+03  0.91361735224E+02 0.  0.
         11    1    3    3    0    0 -0.41543273177E+03 -0.36757889971E+03 -0.34544822547E+03  0.65347768028E+03  0.00000000000E+00 0.  1.
        -11    1    3    3    0    0 -0.12546935596E+03 -0.57906813127E+02 -0.61672131320E+02  0.15132484949E+03  0.00000000000E+00 0. -1.
         22    1    1    2    0    0  0.54090208773E+03  0.42548571284E+03  0.65088557794E+01  0.68822636214E+03  0.00000000000E+00 0. -1.
<mgrwt>
<rscale>  0 0.14382787E+04</rscale>
<asrwt>0</asrwt>
<pdfrwt beam="1">  1        2 0.14566465E+00 0.14382787E+04</pdfrwt>
<pdfrwt beam="2">  1       -2 0.84032107E-01 0.14382787E+04</pdfrwt>
<totfact> 0.32757652E+01</totfact>
</mgrwt>
</event>
<event>
 6    1  0.2325157E-005  0.2687410E+04  0.7818608E-02  0.8339102E-01
          1   -1    0    0  501    0  0.00000000000E+00  0.00000000000E+00  0.14523907705E+04  0.14523907705E+04  0.00000000000E+00 0.  1.
         -1   -1    0    0    0  501 -0.00000000000E+00 -0.00000000000E+00 -0.12431522940E+04  0.12431522940E+04  0.00000000000E+00 0. -1.
         23    2    1    2    0    0 -0.10934080896E+04  0.98058049323E+02  0.87924161720E+03  0.14094400982E+04  0.91098504116E+02 0.  0.
         13    1    3    3    0    0 -0.80159631206E+03  0.64775517277E+02  0.69352017342E+03  0.10619429109E+04  0.00000000000E+00 0.  1.
        -13    1    3    3    0    0 -0.29181177754E+03  0.33282532046E+02  0.18572144378E+03  0.34749718723E+03  0.00000000000E+00 0. -1.
         22    1    1    2    0    0  0.10934080896E+04 -0.98058049323E+02 -0.67000314064E+03  0.12861029663E+04  0.00000000000E+00 0. -1.
<mgrwt>
<rscale>  0 0.26874098E+04</rscale>
<asrwt>0</asrwt>
<pdfrwt beam="1">  1        1 0.22344473E+00 0.26874098E+04</pdfrwt>
<pdfrwt beam="2">  1       -1 0.19125420E+00 0.26874098E+04</pdfrwt>
<totfact> 0.10686540E+00</totfact>
</mgrwt>
</event>
<event>
 6    1  0.2325157E-005  0.5374190E+04  0.7818608E-02  0.7773242E-01
          2   -1    0    0  501    0  0.00000000000E+00  0.00000000000E+00  0.26227397791E+04  0.26227397791E+04  0.00000000000E+00 0.  1.
         -2   -1    0    0    0  501 -0.00000000000E+00 -0.00000000000E+00 -0.27530292718E+04  0.27530292718E+04  0.00000000000E+00 0. -1.
         23    2    1    2    0    0  0.62384097951E+03 -0.23673360087E+04  0.10413474555E+04  0.26616963761E+04  0.82254053316E+02 0.  0.
         11    1    3    3    0    0  0.44899661142E+03 -0.18390306126E+04  0.80397202519E+03  0.20566970046E+04  0.00000000000E+00 0.  1.
        -11    1    3    3    0    0  0.17484436810E+03 -0.52830539610E+03  0.23737543034E+03  0.60499937152E+03  0.00000000000E+00 0. -1.
         22    1    1    2    0    0 -0.62384097951E+03  0.23673360087E+04 -0.11716369483E+04  0.27140726749E+04  0.00000000000E+00 0. -1.
<mgrwt>
<rscale>  0 0.53741899E+04</rscale>
<asrwt>0</asrwt>
<pdfrwt beam="1">  1        2 0.40349843E+00 0.53741899E+04</pdfrwt>
<pdfrwt beam="2">  1       -2 0.42354297E+00 0.53741899E+04</pdfrwt>
<totfact> 0.10856066E-02</totfact>
</mgrwt>
</event>
<event>
 6    1  0.2325157E-005  0.1560803E+04  0.7818608E-02  0.8844997E-01
          2   -1    0    0  501    0  0.00000000000E+00  0.00000000000E+00  0.30550537690E+03  0.30550537690E+03  0.00000000000E+00 0.  1.
         -2   -1    0    0    0  501 -0.00000000000E+00 -0.00000000000E+00 -0.19935055890E+04  0.19935055890E+04  0.00000000000E+00 0. -1.
         23    2    1    2    0    0  0.13766648738E+03  0.36285463280E+03  0.14691307419E+03  0.42350508361E+03  0.84602353311E+02 0.  0.
         11    1    3    3    0    0  0.44801641441E+02  0.12879535576E+03  0.96291106810E+01  0.13670461043E+03  0.00000000000E+00 0.  1.
        -11    1    3    3    0    0  0.92864845936E+02  0.23405927705E+03  0.13728396350E+03  0.28680047318E+03  0.00000000000E+00 0. -1.
         22    1    1    2    0    0 -0.13766648738E+03 -0.36285463280E+03 -0.18349132862E+04  0.18755058822E+04  0.00000000000E+00 0. -1.
<mgrwt>
<rscale>  0 0.15608032E+04</rscale>
<asrwt>0</asrwt>
<pdfrwt beam="1">  1        2 0.47000827E-01 0.15608032E+04</pdfrwt>
<pdfrwt beam="2">  1       -2 0.30669317E+00 0.15608032E+04</pdfrwt>
<totfact> 0.30029813E+00</totfact>
</mgrwt>
</event>
<event>
 6    1  0.2325157E-005  0.2092722E+04  0.7818608E-02  0.8564456E-01
          2   -1    0    0  501    0  0.00000000000E+00  0.00000000000E+00  0.12502450710E+04  0.12502450710E+04  0.00000000000E+00 0.  1.
         -2   -1    0    0    0  501 -0.00000000000E+00 -0.00000000000E+00 -0.87572505809E+03  0.87572505809E+03  0.00000000000E+00 0. -1.
         23    2    1    2    0    0 -0.49723755499E+03 -0.12753016632E+03 -0.73640573433E+03  0.90217882937E+03  0.90133818346E+02 0.  0.
         13    1    3    3    0    0 -0.33603794084E+03 -0.69270698725E+02 -0.55590422535E+03  0.65326061809E+03  0.00000000000E+00 0. -1.
        -13    1    3    3    0    0 -0.16119961415E+03 -0.58259467597E+02 -0.18050150898E+03  0.24891821129E+03  0.00000000000E+00 0.  1.
         22    1    1    2    0    0  0.49723755499E+03  0.12753016632E+03  0.11109257473E+04  0.12237912997E+04  0.00000000000E+00 0.  1.
<mgrwt>
<rscale>  0 0.20927216E+04</rscale>
<asrwt>0</asrwt>
<pdfrwt beam="1">  1        2 0.19234540E+00 0.20927216E+04</pdfrwt>
<pdfrwt beam="2">  1       -2 0.13472693E+00 0.20927216E+04</pdfrwt>
<totfact> 0.64666222E+00</totfact>
</mgrwt>
</event>
<event>
 6    1  0.2325157E-005  0.2790511E+04  0.7818608E-02  0.8306220E-01
          2   -1    0    0  501    0  0.00000000000E+00  0.00000000000E+00  0.17793894036E+04  0.17793894036E+04  0.00000000000E+00 0.  1.
         -2   -1    0    0    0  501 -0.00000000000E+00 -0.00000000000E+00 -0.10940485824E+04  0.10940485824E+04  0.00000000000E+00 0. -1.
         23    2    1    2    0    0  0.43662224803E+03 -0.13120050818E+04  0.16321562522E+03  0.13953950088E+04  0.92149705405E+02 0.  0.
         11    1    3    3    0    0  0.30304866370E+03 -0.78669828952E+03  0.77013872239E+02  0.84655999659E+03  0.00000000000E+00 0.  1.
        -11    1    3    3    0    0  0.13357358432E+03 -0.52530679224E+03  0.86201752981E+02  0.54883501220E+03  0.00000000000E+00 0. -1.
         22    1    1    2    0    0 -0.43662224803E+03  0.13120050818E+04  0.52212519600E+03  0.14780429772E+04  0.00000000000E+00 0.  1.
<mgrwt>
<rscale>  0 0.27905114E+04</rscale>
<asrwt>0</asrwt>
<pdfrwt beam="1">  1        2 0.27375221E+00 0.27905114E+04</pdfrwt>
<pdfrwt beam="2">  1       -2 0.16831517E+00 0.27905114E+04</pdfrwt>
<totfact> 0.16907469E+00</totfact>
</mgrwt>
</event>
<event>
 6    1  0.2325157E-005  0.1686232E+04  0.7818608E-02  0.8769256E-01
         -2   -1    0    0    0  501 -0.00000000000E+00  0.00000000000E+00  0.75534233470E+03  0.75534233470E+03  0.00000000000E+00 0. -1.
          2   -1    0    0  501    0  0.00000000000E+00 -0.00000000000E+00 -0.94108898954E+03  0.94108898954E+03  0.00000000000E+00 0.  1.
         23    2    1    2    0    0  0.19617097185E+03 -0.24536585897E+03  0.69133070004E+03  0.76479183314E+03  0.90999759778E+02 0.  0.
         13    1    3    3    0    0  0.35434168862E+02 -0.38369677143E+01  0.99114494387E+02  0.10532799078E+03  0.00000000000E+00 0.  1.
        -13    1    3    3    0    0  0.16073680299E+03 -0.24152889125E+03  0.59221620565E+03  0.65946384236E+03  0.00000000000E+00 0. -1.
         22    1    1    2    0    0 -0.19617097185E+03  0.24536585897E+03 -0.87707735488E+03  0.93163949111E+03  0.00000000000E+00 0.  1.
<mgrwt>
<rscale>  0 0.16862317E+04</rscale>
<asrwt>0</asrwt>
<pdfrwt beam="1">  1        2 0.14478292E+00 0.16862317E+04</pdfrwt>
<pdfrwt beam="2">  1       -2 0.11620651E+00 0.16862317E+04</pdfrwt>
<totfact> 0.15069148E+01</totfact>
</mgrwt>
</event>
<event>
 6    1  0.2325157E-005  0.2418376E+04  0.7818608E-02  0.8432656E-01
          2   -1    0    0  501    0  0.00000000000E+00  0.00000000000E+00  0.16903061947E+04  0.16903061947E+04  0.00000000000E+00 0.  1.
         -2   -1    0    0    0  501 -0.00000000000E+00 -0.00000000000E+00 -0.86501232230E+03  0.86501232230E+03  0.00000000000E+00 0. -1.
         23    2    1    2    0    0 -0.53666296104E+02 -0.11817740086E+04  0.66689822020E+03  0.13617695816E+04  0.10096176738E+03 0.  0.
         13    1    3    3    0    0 -0.61589875612E+01 -0.94812177910E+03  0.55162375664E+03  0.10969328193E+04  0.00000000000E+00 0.  1.
        -13    1    3    3    0    0 -0.47507308543E+02 -0.23365222947E+03  0.11527446356E+03  0.26483676228E+03  0.00000000000E+00 0. -1.
         22    1    1    2    0    0  0.53666296104E+02  0.11817740086E+04  0.15839565219E+03  0.11935489354E+04  0.00000000000E+00 0.  1.
<mgrwt>
<rscale>  0 0.24183761E+04</rscale>
<asrwt>0</asrwt>
<pdfrwt beam="1">  1        2 0.26004711E+00 0.24183761E+04</pdfrwt>
<pdfrwt beam="2">  1       -2 0.13307882E+00 0.24183761E+04</pdfrwt>
<totfact> 0.36489241E+00</totfact>
</mgrwt>
</event>
<event>
 6    1  0.2325157E-005  0.1672533E+04  0.7818608E-02  0.8777187E-01
         -2   -1    0    0    0  501 -0.00000000000E+00  0.00000000000E+00  0.46604581972E+03  0.46604581972E+03  0.00000000000E+00 0. -1.
          2   -1    0    0  501    0  0.00000000000E+00 -0.00000000000E+00 -0.15005851441E+04  0.15005851441E+04  0.00000000000E+00 0.  1.
         23    2    1    2    0    0  0.60517891155E+03 -0.66938683692E+01  0.15574302761E+03  0.63131886535E+03  0.89561689535E+02 0.  0.
         11    1    3    3    0    0  0.11670918258E+03  0.93971620109E+01 -0.39572380131E+01  0.11715374379E+03  0.00000000000E+00 0. -1.
        -11    1    3    3    0    0  0.48846972897E+03 -0.16091030380E+02  0.15970026562E+03  0.51416512155E+03  0.00000000000E+00 0.  1.
         22    1    1    2    0    0 -0.60517891155E+03  0.66938683692E+01 -0.11902823520E+04  0.13353120985E+04  0.00000000000E+00 0.  1.
<mgrwt>
<rscale>  0 0.16725327E+04</rscale>
<asrwt>0</asrwt>
<pdfrwt beam="1">  1        2 0.23085925E+00 0.16725327E+04</pdfrwt>
<pdfrwt beam="2">  1       -2 0.71699357E-01 0.16725327E+04</pdfrwt>
<totfact> 0.21331506E+01</totfact>
</mgrwt>
</event>
<event>
 6    1  0.2325157E-005  0.3006628E+04  0.7818608E-02  0.8241841E-01
          2   -1    0    0  501    0  0.00000000000E+00  0.00000000000E+00  0.22509702009E+04  0.22509702009E+04  0.00000000000E+00 0.  1.
         -2   -1    0    0    0  501 -0.00000000000E+00 -0.00000000000E+00 -0.10039907629E+04  0.10039907629E+04  0.00000000000E+00 0. -1.
         23    2    1    2    0    0 -0.68343486749E+02  0.86080437094E+03  0.19544083657E+04  0.21386676847E+04  0.92371035769E+02 0.  0.
         11    1    3    3    0    0 -0.37468886016E+02  0.10383641861E+03  0.22630606248E+03  0.25179426754E+03  0.00000000000E+00 0. -1.
        -11    1    3    3    0    0 -0.30874600733E+02  0.75696795232E+03  0.17281023033E+04  0.18868734172E+04  0.00000000000E+00 0.  1.
         22    1    1    2    0    0  0.68343486749E+02 -0.86080437094E+03 -0.70742892774E+03  0.11162932791E+04  0.00000000000E+00 0. -1.
<mgrwt>
<rscale>  0 0.30066282E+04</rscale>
<asrwt>0</asrwt>
<pdfrwt beam="1">  1        2 0.34630311E+00 0.30066282E+04</pdfrwt>
<pdfrwt beam="2">  1       -2 0.15446012E+00 0.30066282E+04</pdfrwt>
<totfact> 0.11457437E+00</totfact>
</mgrwt>
</event>
<event>
 6    1  0.2325157E-005  0.2147624E+04  0.7818608E-02  0.8540550E-01
          2   -1    0    0  501    0  0.00000000000E+00  0.00000000000E+00  0.44745720689E+03  0.44745720689E+03  0.00000000000E+00 0.  1.
         -2   -1    0    0    0  501 -0.00000000000E+00 -0.00000000000E+00 -0.25769431431E+04  0.25769431431E+04  0.00000000000E+00 0. -1.
         23    2    1    2    0    0  0.91217413587E+03 -0.46261664964E+03 -0.61592371632E+03  0.11976692773E+04  0.94730431614E+02 0.  0.
         11    1    3    3    0    0  0.76829395786E+03 -0.42103081917E+03 -0.50422703059E+03  0.10108350285E+04  0.00000000000E+00 0. -1.
        -11    1    3    3    0    0  0.14388017801E+03 -0.41585830470E+02 -0.11169668574E+03  0.18683424880E+03  0.00000000000E+00 0.  1.
         22    1    1    2    0    0 -0.91217413587E+03  0.46261664964E+03 -0.15135622199E+04  0.18267310728E+04  0.00000000000E+00 0. -1.
<mgrwt>
<rscale>  0 0.21476236E+04</rscale>
<asrwt>0</asrwt>
<pdfrwt beam="1">  1        2 0.68839571E-01 0.21476236E+04</pdfrwt>
<pdfrwt beam="2">  1       -2 0.39645279E+00 0.21476236E+04</pdfrwt>
<totfact> 0.50407902E-01</totfact>
</mgrwt>
</event>
<event>
 6    1  0.2325157E-005  0.3918652E+04  0.7818608E-02  0.8021161E-01
          2   -1    0    0  501    0  0.00000000000E+00  0.00000000000E+00  0.37022830077E+04  0.37022830077E+04  0.00000000000E+00 0.  1.
         -2   -1    0    0    0  501 -0.00000000000E+00 -0.00000000000E+00 -0.10369167186E+04  0.10369167186E+04  0.00000000000E+00 0. -1.
         23    2    1    2    0    0 -0.42869208846E+03 -0.10286935380E+04  0.32805159733E+04  0.34662517950E+04  0.10549480228E+03 0.  0.
         13    1    3    3    0    0 -0.15513008807E+03 -0.50536050376E+03  0.15114283224E+04  0.16012089672E+04  0.00000000000E+00 0. -1.
        -13    1    3    3    0    0 -0.27356200039E+03 -0.52333303428E+03  0.17690876509E+04  0.18650428278E+04  0.00000000000E+00 0.  1.
         22    1    1    2    0    0  0.42869208846E+03  0.10286935380E+04 -0.61514968420E+03  0.12729479313E+04  0.00000000000E+00 0. -1.
<mgrwt>
<rscale>  0 0.39186524E+04</rscale>
<asrwt>0</asrwt>
<pdfrwt beam="1">  1        2 0.56958200E+00 0.39186524E+04</pdfrwt>
<pdfrwt beam="2">  1       -2 0.15952565E+00 0.39186524E+04</pdfrwt>
<totfact> 0.11695640E-01</totfact>
</mgrwt>
</event>
<event>
 6    1  0.2325157E-005  0.5953692E+03  0.7818608E-02  0.9915060E-01
          2   -1    0    0  501    0  0.00000000000E+00  0.00000000000E+00  0.70661613245E+03  0.70661613245E+03  0.00000000000E+00 0.  1.
         -2   -1    0    0    0  501 -0.00000000000E+00 -0.00000000000E+00 -0.12540911907E+03  0.12540911907E+03  0.00000000000E+00 0. -1.
         23    2    1    2    0    0  0.13451763198E+03 -0.22033819490E+03  0.48442986973E+03  0.55632663168E+03  0.90460538316E+02 0.  0.
         11    1    3    3    0    0  0.87752456619E+02 -0.14245432998E+03  0.39442588241E+03  0.42844545334E+03  0.00000000000E+00 0. -1.
        -11    1    3    3    0    0  0.46765175361E+02 -0.77883864924E+02  0.90003987315E+02  0.12788117834E+03  0.00000000000E+00 0.  1.
         22    1    1    2    0    0 -0.13451763198E+03  0.22033819490E+03  0.96777143651E+02  0.27569861983E+03  0.00000000000E+00 0. -1.
<mgrwt>
<rscale>  0 0.59536915E+03</rscale>
<asrwt>0</asrwt>
<pdfrwt beam="1">  1        2 0.10871017E+00 0.59536915E+03</pdfrwt>
<pdfrwt beam="2">  1       -2 0.19293711E-01 0.59536915E+03</pdfrwt>
<totfact> 0.92446762E+02</totfact>
</mgrwt>
</event>
<event>
 6    1  0.2325157E-005  0.1405285E+04  0.7818608E-02  0.8950002E-01
         -2   -1    0    0    0  501 -0.00000000000E+00  0.00000000000E+00  0.24930498301E+03  0.24930498301E+03  0.00000000000E+00 0. -1.
          2   -1    0    0  501    0  0.00000000000E+00 -0.00000000000E+00 -0.19803315188E+04  0.19803315188E+04  0.00000000000E+00 0.  1.
         23    2    1    2    0    0 -0.64612221918E+03 -0.38451675023E+02 -0.44693381896E+03  0.79163561210E+03  0.89356870909E+02 0.  0.
         11    1    3    3    0    0 -0.24612125886E+03  0.23704561022E+02 -0.14508394533E+03  0.28668263197E+03  0.00000000000E+00 0. -1.
        -11    1    3    3    0    0 -0.40000096031E+03 -0.62156236044E+02 -0.30184987363E+03  0.50495298013E+03  0.00000000000E+00 0.  1.
         22    1    1    2    0    0  0.64612221918E+03  0.38451675023E+02 -0.12840927168E+04  0.14380008897E+04  0.00000000000E+00 0.  1.
<mgrwt>
<rscale>  0 0.14052850E+04</rscale>
<asrwt>0</asrwt>
<pdfrwt beam="1">  1        2 0.30466637E+00 0.14052850E+04</pdfrwt>
<pdfrwt beam="2">  1       -2 0.38354614E-01 0.14052850E+04</pdfrwt>
<totfact> 0.42819750E+01</totfact>
</mgrwt>
</event>
<event>
 6    1  0.2325157E-005  0.1376672E+04  0.7818608E-02  0.8970880E-01
          2   -1    0    0  501    0  0.00000000000E+00  0.00000000000E+00  0.96970512844E+03  0.96970512844E+03  0.00000000000E+00 0.  1.
         -2   -1    0    0    0  501 -0.00000000000E+00 -0.00000000000E+00 -0.48860860323E+03  0.48860860323E+03  0.00000000000E+00 0. -1.
         23    2    1    2    0    0  0.16457626959E+03  0.14677014599E+03 -0.44651709774E+03  0.50484959613E+03  0.82878054192E+02 0.  0.
         13    1    3    3    0    0  0.22667540037E+02  0.56234505943E+02 -0.71231061715E+02  0.93541440993E+02  0.00000000000E+00 0. -1.
        -13    1    3    3    0    0  0.14190872956E+03  0.90535640045E+02 -0.37528603603E+03  0.41130815514E+03  0.00000000000E+00 0.  1.
         22    1    1    2    0    0 -0.16457626959E+03 -0.14677014599E+03  0.92761362295E+03  0.95346413553E+03  0.00000000000E+00 0.  1.
<mgrwt>
<rscale>  0 0.13766717E+04</rscale>
<asrwt>0</asrwt>
<pdfrwt beam="1">  1        2 0.14918540E+00 0.13766717E+04</pdfrwt>
<pdfrwt beam="2">  1       -2 0.75170554E-01 0.13766717E+04</pdfrwt>
<totfact> 0.40831788E+01</totfact>
</mgrwt>
</event>
<event>
 6    1  0.2325157E-005  0.3894735E+04  0.7818608E-02  0.8026125E-01
         -2   -1    0    0    0  501 -0.00000000000E+00  0.00000000000E+00  0.19863876222E+04  0.19863876222E+04  0.00000000000E+00 0. -1.
          2   -1    0    0  501    0  0.00000000000E+00 -0.00000000000E+00 -0.19091138942E+04  0.19091138942E+04  0.00000000000E+00 0.  1.
         23    2    1    2    0    0 -0.89775646512E+03 -0.16950544586E+04 -0.29287989765E+03  0.19419944151E+04  0.79921121030E+02 0.  0.
         11    1    3    3    0    0 -0.52140923465E+03 -0.99361318925E+03 -0.21089206098E+03  0.11417575142E+04  0.00000000000E+00 0. -1.
        -11    1    3    3    0    0 -0.37634723047E+03 -0.70144126930E+03 -0.81987836676E+02  0.80023690088E+03  0.00000000000E+00 0.  1.
         22    1    1    2    0    0  0.89775646512E+03  0.16950544586E+04  0.37015362571E+03  0.19535071013E+04  0.00000000000E+00 0. -1.
<mgrwt>
<rscale>  0 0.38947350E+04</rscale>
<asrwt>0</asrwt>
<pdfrwt beam="1">  1        2 0.29370983E+00 0.38947350E+04</pdfrwt>
<pdfrwt beam="2">  1       -2 0.30559810E+00 0.38947350E+04</pdfrwt>
<totfact> 0.17537009E-01</totfact>
</mgrwt>
</event>
<event>
 6    1  0.2325157E-005  0.1732718E+04  0.7818608E-02  0.8742921E-01
          2   -1    0    0  501    0  0.00000000000E+00  0.00000000000E+00  0.19656839661E+04  0.19656839661E+04  0.00000000000E+00 0.  1.
         -2   -1    0    0    0  501 -0.00000000000E+00 -0.00000000000E+00 -0.38184039499E+03  0.38184039499E+03  0.00000000000E+00 0. -1.
         23    2    1    2    0    0 -0.32995668082E+03  0.46086872315E+03 -0.89734090134E+02  0.58056834031E+03  0.87954531670E+02 0.  0.
         13    1    3    3    0    0 -0.18175243182E+03  0.17913037207E+03 -0.35711955525E+02  0.25767611538E+03  0.00000000000E+00 0.  1.
        -13    1    3    3    0    0 -0.14820424900E+03  0.28173835108E+03 -0.54022134610E+02  0.32289222492E+03  0.00000000000E+00 0. -1.
         22    1    1    2    0    0  0.32995668082E+03 -0.46086872315E+03  0.16735776612E+04  0.17669560208E+04  0.00000000000E+00 0.  1.
<mgrwt>
<rscale>  0 0.17327176E+04</rscale>
<asrwt>0</asrwt>
<pdfrwt beam="1">  1        2 0.30241291E+00 0.17327176E+04</pdfrwt>
<pdfrwt beam="2">  1       -2 0.58744677E-01 0.17327176E+04</pdfrwt>
<totfact> 0.17945828E+01</totfact>
</mgrwt>
</event>
<event>
 6    1  0.2325157E-005  0.6116842E+03  0.7818608E-02  0.9881457E-01
          2   -1    0    0  501    0  0.00000000000E+00  0.00000000000E+00  0.88302333291E+03  0.88302333291E+03  0.00000000000E+00 0.  1.
         -2   -1    0    0    0  501 -0.00000000000E+00 -0.00000000000E+00 -0.10593082871E+03  0.10593082871E+03  0.00000000000E+00 0. -1.
         23    2    1    2    0    0 -0.26995577012E+03 -0.78424447450E+01  0.60507793151E+03  0.66875635561E+03  0.90433059289E+02 0.  0.
         11    1    3    3    0    0 -0.62229941278E+02 -0.22534022949E+02  0.23466009876E+03  0.24381490875E+03  0.00000000000E+00 0. -1.
        -11    1    3    3    0    0 -0.20772582884E+03  0.14691578204E+02  0.37041783275E+03  0.42494144685E+03  0.00000000000E+00 0.  1.
         22    1    1    2    0    0  0.26995577012E+03  0.78424447450E+01  0.17201457270E+03  0.32019780602E+03  0.00000000000E+00 0. -1.
<mgrwt>
<rscale>  0 0.61168421E+03</rscale>
<asrwt>0</asrwt>
<pdfrwt beam="1">  1        2 0.13584974E+00 0.61168421E+03</pdfrwt>
<pdfrwt beam="2">  1       -2 0.16297051E-01 0.61168421E+03</pdfrwt>
<totfact> 0.92201135E+02</totfact>
</mgrwt>
</event>
<event>
 6    1  0.2325157E-005  0.1950592E+04  0.7818608E-02  0.8630076E-01
         -2   -1    0    0    0  501 -0.00000000000E+00  0.00000000000E+00  0.24365875485E+03  0.24365875485E+03  0.00000000000E+00 0. -1.
          2   -1    0    0  501    0  0.00000000000E+00 -0.00000000000E+00 -0.39038280028E+04  0.39038280028E+04  0.00000000000E+00 0.  1.
         23    2    1    2    0    0 -0.88884503239E+03  0.34770838632E+03 -0.22205461741E+04  0.24202168864E+04  0.12521123030E+03 0.  0.
         11    1    3    3    0    0 -0.42530544734E+03  0.23025280685E+03 -0.10674977911E+04  0.11719439460E+04  0.00000000000E+00 0. -1.
        -11    1    3    3    0    0 -0.46353958504E+03  0.11745557947E+03 -0.11530483831E+04  0.12482729404E+04  0.00000000000E+00 0.  1.
         22    1    1    2    0    0  0.88884503239E+03 -0.34770838632E+03 -0.14396230738E+04  0.17272698712E+04  0.00000000000E+00 0. -1.
<mgrwt>
<rscale>  0 0.19505916E+04</rscale>
<asrwt>0</asrwt>
<pdfrwt beam="1">  1        2 0.60058891E+00 0.19505916E+04</pdfrwt>
<pdfrwt beam="2">  1       -2 0.37485963E-01 0.19505916E+04</pdfrwt>
<totfact> 0.25823968E+00</totfact>
</mgrwt>
</event>
<event>
 6    1  0.2325157E-005  0.9598489E+03  0.7818608E-02  0.9353712E-01
          2   -1    0    0  501    0  0.00000000000E+00  0.00000000000E+00  0.17720415112E+04  0.17720415112E+04  0.00000000000E+00 0.  1.
         -2   -1    0    0    0  501 -0.00000000000E+00 -0.00000000000E+00 -0.12997858824E+03  0.12997858824E+03  0.00000000000E+00 0. -1.
         23    2    1    2    0    0 -0.19910574444E+01  0.35437314575E+03  0.19967651337E+03  0.41673802344E+03  0.90639833694E+02 0.  0.
         13    1    3    3    0    0  0.20077218944E+02  0.28227889892E+03  0.18968430438E+03  0.34068256020E+03  0.00000000000E+00 0.  1.
        -13    1    3    3    0    0 -0.22068276388E+02  0.72094246822E+02  0.99922089920E+01  0.76055463237E+02  0.00000000000E+00 0. -1.
         22    1    1    2    0    0  0.19910574444E+01 -0.35437314575E+03  0.14423864096E+04  0.14852820760E+04  0.00000000000E+00 0.  1.
<mgrwt>
<rscale>  0 0.95984885E+03</rscale>
<asrwt>0</asrwt>
<pdfrwt beam="1">  1        2 0.27262175E+00 0.95984885E+03</pdfrwt>
<pdfrwt beam="2">  1       -2 0.19996707E-01 0.95984885E+03</pdfrwt>
<totfact> 0.19158614E+02</totfact>
</mgrwt>
</event>
<event>
 6    1  0.2325157E-005  0.2244186E+04  0.7818608E-02  0.8500259E-01
         -2   -1    0    0    0  501 -0.00000000000E+00  0.00000000000E+00  0.38768046708E+03  0.38768046708E+03  0.00000000000E+00 0. -1.
          2   -1    0    0  501    0  0.00000000000E+00 -0.00000000000E+00 -0.32477594203E+04  0.32477594203E+04  0.00000000000E+00 0.  1.
         23    2    1    2    0    0  0.53208629995E+03  0.76498103093E+03 -0.42516689621E+03  0.10283133976E+04  0.91376943387E+02 0.  0.
         13    1    3    3    0    0  0.29906404438E+03  0.37243287389E+03 -0.25222767008E+03  0.54015215056E+03  0.00000000000E+00 0.  1.
        -13    1    3    3    0    0  0.23302225557E+03  0.39254815704E+03 -0.17293922613E+03  0.48816124705E+03  0.00000000000E+00 0. -1.
         22    1    1    2    0    0 -0.53208629995E+03 -0.76498103093E+03 -0.24349120571E+04  0.26071264898E+04  0.00000000000E+00 0.  1.
<mgrwt>
<rscale>  0 0.22441862E+04</rscale>
<asrwt>0</asrwt>
<pdfrwt beam="1">  1        2 0.49965531E+00 0.22441862E+04</pdfrwt>
<pdfrwt beam="2">  1       -2 0.59643147E-01 0.22441862E+04</pdfrwt>
<totfact> 0.28874039E+00</totfact>
</mgrwt>
</event>
<event>
 6    1  0.2325157E-005  0.5353178E+04  0.7818608E-02  0.7776221E-01
          2   -1    0    0  501    0  0.00000000000E+00  0.00000000000E+00  0.31608759129E+04  0.31608759129E+04  0.00000000000E+00 0.  1.
         -2   -1    0    0    0  501 -0.00000000000E+00 -0.00000000000E+00 -0.22665010637E+04  0.22665010637E+04  0.00000000000E+00 0. -1.
         23    2    1    2    0    0  0.19650442956E+04 -0.16897535788E+04  0.11225196197E+04  0.28257013094E+04  0.88720642825E+02 0.  0.
         13    1    3    3    0    0  0.12520147139E+04 -0.10675742816E+04  0.66653015472E+03  0.17752515702E+04  0.00000000000E+00 0. -1.
        -13    1    3    3    0    0  0.71302958175E+03 -0.62217929725E+03  0.45598946496E+03  0.10504497392E+04  0.00000000000E+00 0.  1.
         22    1    1    2    0    0 -0.19650442956E+04  0.16897535788E+04 -0.22814477052E+03  0.26016756672E+04  0.00000000000E+00 0. -1.
<mgrwt>
<rscale>  0 0.53531780E+04</rscale>
<asrwt>0</asrwt>
<pdfrwt beam="1">  1        2 0.48628860E+00 0.53531780E+04</pdfrwt>
<pdfrwt beam="2">  1       -2 0.34869247E+00 0.53531780E+04</pdfrwt>
<totfact> 0.15424151E-02</totfact>
</mgrwt>
</event>
<event>
 6    1  0.2325157E-005  0.1076913E+04  0.7818608E-02  0.9227991E-01
         -2   -1    0    0    0  501 -0.00000000000E+00  0.00000000000E+00  0.34314625449E+03  0.34314625449E+03  0.00000000000E+00 0. -1.
          2   -1    0    0  501    0  0.00000000000E+00 -0.00000000000E+00 -0.84493168072E+03  0.84493168072E+03  0.00000000000E+00 0.  1.
         23    2    1    2    0    0  0.20723862106E+03  0.41875286604E+02  0.28908775536E+03  0.36943162877E+03  0.90590354613E+02 0.  0.
         11    1    3    3    0    0  0.18087618093E+02 -0.13425850460E+02  0.40270141093E+01  0.22883011853E+02  0.00000000000E+00 0.  1.
        -11    1    3    3    0    0  0.18915100296E+03  0.55301137064E+02  0.28506074125E+03  0.34654861691E+03  0.00000000000E+00 0. -1.
         22    1    1    2    0    0 -0.20723862106E+03 -0.41875286604E+02 -0.79087318159E+03  0.81864630644E+03  0.00000000000E+00 0.  1.
<mgrwt>
<rscale>  0 0.10769125E+04</rscale>
<asrwt>0</asrwt>
<pdfrwt beam="1">  1        2 0.12998949E+00 0.10769125E+04</pdfrwt>
<pdfrwt beam="2">  1       -2 0.52791732E-01 0.10769125E+04</pdfrwt>
<totfact> 0.10768502E+02</totfact>
</mgrwt>
</event>
<event>
 6    1  0.2325157E-005  0.2005327E+04  0.7818608E-02  0.8604134E-01
          2   -1    0    0  501    0  0.00000000000E+00  0.00000000000E+00  0.16479645610E+04  0.16479645610E+04  0.00000000000E+00 0.  1.
         -2   -1    0    0    0  501 -0.00000000000E+00 -0.00000000000E+00 -0.61004610834E+03  0.61004610834E+03  0.00000000000E+00 0. -1.
         23    2    1    2    0    0  0.32823938479E+03 -0.91611816736E+03  0.78276741305E+03  0.12519710860E+04  0.87710813849E+02 0.  0.
         13    1    3    3    0    0  0.21268202848E+03 -0.62859141958E+03  0.58269267671E+03  0.88311470008E+03  0.00000000000E+00 0. -1.
        -13    1    3    3    0    0  0.11555735632E+03 -0.28752674777E+03  0.20007473634E+03  0.36885638588E+03  0.00000000000E+00 0.  1.
         22    1    1    2    0    0 -0.32823938479E+03  0.91611816736E+03  0.25515103959E+03  0.10060395834E+04  0.00000000000E+00 0. -1.
<mgrwt>
<rscale>  0 0.20053273E+04</rscale>
<asrwt>0</asrwt>
<pdfrwt beam="1">  1        2 0.25353301E+00 0.20053273E+04</pdfrwt>
<pdfrwt beam="2">  1       -2 0.93853248E-01 0.20053273E+04</pdfrwt>
<totfact> 0.93356760E+00</totfact>
</mgrwt>
</event>
<event>
 6    1  0.2325157E-005  0.4669922E+04  0.7818608E-02  0.7881546E-01
         -2   -1    0    0    0  501 -0.00000000000E+00  0.00000000000E+00  0.14962982673E+04  0.14962982673E+04  0.00000000000E+00 0. -1.
          2   -1    0    0  501    0  0.00000000000E+00 -0.00000000000E+00 -0.36436866724E+04  0.36436866724E+04  0.00000000000E+00 0.  1.
         23    2    1    2    0    0  0.15052890850E+04  0.13587285879E+04  0.19756155471E+03  0.20398512459E+04  0.99618937333E+02 0.  0.
         11    1    3    3    0    0  0.69687573901E+03  0.67913320095E+03  0.12796310606E+03  0.98144396517E+03  0.00000000000E+00 0.  1.
        -11    1    3    3    0    0  0.80841334601E+03  0.67959538693E+03  0.69598448653E+02  0.10584072808E+04  0.00000000000E+00 0. -1.
         22    1    1    2    0    0 -0.15052890850E+04 -0.13587285879E+04 -0.23449499598E+04  0.31001336938E+04  0.00000000000E+00 0.  1.
<mgrwt>
<rscale>  0 0.46699217E+04</rscale>
<asrwt>0</asrwt>
<pdfrwt beam="1">  1        2 0.56056718E+00 0.46699217E+04</pdfrwt>
<pdfrwt beam="2">  1       -2 0.23019973E+00 0.46699217E+04</pdfrwt>
<totfact> 0.40799219E-02</totfact>
</mgrwt>
</event>
<event>
 6    1  0.2325157E-005  0.3664980E+04  0.7818608E-02  0.8075767E-01
         -2   -1    0    0    0  501 -0.00000000000E+00  0.00000000000E+00  0.16507179115E+04  0.16507179115E+04  0.00000000000E+00 0. -1.
          2   -1    0    0  501    0  0.00000000000E+00 -0.00000000000E+00 -0.20342778601E+04  0.20342778601E+04  0.00000000000E+00 0.  1.
         23    2    1    2    0    0 -0.14837796905E+04  0.75442781434E+03  0.57579263330E+03  0.17637667709E+04  0.92588167230E+02 0.  0.
         11    1    3    3    0    0 -0.95841476108E+03  0.47809904132E+03  0.41633790147E+03  0.11491191391E+04  0.00000000000E+00 0.  1.
        -11    1    3    3    0    0 -0.52536492939E+03  0.27632877301E+03  0.15945473183E+03  0.61464763184E+03  0.00000000000E+00 0. -1.
         22    1    1    2    0    0  0.14837796905E+04 -0.75442781434E+03 -0.95935258192E+03  0.19212290007E+04  0.00000000000E+00 0.  1.
<mgrwt>
<rscale>  0 0.36649796E+04</rscale>
<asrwt>0</asrwt>
<pdfrwt beam="1">  1        2 0.31296583E+00 0.36649796E+04</pdfrwt>
<pdfrwt beam="2">  1       -2 0.25395660E+00 0.36649796E+04</pdfrwt>
<totfact> 0.31498418E-01</totfact>
</mgrwt>
</event>
<event>
 6    1  0.2325157E-005  0.1509715E+04  0.7818608E-02  0.8878018E-01
          2   -1    0    0  501    0  0.00000000000E+00  0.00000000000E+00  0.23707406335E+04  0.23707406335E+04  0.00000000000E+00 0.  1.
         -2   -1    0    0    0  501 -0.00000000000E+00 -0.00000000000E+00 -0.24035112271E+03  0.24035112271E+03  0.00000000000E+00 0. -1.
         23    2    1    2    0    0 -0.31506151013E+03 -0.34634265920E+03  0.51161139549E+02  0.47979928155E+03  0.91503527943E+02 0.  0.
         11    1    3    3    0    0 -0.81451168651E+02 -0.15172594961E+03  0.51565112952E+01  0.17228362159E+03  0.00000000000E+00 0.  1.
        -11    1    3    3    0    0 -0.23361034148E+03 -0.19461670959E+03  0.46004628254E+02  0.30751565996E+03  0.00000000000E+00 0. -1.
         22    1    1    2    0    0  0.31506151013E+03  0.34634265920E+03  0.20792283712E+04  0.21312924747E+04  0.00000000000E+00 0.  1.
<mgrwt>
<rscale>  0 0.15097154E+04</rscale>
<asrwt>0</asrwt>
<pdfrwt beam="1">  1        2 0.36472931E+00 0.15097154E+04</pdfrwt>
<pdfrwt beam="2">  1       -2 0.36977097E-01 0.15097154E+04</pdfrwt>
<totfact> 0.27546343E+01</totfact>
</mgrwt>
</event>
<event>
 6    1  0.2325157E-005  0.1969946E+04  0.7818608E-02  0.8620802E-01
          2   -1    0    0  501    0  0.00000000000E+00  0.00000000000E+00  0.31273602463E+04  0.31273602463E+04  0.00000000000E+00 0.  1.
         -2   -1    0    0    0  501 -0.00000000000E+00 -0.00000000000E+00 -0.31022057065E+03  0.31022057065E+03  0.00000000000E+00 0. -1.
         23    2    1    2    0    0  0.95048851352E+03  0.24959906404E+03  0.13772144945E+04  0.16942757276E+04  0.90124193796E+02 0.  0.
         11    1    3    3    0    0  0.43659382425E+03  0.15208770669E+03  0.60048472771E+03  0.75784348392E+03  0.00000000000E+00 0.  1.
        -11    1    3    3    0    0  0.51389468927E+03  0.97511357351E+02  0.77672976675E+03  0.93643224369E+03  0.00000000000E+00 0. -1.
         22    1    1    2    0    0 -0.95048851352E+03 -0.24959906404E+03  0.14399251812E+04  0.17433050893E+04  0.00000000000E+00 0. -1.
<mgrwt>
<rscale>  0 0.19699457E+04</rscale>
<asrwt>0</asrwt>
<pdfrwt beam="1">  1        2 0.48113232E+00 0.19699457E+04</pdfrwt>
<pdfrwt beam="2">  1       -2 0.47726244E-01 0.19699457E+04</pdfrwt>
<totfact> 0.56178955E+00</totfact>
</mgrwt>
</event>
<event>
 6    1  0.2325157E-005  0.1794143E+04  0.7818608E-02  0.8709420E-01
         -2   -1    0    0    0  501 -0.00000000000E+00  0.00000000000E+00  0.25090270834E+03  0.25090270834E+03  0.00000000000E+00 0. -1.
          2   -1    0    0  501    0  0.00000000000E+00 -0.00000000000E+00 -0.32073676171E+04  0.32073676171E+04  0.00000000000E+00 0.  1.
         23    2    1    2    0    0  0.41281474021E+03 -0.19102827709E+03 -0.29672245940E+04  0.30032718824E+04  0.91172341618E+02 0.  0.
         13    1    3    3    0    0  0.19901188008E+03 -0.10661799250E+03 -0.11882754034E+04  0.12095336122E+04  0.00000000000E+00 0. -1.
        -13    1    3    3    0    0  0.21380286014E+03 -0.84410284597E+02 -0.17789491906E+04  0.17937382701E+04  0.00000000000E+00 0.  1.
         22    1    1    2    0    0 -0.41281474021E+03  0.19102827709E+03  0.10759685206E+02  0.45499844309E+03  0.00000000000E+00 0. -1.
<mgrwt>
<rscale>  0 0.17941429E+04</rscale>
<asrwt>0</asrwt>
<pdfrwt beam="1">  1        2 0.49344115E+00 0.17941429E+04</pdfrwt>
<pdfrwt beam="2">  1       -2 0.38600418E-01 0.17941429E+04</pdfrwt>
<totfact> 0.77229457E+00</totfact>
</mgrwt>
</event>
<event>
 6    1  0.2325157E-005  0.3152123E+04  0.7818608E-02  0.8201577E-01
         -1   -1    0    0    0  501 -0.00000000000E+00  0.00000000000E+00  0.17259934761E+04  0.17259934761E+04  0.00000000000E+00 0. -1.
          1   -1    0    0  501    0  0.00000000000E+00 -0.00000000000E+00 -0.14391534881E+04  0.14391534881E+04  0.00000000000E+00 0.  1.
         23    2    1    2    0    0 -0.13066067792E+04 -0.59592733558E+03 -0.50494445675E+03  0.15252465795E+04  0.95171208600E+02 0.  0.
         13    1    3    3    0    0 -0.93488013583E+03 -0.45846875807E+03 -0.33269299584E+03  0.10931052557E+04  0.00000000000E+00 0.  1.
        -13    1    3    3    0    0 -0.37172664341E+03 -0.13745857751E+03 -0.17225146091E+03  0.43214132380E+03  0.00000000000E+00 0. -1.
         22    1    1    2    0    0  0.13066067792E+04  0.59592733558E+03  0.79178444472E+03  0.16399003847E+04  0.00000000000E+00 0. -1.
<mgrwt>
<rscale>  0 0.31521228E+04</rscale>
<asrwt>0</asrwt>
<pdfrwt beam="1">  1        1 0.22140823E+00 0.31521228E+04</pdfrwt>
<pdfrwt beam="2">  1       -1 0.26553746E+00 0.31521228E+04</pdfrwt>
<totfact> 0.33463309E-01</totfact>
</mgrwt>
</event>
<event>
 6    1  0.2325157E-005  0.1679111E+04  0.7818608E-02  0.8773369E-01
          2   -1    0    0  501    0  0.00000000000E+00  0.00000000000E+00  0.13497296571E+04  0.13497296571E+04  0.00000000000E+00 0.  1.
         -2   -1    0    0    0  501 -0.00000000000E+00 -0.00000000000E+00 -0.52221797872E+03  0.52221797872E+03  0.00000000000E+00 0. -1.
         23    2    1    2    0    0  0.41524441010E+03 -0.15679967038E+03 -0.37707138190E+03  0.58818971243E+03  0.82281553216E+02 0.  0.
         11    1    3    3    0    0  0.23302809226E+03 -0.44751482109E+02 -0.20763191774E+03  0.31530271201E+03  0.00000000000E+00 0. -1.
        -11    1    3    3    0    0  0.18221631785E+03 -0.11204818827E+03 -0.16943946416E+03  0.27288700042E+03  0.00000000000E+00 0.  1.
         22    1    1    2    0    0 -0.41524441010E+03  0.15679967038E+03  0.12045830603E+04  0.12837579234E+04  0.00000000000E+00 0.  1.
<mgrwt>
<rscale>  0 0.16791106E+04</rscale>
<asrwt>0</asrwt>
<pdfrwt beam="1">  1        2 0.20765072E+00 0.16791106E+04</pdfrwt>
<pdfrwt beam="2">  1       -2 0.80341228E-01 0.16791106E+04</pdfrwt>
<totfact> 0.20184644E+01</totfact>
</mgrwt>
</event>
<event>
 6    1  0.2325157E-005  0.4436618E+04  0.7818608E-02  0.7921828E-01
          2   -1    0    0  501    0  0.00000000000E+00  0.00000000000E+00  0.25751017445E+04  0.25751017445E+04  0.00000000000E+00 0. -1.
         -2   -1    0    0    0  501 -0.00000000000E+00 -0.00000000000E+00 -0.19109515442E+04  0.19109515442E+04  0.00000000000E+00 0.  1.
         23    2    1    2    0    0  0.59869222151E+02  0.80635140980E+03  0.24203083149E+04  0.25526939731E+04  0.67581512819E+02 0.  0.
         11    1    3    3    0    0  0.18991397078E+02  0.18246598645E+03  0.64098957633E+03  0.66672494054E+03  0.00000000000E+00 0. -1.
        -11    1    3    3    0    0  0.40877825073E+02  0.62388542335E+03  0.17793187386E+04  0.18859690325E+04  0.00000000000E+00 0.  1.
         22    1    1    2    0    0 -0.59869222151E+02 -0.80635140980E+03 -0.17561581146E+04  0.19333593156E+04  0.00000000000E+00 0.  1.
<mgrwt>
<rscale>  0 0.44366179E+04</rscale>
<asrwt>0</asrwt>
<pdfrwt beam="1">  1        2 0.39616950E+00 0.44366179E+04</pdfrwt>
<pdfrwt beam="2">  1       -2 0.29399254E+00 0.44366179E+04</pdfrwt>
<totfact> 0.82911079E-02</totfact>
</mgrwt>
</event>
<event>
 6    1  0.2325157E-005  0.2587090E+04  0.7818608E-02  0.8372600E-01
          2   -1    0    0  501    0  0.00000000000E+00  0.00000000000E+00  0.87223763092E+03  0.87223763092E+03  0.00000000000E+00 0.  1.
         -2   -1    0    0    0  501 -0.00000000000E+00 -0.00000000000E+00 -0.19183520584E+04  0.19183520584E+04  0.00000000000E+00 0. -1.
         23    2    1    2    0    0 -0.87221946080E+03 -0.63292564601E+02  0.50249485440E+03  0.10121174673E+04  0.84308673312E+02 0.  0.
         13    1    3    3    0    0 -0.56286696151E+03 -0.11607505646E+01  0.31244170927E+03  0.64377044464E+03  0.00000000000E+00 0. -1.
        -13    1    3    3    0    0 -0.30935249929E+03 -0.62131814036E+02  0.19005314514E+03  0.36834702267E+03  0.00000000000E+00 0.  1.
         22    1    1    2    0    0  0.87221946080E+03  0.63292564601E+02 -0.15486092819E+04  0.17784722220E+04  0.00000000000E+00 0. -1.
<mgrwt>
<rscale>  0 0.25870901E+04</rscale>
<asrwt>0</asrwt>
<pdfrwt beam="1">  1        2 0.13419041E+00 0.25870901E+04</pdfrwt>
<pdfrwt beam="2">  1       -2 0.29513108E+00 0.25870901E+04</pdfrwt>
<totfact> 0.92337328E-01</totfact>
</mgrwt>
</event>
<event>
 6    1  0.2325157E-005  0.4452871E+04  0.7818608E-02  0.7918940E-01
          1   -1    0    0  501    0  0.00000000000E+00  0.00000000000E+00  0.29466474946E+04  0.29466474946E+04  0.00000000000E+00 0. -1.
         -1   -1    0    0    0  501 -0.00000000000E+00 -0.00000000000E+00 -0.16822557060E+04  0.16822557060E+04  0.00000000000E+00 0.  1.
         23    2    1    2    0    0 -0.11891922913E+04 -0.14235782415E+04 -0.64571189260E+03  0.19663387622E+04  0.93760141831E+02 0.  0.
         13    1    3    3    0    0 -0.77578155941E+03 -0.99434515520E+03 -0.45115199665E+03  0.13394392258E+04  0.00000000000E+00 0. -1.
        -13    1    3    3    0    0 -0.41341073192E+03 -0.42923308626E+03 -0.19455989596E+03  0.62689953639E+03  0.00000000000E+00 0.  1.
         22    1    1    2    0    0  0.11891922913E+04  0.14235782415E+04  0.19101036812E+04  0.26625644383E+04  0.00000000000E+00 0. -1.
<mgrwt>
<rscale>  0 0.44528708E+04</rscale>
<asrwt>0</asrwt>
<pdfrwt beam="1">  1        1 0.45333038E+00 0.44528708E+04</pdfrwt>
<pdfrwt beam="2">  1       -1 0.25880857E+00 0.44528708E+04</pdfrwt>
<totfact> 0.30110813E-02</totfact>
</mgrwt>
</event>
<event>
 6    1  0.2325157E-005  0.6241255E+03  0.7818608E-02  0.9856580E-01
          2   -1    0    0  501    0  0.00000000000E+00  0.00000000000E+00  0.69050733553E+03  0.69050733553E+03  0.00000000000E+00 0.  1.
         -2   -1    0    0    0  501 -0.00000000000E+00 -0.00000000000E+00 -0.14103131313E+03  0.14103131313E+03  0.00000000000E+00 0. -1.
         23    2    1    2    0    0 -0.31168448216E+02  0.50301558984E+01  0.68533164607E+03  0.69206275427E+03  0.90964916913E+02 0.  0.
         13    1    3    3    0    0  0.95906373451E+01  0.34699804510E+02  0.44754261819E+03  0.44898825358E+03  0.00000000000E+00 0. -1.
        -13    1    3    3    0    0 -0.40759085561E+02 -0.29669648612E+02  0.23778902788E+03  0.24307450069E+03  0.00000000000E+00 0.  1.
         22    1    1    2    0    0  0.31168448216E+02 -0.50301558984E+01 -0.13585562367E+03  0.13947589439E+03  0.00000000000E+00 0. -1.
<mgrwt>
<rscale>  0 0.62412549E+03</rscale>
<asrwt>0</asrwt>
<pdfrwt beam="1">  1        2 0.10623190E+00 0.62412549E+03</pdfrwt>
<pdfrwt beam="2">  1       -2 0.21697125E-01 0.62412549E+03</pdfrwt>
<totfact> 0.77449056E+02</totfact>
</mgrwt>
</event>
<event>
 6    1  0.2325157E-005  0.4266140E+04  0.7818608E-02  0.7952909E-01
          2   -1    0    0  501    0  0.00000000000E+00  0.00000000000E+00  0.30216636740E+04  0.30216636740E+04  0.00000000000E+00 0.  1.
         -2   -1    0    0    0  501 -0.00000000000E+00 -0.00000000000E+00 -0.15057886878E+04  0.15057886878E+04  0.00000000000E+00 0. -1.
         23    2    1    2    0    0  0.12663057479E+03  0.11707118755E+04  0.26445417035E+04  0.28963514585E+04  0.93001888061E+02 0.  0.
         13    1    3    3    0    0  0.86183154156E+01  0.18212322134E+03  0.49251582582E+03  0.52518090388E+03  0.00000000000E+00 0.  1.
        -13    1    3    3    0    0  0.11801225937E+03  0.98858865419E+03  0.21520258777E+04  0.23711705546E+04  0.00000000000E+00 0. -1.
         22    1    1    2    0    0 -0.12663057479E+03 -0.11707118755E+04 -0.11286667173E+04  0.16311009033E+04  0.00000000000E+00 0. -1.
<mgrwt>
<rscale>  0 0.42661397E+04</rscale>
<asrwt>0</asrwt>
<pdfrwt beam="1">  1        2 0.46487133E+00 0.42661397E+04</pdfrwt>
<pdfrwt beam="2">  1       -2 0.23165980E+00 0.42661397E+04</pdfrwt>
<totfact> 0.10869907E-01</totfact>
</mgrwt>
</event>
<event>
 6    1  0.2325157E-005  0.1807995E+04  0.7818608E-02  0.8702060E-01
         -2   -1    0    0    0  501 -0.00000000000E+00  0.00000000000E+00  0.53232525155E+03  0.53232525155E+03  0.00000000000E+00 0.  1.
          2   -1    0    0  501    0  0.00000000000E+00 -0.00000000000E+00 -0.15351723916E+04  0.15351723916E+04  0.00000000000E+00 0. -1.
         23    2    1    2    0    0  0.43478129376E+03  0.76953417654E+03 -0.29860645575E+03  0.93737704617E+03  0.91062006316E+02 0.  0.
         13    1    3    3    0    0  0.21988996915E+03  0.36984341599E+03 -0.19232573808E+03  0.47130132655E+03  0.00000000000E+00 0. -1.
        -13    1    3    3    0    0  0.21489132461E+03  0.39969076056E+03 -0.10628071767E+03  0.46607571962E+03  0.00000000000E+00 0.  1.
         22    1    1    2    0    0 -0.43478129376E+03 -0.76953417654E+03 -0.70424068426E+03  0.11301205969E+04  0.00000000000E+00 0. -1.
<mgrwt>
<rscale>  0 0.18079945E+04</rscale>
<asrwt>0</asrwt>
<pdfrwt beam="1">  1        2 0.23618036E+00 0.18079945E+04</pdfrwt>
<pdfrwt beam="2">  1       -2 0.81896194E-01 0.18079945E+04</pdfrwt>
<totfact> 0.15000653E+01</totfact>
</mgrwt>
</event>
<event>
 6    1  0.2325157E-005  0.2542824E+04  0.7818608E-02  0.8387886E-01
          2   -1    0    0  501    0  0.00000000000E+00  0.00000000000E+00  0.15430663203E+04  0.15430663203E+04  0.00000000000E+00 0.  1.
         -2   -1    0    0    0  501 -0.00000000000E+00 -0.00000000000E+00 -0.10475819816E+04  0.10475819816E+04  0.00000000000E+00 0. -1.
         23    2    1    2    0    0 -0.57510115606E+03 -0.64020425688E+03 -0.70301655072E+03  0.11151798298E+04  0.93760076226E+02 0.  0.
         13    1    3    3    0    0 -0.51118780450E+03 -0.51924301965E+03 -0.58258925332E+03  0.93291828313E+03  0.00000000000E+00 0. -1.
        -13    1    3    3    0    0 -0.63913351564E+02 -0.12096123724E+03 -0.12042729740E+03  0.18226154663E+03  0.00000000000E+00 0.  1.
         22    1    1    2    0    0  0.57510115606E+03  0.64020425688E+03  0.11985008894E+04  0.14754684721E+04  0.00000000000E+00 0.  1.
<mgrwt>
<rscale>  0 0.25428240E+04</rscale>
<asrwt>0</asrwt>
<pdfrwt beam="1">  1        2 0.23739482E+00 0.25428240E+04</pdfrwt>
<pdfrwt beam="2">  1       -2 0.16116646E+00 0.25428240E+04</pdfrwt>
<totfact> 0.26348488E+00</totfact>
</mgrwt>
</event>
<event>
 6    1  0.2325157E-005  0.2289611E+04  0.7818608E-02  0.8482029E-01
         -2   -1    0    0    0  501 -0.00000000000E+00  0.00000000000E+00  0.13398434597E+04  0.13398434597E+04  0.00000000000E+00 0. -1.
          2   -1    0    0  501    0  0.00000000000E+00 -0.00000000000E+00 -0.97815840725E+03  0.97815840725E+03  0.00000000000E+00 0.  1.
         23    2    1    2    0    0 -0.82408475386E+02  0.43084772045E+03 -0.88743242433E+03  0.99410028985E+03  0.90984413560E+02 0.  0.
         13    1    3    3    0    0 -0.99462961596E+02  0.34124233589E+03 -0.67363671420E+03  0.76165978970E+03  0.00000000000E+00 0.  1.
        -13    1    3    3    0    0  0.17054486210E+02  0.89605384559E+02 -0.21379571013E+03  0.23244050015E+03  0.00000000000E+00 0. -1.
         22    1    1    2    0    0  0.82408475386E+02 -0.43084772045E+03  0.12491174767E+04  0.13239015771E+04  0.00000000000E+00 0. -1.
<mgrwt>
<rscale>  0 0.22896106E+04</rscale>
<asrwt>0</asrwt>
<pdfrwt beam="1">  1        2 0.15048591E+00 0.22896106E+04</pdfrwt>
<pdfrwt beam="2">  1       -2 0.20612976E+00 0.22896106E+04</pdfrwt>
<totfact> 0.28632061E+00</totfact>
</mgrwt>
</event>
<event>
 6    1  0.2325157E-005  0.2118787E+04  0.7818608E-02  0.8553012E-01
          1   -1    0    0  501    0  0.00000000000E+00  0.00000000000E+00  0.11793383084E+04  0.11793383084E+04  0.00000000000E+00 0.  1.
         -1   -1    0    0    0  501 -0.00000000000E+00 -0.00000000000E+00 -0.95164814087E+03  0.95164814087E+03  0.00000000000E+00 0. -1.
         23    2    1    2    0    0  0.81883022305E+03 -0.25710681265E+02 -0.55843204805E+03  0.99558691115E+03  0.90570260322E+02 0.  0.
         13    1    3    3    0    0  0.20855617251E+03 -0.22123588237E+02 -0.18815351223E+03  0.28175676463E+03  0.00000000000E+00 0. -1.
        -13    1    3    3    0    0  0.61027405054E+03 -0.35870930287E+01 -0.37027853582E+03  0.71383014653E+03  0.00000000000E+00 0.  1.
         22    1    1    2    0    0 -0.81883022305E+03  0.25710681265E+02  0.78612221555E+03  0.11353995381E+04  0.00000000000E+00 0.  1.
<mgrwt>
<rscale>  0 0.21187875E+04</rscale>
<asrwt>0</asrwt>
<pdfrwt beam="1">  1        1 0.18143666E+00 0.21187875E+04</pdfrwt>
<pdfrwt beam="2">  1       -1 0.14640741E+00 0.21187875E+04</pdfrwt>
<totfact> 0.37836745E+00</totfact>
</mgrwt>
</event>
<event>
 6    1  0.2325157E-005  0.1469351E+04  0.7818608E-02  0.8905094E-01
          2   -1    0    0  501    0  0.00000000000E+00  0.00000000000E+00  0.49836164854E+03  0.49836164854E+03  0.00000000000E+00 0.  1.
         -2   -1    0    0    0  501 -0.00000000000E+00 -0.00000000000E+00 -0.10830456863E+04  0.10830456863E+04  0.00000000000E+00 0. -1.
         23    2    1    2    0    0 -0.48006478821E+03  0.40706884239E+03  0.11013773058E+03  0.64388691742E+03  0.79327166860E+02 0.  0.
         11    1    3    3    0    0 -0.18098258831E+03  0.17573544232E+03  0.87264840298E+01  0.25241591567E+03  0.00000000000E+00 0.  1.
        -11    1    3    3    0    0 -0.29908219990E+03  0.23133340007E+03  0.10141124655E+03  0.39147100175E+03  0.00000000000E+00 0. -1.
         22    1    1    2    0    0  0.48006478821E+03 -0.40706884239E+03 -0.69482176834E+03  0.93752041742E+03  0.00000000000E+00 0. -1.
<mgrwt>
<rscale>  0 0.14693515E+04</rscale>
<asrwt>0</asrwt>
<pdfrwt beam="1">  1        2 0.76671023E-01 0.14693515E+04</pdfrwt>
<pdfrwt beam="2">  1       -2 0.16662241E+00 0.14693515E+04</pdfrwt>
<totfact> 0.13475510E+01</totfact>
</mgrwt>
</event>
<event>
 6    1  0.2325157E-005  0.3850268E+04  0.7818608E-02  0.8035453E-01
         -2   -1    0    0    0  501 -0.00000000000E+00  0.00000000000E+00  0.27328324727E+04  0.27328324727E+04  0.00000000000E+00 0. -1.
          2   -1    0    0  501    0  0.00000000000E+00 -0.00000000000E+00 -0.13561535810E+04  0.13561535810E+04  0.00000000000E+00 0.  1.
         23    2    1    2    0    0  0.38886310309E+03 -0.11194657590E+04  0.22985145808E+04  0.25875869940E+04  0.89549287675E+02 0.  0.
         13    1    3    3    0    0  0.29166998850E+03 -0.94051566121E+03  0.18908880489E+04  0.21319237098E+04  0.00000000000E+00 0. -1.
        -13    1    3    3    0    0  0.97193114591E+02 -0.17895009784E+03  0.40762653191E+03  0.45566328419E+03  0.00000000000E+00 0.  1.
         22    1    1    2    0    0 -0.38886310309E+03  0.11194657590E+04 -0.92183568908E+03  0.15013990596E+04  0.00000000000E+00 0.  1.
<mgrwt>
<rscale>  0 0.38502678E+04</rscale>
<asrwt>0</asrwt>
<pdfrwt beam="1">  1        2 0.20863901E+00 0.38502678E+04</pdfrwt>
<pdfrwt beam="2">  1       -2 0.42043577E+00 0.38502678E+04</pdfrwt>
<totfact> 0.66659393E-02</totfact>
</mgrwt>
</event>
<event>
 6    1  0.2325157E-005  0.3931656E+04  0.7818608E-02  0.8018477E-01
         -2   -1    0    0    0  501 -0.00000000000E+00  0.00000000000E+00  0.20521205668E+04  0.20521205668E+04  0.00000000000E+00 0. -1.
          2   -1    0    0  501    0  0.00000000000E+00 -0.00000000000E+00 -0.18831643384E+04  0.18831643384E+04  0.00000000000E+00 0.  1.
         23    2    1    2    0    0 -0.11206887263E+04 -0.91492923539E+03  0.14151836755E+04  0.20258028872E+04  0.89965412117E+02 0.  0.
         13    1    3    3    0    0 -0.49649964305E+03 -0.37814495843E+03  0.55565222649E+03  0.83561648018E+03  0.00000000000E+00 0. -1.
        -13    1    3    3    0    0 -0.62418908321E+03 -0.53678427696E+03  0.85953144902E+03  0.11901864070E+04  0.00000000000E+00 0.  1.
         22    1    1    2    0    0  0.11206887263E+04  0.91492923539E+03 -0.12462274471E+04  0.19094820180E+04  0.00000000000E+00 0.  1.
<mgrwt>
<rscale>  0 0.39316563E+04</rscale>
<asrwt>0</asrwt>
<pdfrwt beam="1">  1        2 0.28971759E+00 0.39316563E+04</pdfrwt>
<pdfrwt beam="2">  1       -2 0.31571086E+00 0.39316563E+04</pdfrwt>
<totfact> 0.15661589E-01</totfact>
</mgrwt>
</event>
<event>
 6    1  0.2325157E-005  0.1921738E+04  0.7818608E-02  0.8644111E-01
         -2   -1    0    0    0  501 -0.00000000000E+00  0.00000000000E+00  0.25532222998E+03  0.25532222998E+03  0.00000000000E+00 0. -1.
          2   -1    0    0  501    0  0.00000000000E+00 -0.00000000000E+00 -0.36160939175E+04  0.36160939175E+04  0.00000000000E+00 0.  1.
         23    2    1    2    0    0  0.79697682463E+03  0.32387235820E+03 -0.25363329727E+04  0.26798774121E+04  0.93234285764E+02 0.  0.
         11    1    3    3    0    0  0.16571188381E+03  0.32641687256E+02 -0.44175821458E+03  0.47294421271E+03  0.00000000000E+00 0.  1.
        -11    1    3    3    0    0  0.63126494081E+03  0.29123067095E+03 -0.20945747581E+04  0.22069331994E+04  0.00000000000E+00 0. -1.
         22    1    1    2    0    0 -0.79697682463E+03 -0.32387235820E+03 -0.82443871476E+03  0.11915387353E+04  0.00000000000E+00 0. -1.
<mgrwt>
<rscale>  0 0.19217379E+04</rscale>
<asrwt>0</asrwt>
<pdfrwt beam="1">  1        2 0.55632216E+00 0.19217379E+04</pdfrwt>
<pdfrwt beam="2">  1       -2 0.39280342E-01 0.19217379E+04</pdfrwt>
<totfact> 0.38810145E+00</totfact>
</mgrwt>
</event>
<event>
 6    1  0.2325157E-005  0.4630849E+04  0.7818608E-02  0.7888121E-01
          2   -1    0    0  501    0  0.00000000000E+00  0.00000000000E+00  0.19476050379E+04  0.19476050379E+04  0.00000000000E+00 0.  1.
         -2   -1    0    0    0  501 -0.00000000000E+00 -0.00000000000E+00 -0.27527095013E+04  0.27527095013E+04  0.00000000000E+00 0. -1.
         23    2    1    2    0    0  0.26524763368E+03 -0.10267340059E+04 -0.24908607695E+04  0.27087540080E+04  0.91770783538E+02 0.  0.
         11    1    3    3    0    0  0.19572387579E+02 -0.26901166994E+02 -0.55559046882E+02  0.64757693224E+02  0.00000000000E+00 0. -1.
        -11    1    3    3    0    0  0.24567524610E+03 -0.99983283893E+03 -0.24353017226E+04  0.26439963148E+04  0.00000000000E+00 0.  1.
         22    1    1    2    0    0 -0.26524763368E+03  0.10267340059E+04  0.16857563061E+04  0.19915605312E+04  0.00000000000E+00 0.  1.
<mgrwt>
<rscale>  0 0.46308491E+04</rscale>
<asrwt>0</asrwt>
<pdfrwt beam="1">  1        2 0.29963154E+00 0.46308491E+04</pdfrwt>
<pdfrwt beam="2">  1       -2 0.42349377E+00 0.46308491E+04</pdfrwt>
<totfact> 0.27871759E-02</totfact>
</mgrwt>
</event>
<event>
 6    1  0.2325157E-005  0.2957050E+04  0.7818608E-02  0.8256103E-01
          2   -1    0    0  501    0  0.00000000000E+00  0.00000000000E+00  0.28091801446E+04  0.28091801446E+04  0.00000000000E+00 0.  1.
         -2   -1    0    0    0  501 -0.00000000000E+00 -0.00000000000E+00 -0.77817567883E+03  0.77817567883E+03  0.00000000000E+00 0. -1.
         23    2    1    2    0    0  0.13665324020E+04 -0.54240631759E+03  0.11892617659E+04  0.18932052422E+04  0.90923717107E+02 0.  0.
         13    1    3    3    0    0  0.10747975110E+04 -0.44192259759E+03  0.89466562053E+03  0.14665987333E+04  0.00000000000E+00 0.  1.
        -13    1    3    3    0    0  0.29173489095E+03 -0.10048372000E+03  0.29459614541E+03  0.42660650894E+03  0.00000000000E+00 0. -1.
         22    1    1    2    0    0 -0.13665324020E+04  0.54240631759E+03  0.84174269979E+03  0.16941505812E+04  0.00000000000E+00 0. -1.
<mgrwt>
<rscale>  0 0.29570497E+04</rscale>
<asrwt>0</asrwt>
<pdfrwt beam="1">  1        2 0.43218156E+00 0.29570497E+04</pdfrwt>
<pdfrwt beam="2">  1       -2 0.11971934E+00 0.29570497E+04</pdfrwt>
<totfact> 0.10470051E+00</totfact>
</mgrwt>
</event>
<event>
 6    1  0.2325157E-005  0.8016307E+03  0.7818608E-02  0.9557660E-01
         -2   -1    0    0    0  501 -0.00000000000E+00  0.00000000000E+00  0.38656403523E+03  0.38656403523E+03  0.00000000000E+00 0. -1.
          2   -1    0    0  501    0  0.00000000000E+00 -0.00000000000E+00 -0.41559205365E+03  0.41559205365E+03  0.00000000000E+00 0.  1.
         23    2    1    2    0    0 -0.29699760877E+03  0.66099113616E+02 -0.26762256689E+03  0.41549857764E+03  0.91872505550E+02 0.  0.
         13    1    3    3    0    0 -0.17455154939E+03  0.67755489273E+02 -0.11466830527E+03  0.21956290660E+03  0.00000000000E+00 0. -1.
        -13    1    3    3    0    0 -0.12244605938E+03 -0.16563756565E+01 -0.15295426162E+03  0.19593567104E+03  0.00000000000E+00 0.  1.
         22    1    1    2    0    0  0.29699760877E+03 -0.66099113616E+02  0.23859454847E+03  0.38665751124E+03  0.00000000000E+00 0. -1.
<mgrwt>
<rscale>  0 0.80163069E+03</rscale>
<asrwt>0</asrwt>
<pdfrwt beam="1">  1        2 0.63937239E-01 0.80163069E+03</pdfrwt>
<pdfrwt beam="2">  1       -2 0.59471390E-01 0.80163069E+03</pdfrwt>
<totfact> 0.20246882E+02</totfact>
</mgrwt>
</event>
<event>
 6    1  0.2325157E-005  0.1584375E+04  0.7818608E-02  0.8830205E-01
          2   -1    0    0  501    0  0.00000000000E+00  0.00000000000E+00  0.93120530624E+03  0.93120530624E+03  0.00000000000E+00 0.  1.
         -2   -1    0    0    0  501 -0.00000000000E+00 -0.00000000000E+00 -0.67392381175E+03  0.67392381175E+03  0.00000000000E+00 0. -1.
         23    2    1    2    0    0 -0.57300205015E+03 -0.38405319865E+03 -0.26020995425E+03  0.74279182411E+03  0.90566355810E+02 0.  0.
         11    1    3    3    0    0 -0.14549552942E+03 -0.10559383598E+03 -0.26888490504E+02  0.18177458072E+03  0.00000000000E+00 0. -1.
        -11    1    3    3    0    0 -0.42750652074E+03 -0.27845936267E+03 -0.23332146375E+03  0.56101724339E+03  0.00000000000E+00 0.  1.
         22    1    1    2    0    0  0.57300205015E+03  0.38405319865E+03  0.51749144874E+03  0.86233729387E+03  0.00000000000E+00 0.  1.
<mgrwt>
<rscale>  0 0.15843755E+04</rscale>
<asrwt>0</asrwt>
<pdfrwt beam="1">  1        2 0.14326235E+00 0.15843755E+04</pdfrwt>
<pdfrwt beam="2">  1       -2 0.10368059E+00 0.15843755E+04</pdfrwt>
<totfact> 0.20329130E+01</totfact>
</mgrwt>
</event>
<event>
 6    1  0.2325157E-005  0.4705098E+03  0.7818608E-02  0.1021776E+00
         -4   -1    0    0    0  501 -0.00000000000E+00  0.00000000000E+00  0.76791311699E+02  0.76791311699E+02  0.00000000000E+00 0. -1.
          4   -1    0    0  501    0  0.00000000000E+00 -0.00000000000E+00 -0.72071773493E+03  0.72071773493E+03  0.00000000000E+00 0.  1.
         23    2    1    2    0    0 -0.16817010988E+03  0.55868379954E+02 -0.96603249916E+02  0.22221336806E+03  0.92973820575E+02 0.  0.
         11    1    3    3    0    0 -0.10467133191E+03  0.77255132791E+02 -0.81545392508E+02  0.15353857596E+03  0.00000000000E+00 0.  1.
        -11    1    3    3    0    0 -0.63498777968E+02 -0.21386752837E+02 -0.15057857408E+02  0.68674792101E+02  0.00000000000E+00 0. -1.
         22    1    1    2    0    0  0.16817010988E+03 -0.55868379954E+02 -0.54732317332E+03  0.57529567858E+03  0.00000000000E+00 0.  1.
<mgrwt>
<rscale>  0 0.47050977E+03</rscale>
<asrwt>0</asrwt>
<pdfrwt beam="1">  1        4 0.11087965E+00 0.47050977E+03</pdfrwt>
<pdfrwt beam="2">  1       -4 0.11814048E-01 0.47050977E+03</pdfrwt>
<totfact> 0.74252783E+01</totfact>
</mgrwt>
</event>
<event>
 6    1  0.2325157E-005  0.2130979E+04  0.7818608E-02  0.8547718E-01
         -2   -1    0    0    0  501 -0.00000000000E+00  0.00000000000E+00  0.19360262056E+04  0.19360262056E+04  0.00000000000E+00 0. -1.
          2   -1    0    0  501    0  0.00000000000E+00 -0.00000000000E+00 -0.58639065739E+03  0.58639065739E+03  0.00000000000E+00 0.  1.
         23    2    1    2    0    0 -0.83143081981E+03  0.30985668966E+03  0.13700004667E+04  0.16348904656E+04  0.93151379447E+02 0.  0.
         13    1    3    3    0    0 -0.61207801657E+03  0.19106932795E+03  0.10279893084E+04  0.12115729465E+04  0.00000000000E+00 0. -1.
        -13    1    3    3    0    0 -0.21935280325E+03  0.11878736171E+03  0.34201115822E+03  0.42331751906E+03  0.00000000000E+00 0.  1.
         22    1    1    2    0    0  0.83143081981E+03 -0.30985668966E+03 -0.20364918427E+02  0.88752639745E+03  0.00000000000E+00 0.  1.
<mgrwt>
<rscale>  0 0.21309788E+04</rscale>
<asrwt>0</asrwt>
<pdfrwt beam="1">  1        2 0.90213948E-01 0.21309788E+04</pdfrwt>
<pdfrwt beam="2">  1       -2 0.29785018E+00 0.21309788E+04</pdfrwt>
<totfact> 0.15366013E+00</totfact>
</mgrwt>
</event>
<event>
 6    1  0.2325157E-005  0.2832181E+04  0.7818608E-02  0.8293347E-01
          2   -1    0    0  501    0  0.00000000000E+00  0.00000000000E+00  0.29629415139E+04  0.29629415139E+04  0.00000000000E+00 0.  1.
         -2   -1    0    0    0  501 -0.00000000000E+00 -0.00000000000E+00 -0.67679773320E+03  0.67679773320E+03  0.00000000000E+00 0. -1.
         23    2    1    2    0    0  0.13977777037E+02 -0.67393537817E+03 -0.45434977441E+03  0.81756115247E+03  0.87110552263E+02 0.  0.
         11    1    3    3    0    0  0.24617229948E+01 -0.34871010002E+03 -0.28694020491E+03  0.45159658450E+03  0.00000000000E+00 0.  1.
        -11    1    3    3    0    0  0.11516054042E+02 -0.32522527815E+03 -0.16740956950E+03  0.36596456797E+03  0.00000000000E+00 0. -1.
         22    1    1    2    0    0 -0.13977777037E+02  0.67393537817E+03  0.27404935551E+04  0.28221780946E+04  0.00000000000E+00 0.  1.
<mgrwt>
<rscale>  0 0.28321809E+04</rscale>
<asrwt>0</asrwt>
<pdfrwt beam="1">  1        2 0.45583715E+00 0.28321809E+04</pdfrwt>
<pdfrwt beam="2">  1       -2 0.10412273E+00 0.28321809E+04</pdfrwt>
<totfact> 0.11949474E+00</totfact>
</mgrwt>
</event>
<event>
 6    1  0.2445654E-005  0.2207651E+04  0.7818608E-02  0.8515250E-01
          2   -1    0    0  501    0  0.00000000000E+00  0.00000000000E+00  0.17053231932E+04  0.17053231932E+04  0.00000000000E+00 0.  1.
         -2   -1    0    0    0  501 -0.00000000000E+00 -0.00000000000E+00 -0.71448666887E+03  0.71448666887E+03  0.00000000000E+00 0. -1.
         23    2    1    2    0    0 -0.91691176588E+03  0.60532923795E+03  0.58837216659E+03  0.12497123311E+04  0.91915348798E+02 0.  0.
         11    1    3    3    0    0 -0.40052073606E+03  0.22341590723E+03  0.21158349123E+03  0.50507336237E+03  0.00000000000E+00 0.  1.
        -11    1    3    3    0    0 -0.51639102983E+03  0.38191333071E+03  0.37678867536E+03  0.74463896873E+03  0.00000000000E+00 0. -1.
         22    1    1    2    0    0  0.91691176588E+03 -0.60532923795E+03  0.40246435774E+03  0.11700975310E+04  0.00000000000E+00 0.  1.
<mgrwt>
<rscale>  0 0.22076510E+04</rscale>
<asrwt>0</asrwt>
<pdfrwt beam="1">  1        2 0.26235741E+00 0.22076510E+04</pdfrwt>
<pdfrwt beam="2">  1       -2 0.10992103E+00 0.22076510E+04</pdfrwt>
<totfact> 0.58563758E+00</totfact>
</mgrwt>
</event>
<event>
 6    1  0.2325158E-005  0.2852648E+04  0.7818608E-02  0.8287107E-01
         -2   -1    0    0    0  501 -0.00000000000E+00  0.00000000000E+00  0.94804454321E+03  0.94804454321E+03  0.00000000000E+00 0. -1.
          2   -1    0    0  501    0  0.00000000000E+00 -0.00000000000E+00 -0.21458914909E+04  0.21458914909E+04  0.00000000000E+00 0.  1.
         23    2    1    2    0    0 -0.68821917877E+03  0.43400482693E+02 -0.19518665651E+04  0.20721362381E+04  0.91849122655E+02 0.  0.
         11    1    3    3    0    0 -0.32377053531E+03 -0.25400066219E+02 -0.92001411208E+03  0.97565285287E+03  0.00000000000E+00 0.  1.
        -11    1    3    3    0    0 -0.36444864346E+03  0.68800548912E+02 -0.10318524530E+04  0.10964833852E+04  0.00000000000E+00 0. -1.
         22    1    1    2    0    0  0.68821917877E+03 -0.43400482693E+02  0.75401961735E+03  0.10217997961E+04  0.00000000000E+00 0. -1.
<mgrwt>
<rscale>  0 0.28526484E+04</rscale>
<asrwt>0</asrwt>
<pdfrwt beam="1">  1        2 0.33013715E+00 0.28526484E+04</pdfrwt>
<pdfrwt beam="2">  1       -2 0.14585301E+00 0.28526484E+04</pdfrwt>
<totfact> 0.15482601E+00</totfact>
</mgrwt>
</event>
<event>
 6    1  0.2325157E-005  0.3010364E+04  0.7818608E-02  0.8240778E-01
          2   -1    0    0  501    0  0.00000000000E+00  0.00000000000E+00  0.11894759116E+04  0.11894759116E+04  0.00000000000E+00 0. -1.
         -2   -1    0    0    0  501 -0.00000000000E+00 -0.00000000000E+00 -0.19046818153E+04  0.19046818153E+04  0.00000000000E+00 0.  1.
         23    2    1    2    0    0 -0.27305230684E+03  0.12520348724E+04 -0.11668757187E+04  0.17354250433E+04  0.89175410724E+02 0.  0.
         11    1    3    3    0    0 -0.25200092585E+03  0.10314701366E+04 -0.93649305454E+03  0.14157875372E+04  0.00000000000E+00 0.  1.
        -11    1    3    3    0    0 -0.21051380990E+02  0.22056473580E+03 -0.23038266420E+03  0.31963750607E+03  0.00000000000E+00 0. -1.
         22    1    1    2    0    0  0.27305230684E+03 -0.12520348724E+04  0.45166981508E+03  0.13587326837E+04  0.00000000000E+00 0. -1.
<mgrwt>
<rscale>  0 0.30103642E+04</rscale>
<asrwt>0</asrwt>
<pdfrwt beam="1">  1        2 0.18299630E+00 0.30103642E+04</pdfrwt>
<pdfrwt beam="2">  1       -2 0.29302797E+00 0.30103642E+04</pdfrwt>
<totfact> 0.57630119E-01</totfact>
</mgrwt>
</event>
<event>
 6    1  0.2325157E-005  0.7903184E+03  0.7818608E-02  0.9574138E-01
         -2   -1    0    0    0  501 -0.00000000000E+00  0.00000000000E+00  0.19438426415E+03  0.19438426415E+03  0.00000000000E+00 0. -1.
          2   -1    0    0  501    0  0.00000000000E+00 -0.00000000000E+00 -0.80330979657E+03  0.80330979657E+03  0.00000000000E+00 0.  1.
         23    2    1    2    0    0 -0.18469291673E+03  0.14503510455E+03  0.84487278173E+02  0.26559571970E+03  0.90864355549E+02 0.  0.
         11    1    3    3    0    0 -0.16290133203E+03  0.88315419227E+02  0.87157645713E+02  0.20477527306E+03  0.00000000000E+00 0. -1.
        -11    1    3    3    0    0 -0.21791584697E+02  0.56719685325E+02 -0.26703675400E+01  0.60820446642E+02  0.00000000000E+00 0.  1.
         22    1    1    2    0    0  0.18469291673E+03 -0.14503510455E+03 -0.69341281059E+03  0.73209834103E+03  0.00000000000E+00 0.  1.
<mgrwt>
<rscale>  0 0.79031838E+03</rscale>
<asrwt>0</asrwt>
<pdfrwt beam="1">  1        2 0.12358612E+00 0.79031838E+03</pdfrwt>
<pdfrwt beam="2">  1       -2 0.29905271E-01 0.79031838E+03</pdfrwt>
<totfact> 0.35496366E+02</totfact>
</mgrwt>
</event>
<event>
 6    1  0.2325157E-005  0.2154103E+04  0.7818608E-02  0.8537778E-01
         -2   -1    0    0    0  501 -0.00000000000E+00  0.00000000000E+00  0.46553284769E+03  0.46553284769E+03  0.00000000000E+00 0. -1.
          2   -1    0    0  501    0  0.00000000000E+00 -0.00000000000E+00 -0.24918542751E+04  0.24918542751E+04  0.00000000000E+00 0.  1.
         23    2    1    2    0    0 -0.55053348613E+02 -0.72925578718E+03  0.67011432084E+02  0.73998158141E+03  0.90759762391E+02 0.  0.
         11    1    3    3    0    0  0.96956189645E+01 -0.28504212324E+03  0.57655831779E+02  0.29097630829E+03  0.00000000000E+00 0. -1.
        -11    1    3    3    0    0 -0.64748967578E+02 -0.44421366395E+03  0.93556003051E+01  0.44900527313E+03  0.00000000000E+00 0.  1.
         22    1    1    2    0    0  0.55053348613E+02  0.72925578718E+03 -0.20933328595E+04  0.22174055414E+04  0.00000000000E+00 0.  1.
<mgrwt>
<rscale>  0 0.21541031E+04</rscale>
<asrwt>0</asrwt>
<pdfrwt beam="1">  1        2 0.38336219E+00 0.21541031E+04</pdfrwt>
<pdfrwt beam="2">  1       -2 0.71620439E-01 0.21541031E+04</pdfrwt>
<totfact> 0.57094348E+00</totfact>
</mgrwt>
</event>
<event>
 6    1  0.2325157E-005  0.4178756E+04  0.7818608E-02  0.7969426E-01
         -1   -1    0    0    0  501 -0.00000000000E+00  0.00000000000E+00  0.12273137992E+04  0.12273137992E+04  0.00000000000E+00 0. -1.
          1   -1    0    0  501    0  0.00000000000E+00 -0.00000000000E+00 -0.35569561274E+04  0.35569561274E+04  0.00000000000E+00 0.  1.
         23    2    1    2    0    0  0.13915922964E+04 -0.13479015391E+04 -0.27240865165E+03  0.19583934115E+04  0.87923842040E+02 0.  0.
         13    1    3    3    0    0  0.12714305087E+04 -0.12271229081E+04 -0.22323058930E+03  0.17810665529E+04  0.00000000000E+00 0. -1.
        -13    1    3    3    0    0  0.12016178777E+03 -0.12077863101E+03 -0.49178062342E+02  0.17732685855E+03  0.00000000000E+00 0.  1.
         22    1    1    2    0    0 -0.13915922964E+04  0.13479015391E+04 -0.20572336766E+04  0.28258765151E+04  0.00000000000E+00 0.  1.
<mgrwt>
<rscale>  0 0.41787564E+04</rscale>
<asrwt>0</asrwt>
<pdfrwt beam="1">  1        1 0.54722402E+00 0.41787564E+04</pdfrwt>
<pdfrwt beam="2">  1       -1 0.18881751E+00 0.41787564E+04</pdfrwt>
<totfact> 0.31234525E-02</totfact>
</mgrwt>
</event>
<event>
 6    1  0.2417598E-005  0.2870776E+04  0.7818608E-02  0.8281626E-01
          2   -1    0    0  501    0  0.00000000000E+00  0.00000000000E+00  0.24183617767E+04  0.24183617767E+04  0.00000000000E+00 0.  1.
         -2   -1    0    0    0  501 -0.00000000000E+00 -0.00000000000E+00 -0.85195609063E+03  0.85195609063E+03  0.00000000000E+00 0. -1.
         23    2    1    2    0    0  0.35879162758E+02  0.96057322664E+03  0.19961297860E+04  0.22173928747E+04  0.91152619276E+02 0.  0.
         13    1    3    3    0    0  0.47276610721E+02  0.68351691527E+03  0.13376437267E+04  0.15029042521E+04  0.00000000000E+00 0. -1.
        -13    1    3    3    0    0 -0.11397447964E+02  0.27705631137E+03  0.65848605933E+03  0.71448862259E+03  0.00000000000E+00 0.  1.
         22    1    1    2    0    0 -0.35879162758E+02 -0.96057322664E+03 -0.42972409995E+03  0.10529249926E+04  0.00000000000E+00 0. -1.
<mgrwt>
<rscale>  0 0.28707755E+04</rscale>
<asrwt>0</asrwt>
<pdfrwt beam="1">  1        2 0.37205566E+00 0.28707755E+04</pdfrwt>
<pdfrwt beam="2">  1       -2 0.13107017E+00 0.28707755E+04</pdfrwt>
<totfact> 0.14276292E+00</totfact>
</mgrwt>
</event>
<event>
 6    1  0.2325157E-005  0.2378177E+04  0.7818608E-02  0.8447719E-01
          2   -1    0    0  501    0  0.00000000000E+00  0.00000000000E+00  0.13262794828E+04  0.13262794828E+04  0.00000000000E+00 0.  1.
         -2   -1    0    0    0  501 -0.00000000000E+00 -0.00000000000E+00 -0.10660887126E+04  0.10660887126E+04  0.00000000000E+00 0. -1.
         23    2    1    2    0    0  0.56631712053E+03  0.10422783606E+04  0.18148165301E+03  0.12035644323E+04  0.92587744386E+02 0.  0.
         11    1    3    3    0    0  0.24204839276E+03  0.36089300771E+03  0.47245019719E+02  0.43710785779E+03  0.00000000000E+00 0.  1.
        -11    1    3    3    0    0  0.32426872777E+03  0.68138535286E+03  0.13423663329E+03  0.76645657452E+03  0.00000000000E+00 0. -1.
         22    1    1    2    0    0 -0.56631712053E+03 -0.10422783606E+04  0.78709117245E+02  0.11888037631E+04  0.00000000000E+00 0. -1.
<mgrwt>
<rscale>  0 0.23781771E+04</rscale>
<asrwt>0</asrwt>
<pdfrwt beam="1">  1        2 0.20404300E+00 0.23781771E+04</pdfrwt>
<pdfrwt beam="2">  1       -2 0.16401365E+00 0.23781771E+04</pdfrwt>
<totfact> 0.33842047E+00</totfact>
</mgrwt>
</event>
<event>
 6    1  0.2325157E-005  0.2827127E+04  0.7818608E-02  0.8294896E-01
         -2   -1    0    0    0  501 -0.00000000000E+00  0.00000000000E+00  0.10891973498E+04  0.10891973498E+04  0.00000000000E+00 0. -1.
          2   -1    0    0  501    0  0.00000000000E+00 -0.00000000000E+00 -0.18345274034E+04  0.18345274034E+04  0.00000000000E+00 0.  1.
         23    2    1    2    0    0  0.71434297716E+03 -0.11601441806E+04 -0.75681414301E+03  0.15612445540E+04  0.92176469575E+02 0.  0.
         11    1    3    3    0    0  0.27315761280E+03 -0.50768245221E+03 -0.28481282811E+03  0.64302014025E+03  0.00000000000E+00 0. -1.
        -11    1    3    3    0    0  0.44118536437E+03 -0.65246172837E+03 -0.47200131491E+03  0.91822441374E+03  0.00000000000E+00 0.  1.
         22    1    1    2    0    0 -0.71434297716E+03  0.11601441806E+04  0.11484089389E+02  0.13624801991E+04  0.00000000000E+00 0. -1.
<mgrwt>
<rscale>  0 0.28271274E+04</rscale>
<asrwt>0</asrwt>
<pdfrwt beam="1">  1        2 0.28223498E+00 0.28271274E+04</pdfrwt>
<pdfrwt beam="2">  1       -2 0.16756882E+00 0.28271274E+04</pdfrwt>
<totfact> 0.15904298E+00</totfact>
</mgrwt>
</event>
<event>
 6    1  0.2325157E-005  0.5589612E+04  0.7818608E-02  0.7743477E-01
          2   -1    0    0  501    0  0.00000000000E+00  0.00000000000E+00  0.30491381442E+04  0.30491381442E+04  0.00000000000E+00 0.  1.
         -2   -1    0    0    0  501 -0.00000000000E+00 -0.00000000000E+00 -0.25616884272E+04  0.25616884272E+04  0.00000000000E+00 0. -1.
         23    2    1    2    0    0  0.14272819868E+04  0.23376888321E+04 -0.31050613373E+03  0.27579935084E+04  0.90505180124E+02 0.  0.
         13    1    3    3    0    0  0.59206256336E+03  0.88535505253E+03 -0.11696920627E+03  0.10714818912E+04  0.00000000000E+00 0.  1.
        -13    1    3    3    0    0  0.83521942345E+03  0.14523337796E+04 -0.19353692745E+03  0.16865116172E+04  0.00000000000E+00 0. -1.
         22    1    1    2    0    0 -0.14272819868E+04 -0.23376888321E+04  0.79795585077E+03  0.28528330630E+04  0.00000000000E+00 0.  1.
<mgrwt>
<rscale>  0 0.55896125E+04</rscale>
<asrwt>0</asrwt>
<pdfrwt beam="1">  1        2 0.46909818E+00 0.55896125E+04</pdfrwt>
<pdfrwt beam="2">  1       -2 0.39410591E+00 0.55896125E+04</pdfrwt>
<totfact> 0.91403182E-03</totfact>
</mgrwt>
</event>
<event>
 6    1  0.2325157E-005  0.1143872E+04  0.7818608E-02  0.9163456E-01
         -2   -1    0    0    0  501 -0.00000000000E+00  0.00000000000E+00  0.10920807862E+03  0.10920807862E+03  0.00000000000E+00 0. -1.
          2   -1    0    0  501    0  0.00000000000E+00 -0.00000000000E+00 -0.29952964702E+04  0.29952964702E+04  0.00000000000E+00 0.  1.
         23    2    1    2    0    0  0.13204796263E+03  0.54854269256E+03 -0.12661797602E+04  0.13891504384E+04  0.90509698297E+02 0.  0.
         13    1    3    3    0    0  0.12043843935E+03  0.37825202521E+03 -0.80892177865E+03  0.90107405701E+03  0.00000000000E+00 0. -1.
        -13    1    3    3    0    0  0.11609523281E+02  0.17029066735E+03 -0.45725798151E+03  0.48807638139E+03  0.00000000000E+00 0.  1.
         22    1    1    2    0    0 -0.13204796263E+03 -0.54854269256E+03 -0.16199086314E+04  0.17153541104E+04  0.00000000000E+00 0.  1.
<mgrwt>
<rscale>  0 0.11438716E+04</rscale>
<asrwt>0</asrwt>
<pdfrwt beam="1">  1        2 0.46081477E+00 0.11438716E+04</pdfrwt>
<pdfrwt beam="2">  1       -2 0.16801246E-01 0.11438716E+04</pdfrwt>
<totfact> 0.51077858E+01</totfact>
</mgrwt>
</event>
<event>
 6    1  0.2325157E-005  0.1482815E+04  0.7818608E-02  0.8895962E-01
         -2   -1    0    0    0  501 -0.00000000000E+00  0.00000000000E+00  0.59355444065E+03  0.59355444065E+03  0.00000000000E+00 0. -1.
          2   -1    0    0  501    0  0.00000000000E+00 -0.00000000000E+00 -0.92609061692E+03  0.92609061692E+03  0.00000000000E+00 0.  1.
         23    2    1    2    0    0  0.67043636428E+03  0.23867265653E+03  0.36389249571E+02  0.71804944545E+03  0.88437961899E+02 0.  0.
         13    1    3    3    0    0  0.47353381503E+03  0.16858210481E+03 -0.14806026221E+02  0.50286520903E+03  0.00000000000E+00 0.  1.
        -13    1    3    3    0    0  0.19690254925E+03  0.70090551722E+02  0.51195275791E+02  0.21518423643E+03  0.00000000000E+00 0. -1.
         22    1    1    2    0    0 -0.67043636428E+03 -0.23867265653E+03 -0.36892542584E+03  0.80159561211E+03  0.00000000000E+00 0.  1.
<mgrwt>
<rscale>  0 0.14828152E+04</rscale>
<asrwt>0</asrwt>
<pdfrwt beam="1">  1        2 0.14247548E+00 0.14828152E+04</pdfrwt>
<pdfrwt beam="2">  1       -2 0.91316068E-01 0.14828152E+04</pdfrwt>
<totfact> 0.27847102E+01</totfact>
</mgrwt>
</event>
<event>
 6    1  0.2325157E-005  0.1557180E+04  0.7818608E-02  0.8847294E-01
          2   -1    0    0  501    0  0.00000000000E+00  0.00000000000E+00  0.18189515174E+04  0.18189515174E+04  0.00000000000E+00 0.  1.
         -2   -1    0    0    0  501 -0.00000000000E+00 -0.00000000000E+00 -0.33327035158E+03  0.33327035158E+03  0.00000000000E+00 0. -1.
         23    2    1    2    0    0  0.61328193614E+03 -0.25794039471E+03  0.19445668689E+03  0.69966941369E+03  0.95267544144E+02 0.  0.
         13    1    3    3    0    0  0.35355834400E+03 -0.19484085478E+03  0.13682240459E+03  0.42624738322E+03  0.00000000000E+00 0.  1.
        -13    1    3    3    0    0  0.25972359214E+03 -0.63099539923E+02  0.57634282302E+02  0.27342203047E+03  0.00000000000E+00 0. -1.
         22    1    1    2    0    0 -0.61328193614E+03  0.25794039471E+03  0.12912244790E+04  0.14525524553E+04  0.00000000000E+00 0.  1.
<mgrwt>
<rscale>  0 0.15571803E+04</rscale>
<asrwt>0</asrwt>
<pdfrwt beam="1">  1        2 0.27983869E+00 0.15571803E+04</pdfrwt>
<pdfrwt beam="2">  1       -2 0.51272363E-01 0.15571803E+04</pdfrwt>
<totfact> 0.29123487E+01</totfact>
</mgrwt>
</event>
<event>
 6    1  0.2325157E-005  0.1044276E+04  0.7818608E-02  0.9261273E-01
          2   -1    0    0  501    0  0.00000000000E+00  0.00000000000E+00  0.73547884636E+03  0.73547884636E+03  0.00000000000E+00 0.  1.
         -2   -1    0    0    0  501 -0.00000000000E+00 -0.00000000000E+00 -0.37068132742E+03  0.37068132742E+03  0.00000000000E+00 0. -1.
         23    2    1    2    0    0  0.49012406382E+03 -0.13853124105E+03  0.28480380514E+03  0.59059107374E+03  0.90951120262E+02 0.  0.
         13    1    3    3    0    0  0.18838265513E+03 -0.36353980005E+02  0.61217747729E+02  0.20138830466E+03  0.00000000000E+00 0.  1.
        -13    1    3    3    0    0  0.30174140869E+03 -0.10217726105E+03  0.22358605741E+03  0.38920276908E+03  0.00000000000E+00 0. -1.
         22    1    1    2    0    0 -0.49012406382E+03  0.13853124105E+03  0.79993713802E+02  0.51556910005E+03  0.00000000000E+00 0. -1.
<mgrwt>
<rscale>  0 0.10442764E+04</rscale>
<asrwt>0</asrwt>
<pdfrwt beam="1">  1        2 0.11315059E+00 0.10442764E+04</pdfrwt>
<pdfrwt beam="2">  1       -2 0.57027896E-01 0.10442764E+04</pdfrwt>
<totfact> 0.11046420E+02</totfact>
</mgrwt>
</event>
<event>
 6    1  0.2325157E-005  0.2569372E+04  0.7818608E-02  0.8378680E-01
          2   -1    0    0  501    0  0.00000000000E+00  0.00000000000E+00  0.21628297980E+04  0.21628297980E+04  0.00000000000E+00 0.  1.
         -2   -1    0    0    0  501 -0.00000000000E+00 -0.00000000000E+00 -0.76308258588E+03  0.76308258588E+03  0.00000000000E+00 0. -1.
         23    2    1    2    0    0  0.53412841480E+03  0.11639922232E+04  0.61195046080E+03  0.14223184292E+04  0.91297800882E+02 0.  0.
         13    1    3    3    0    0  0.26871341740E+03  0.53453472506E+03  0.33039962956E+03  0.68344581950E+03  0.00000000000E+00 0.  1.
        -13    1    3    3    0    0  0.26541499740E+03  0.62945749812E+03  0.28155083124E+03  0.73887260969E+03  0.00000000000E+00 0. -1.
         22    1    1    2    0    0 -0.53412841480E+03 -0.11639922232E+04  0.78779675128E+03  0.15035939546E+04  0.00000000000E+00 0.  1.
<mgrwt>
<rscale>  0 0.25693717E+04</rscale>
<asrwt>0</asrwt>
<pdfrwt beam="1">  1        2 0.33274304E+00 0.25693717E+04</pdfrwt>
<pdfrwt beam="2">  1       -2 0.11739732E+00 0.25693717E+04</pdfrwt>
<totfact> 0.26934543E+00</totfact>
</mgrwt>
</event>
<event>
 6    1  0.2325157E-005  0.1877695E+04  0.7818608E-02  0.8666039E-01
         -1   -1    0    0    0  501 -0.00000000000E+00  0.00000000000E+00  0.21398316476E+03  0.21398316476E+03  0.00000000000E+00 0. -1.
          1   -1    0    0  501    0  0.00000000000E+00 -0.00000000000E+00 -0.41191793163E+04  0.41191793163E+04  0.00000000000E+00 0.  1.
         23    2    1    2    0    0 -0.60885232471E+03  0.60101327924E+03 -0.28371252857E+04  0.29646985650E+04  0.90772128648E+02 0.  0.
         13    1    3    3    0    0 -0.50828717712E+03  0.52690517566E+03 -0.23241123432E+04  0.24366951189E+04  0.00000000000E+00 0.  1.
        -13    1    3    3    0    0 -0.10056514760E+03  0.74108103581E+02 -0.51301294251E+03  0.52800344611E+03  0.00000000000E+00 0. -1.
         22    1    1    2    0    0  0.60885232471E+03 -0.60101327924E+03 -0.10680708658E+04  0.13684639161E+04  0.00000000000E+00 0. -1.
<mgrwt>
<rscale>  0 0.18776954E+04</rscale>
<asrwt>0</asrwt>
<pdfrwt beam="1">  1        1 0.63371986E+00 0.18776954E+04</pdfrwt>
<pdfrwt beam="2">  1       -1 0.32920488E-01 0.18776954E+04</pdfrwt>
<totfact> 0.61621479E-01</totfact>
</mgrwt>
</event>
<event>
 6    1  0.2325157E-005  0.1036728E+04  0.7818608E-02  0.9269155E-01
          2   -1    0    0  501    0  0.00000000000E+00  0.00000000000E+00  0.63335124449E+03  0.63335124449E+03  0.00000000000E+00 0.  1.
         -2   -1    0    0    0  501 -0.00000000000E+00 -0.00000000000E+00 -0.42425317131E+03  0.42425317131E+03  0.00000000000E+00 0. -1.
         23    2    1    2    0    0 -0.18201885370E+03  0.75503466745E+02 -0.37942350627E+03  0.43696822119E+03  0.90262908387E+02 0.  0.
         11    1    3    3    0    0 -0.17683216073E+03  0.40646823475E+02 -0.31377062515E+03  0.36245521452E+03  0.00000000000E+00 0. -1.
        -11    1    3    3    0    0 -0.51866929693E+01  0.34856643269E+02 -0.65652881117E+02  0.74513006670E+02  0.00000000000E+00 0.  1.
         22    1    1    2    0    0  0.18201885370E+03 -0.75503466745E+02  0.58852157944E+03  0.62063619461E+03  0.00000000000E+00 0.  1.
<mgrwt>
<rscale>  0 0.10367281E+04</rscale>
<asrwt>0</asrwt>
<pdfrwt beam="1">  1        2 0.97438653E-01 0.10367281E+04</pdfrwt>
<pdfrwt beam="2">  1       -2 0.65269718E-01 0.10367281E+04</pdfrwt>
<totfact> 0.10016398E+02</totfact>
</mgrwt>
</event>
<event>
 6    1  0.2325157E-005  0.1339174E+04  0.7818608E-02  0.8999064E-01
          2   -1    0    0  501    0  0.00000000000E+00  0.00000000000E+00  0.59050755593E+03  0.59050755593E+03  0.00000000000E+00 0.  1.
         -2   -1    0    0    0  501 -0.00000000000E+00 -0.00000000000E+00 -0.75925710583E+03  0.75925710583E+03  0.00000000000E+00 0. -1.
         23    2    1    2    0    0 -0.10431222104E+03 -0.47429902275E+03  0.37534906208E+03  0.62046095136E+03  0.90797969785E+02 0.  0.
         13    1    3    3    0    0 -0.54760397359E+01 -0.17038815877E+03  0.16902898230E+03  0.24006854962E+03  0.00000000000E+00 0.  1.
        -13    1    3    3    0    0 -0.98836181300E+02 -0.30391086397E+03  0.20632007979E+03  0.38039240174E+03  0.00000000000E+00 0. -1.
         22    1    1    2    0    0  0.10431222104E+03  0.47429902275E+03 -0.54409861199E+03  0.72930371040E+03  0.00000000000E+00 0. -1.
<mgrwt>
<rscale>  0 0.13391745E+04</rscale>
<asrwt>0</asrwt>
<pdfrwt beam="1">  1        2 0.90847317E-01 0.13391745E+04</pdfrwt>
<pdfrwt beam="2">  1       -2 0.11680878E+00 0.13391745E+04</pdfrwt>
<totfact> 0.28047472E+01</totfact>
</mgrwt>
</event>
<event>
 6    1  0.2325157E-005  0.3105050E+04  0.7818608E-02  0.8214353E-01
         -2   -1    0    0    0  501 -0.00000000000E+00  0.00000000000E+00  0.12058073122E+04  0.12058073122E+04  0.00000000000E+00 0. -1.
          2   -1    0    0  501    0  0.00000000000E+00 -0.00000000000E+00 -0.19989375908E+04  0.19989375908E+04  0.00000000000E+00 0.  1.
         23    2    1    2    0    0  0.18431683315E+03 -0.13709358753E+04  0.32759056373E+03  0.14244491197E+04  0.91114477059E+02 0.  0.
         11    1    3    3    0    0  0.90083019841E+02 -0.47530597023E+03  0.78808871366E+02  0.49014442158E+03  0.00000000000E+00 0. -1.
        -11    1    3    3    0    0  0.94233813307E+02 -0.89562990512E+03  0.24878169237E+03  0.93430469814E+03  0.00000000000E+00 0.  1.
         22    1    1    2    0    0 -0.18431683315E+03  0.13709358753E+04 -0.11207208423E+04  0.17802957832E+04  0.00000000000E+00 0.  1.
<mgrwt>
<rscale>  0 0.31050498E+04</rscale>
<asrwt>0</asrwt>
<pdfrwt beam="1">  1        2 0.30752886E+00 0.31050498E+04</pdfrwt>
<pdfrwt beam="2">  1       -2 0.18550882E+00 0.31050498E+04</pdfrwt>
<totfact> 0.94385359E-01</totfact>
</mgrwt>
</event>
<event>
 6    1  0.2325157E-005  0.5235374E+04  0.7818608E-02  0.7793190E-01
         -2   -1    0    0    0  501 -0.00000000000E+00  0.00000000000E+00  0.21981668269E+04  0.21981668269E+04  0.00000000000E+00 0. -1.
          2   -1    0    0  501    0  0.00000000000E+00 -0.00000000000E+00 -0.31172721820E+04  0.31172721820E+04  0.00000000000E+00 0.  1.
         23    2    1    2    0    0 -0.54647676250E+03 -0.24974277982E+04  0.10770362854E+03  0.25604219222E+04  0.91530810315E+02 0.  0.
         11    1    3    3    0    0 -0.44006795329E+03 -0.20786466245E+04  0.58307514067E+02  0.21255190800E+04  0.00000000000E+00 0. -1.
        -11    1    3    3    0    0 -0.10640880921E+03 -0.41878117367E+03  0.49396114473E+02  0.43490284228E+03  0.00000000000E+00 0.  1.
         22    1    1    2    0    0  0.54647676250E+03  0.24974277982E+04 -0.10268089836E+04  0.27550170867E+04  0.00000000000E+00 0.  1.
<mgrwt>
<rscale>  0 0.52353736E+04</rscale>
<asrwt>0</asrwt>
<pdfrwt beam="1">  1        2 0.47958034E+00 0.52353736E+04</pdfrwt>
<pdfrwt beam="2">  1       -2 0.33817951E+00 0.52353736E+04</pdfrwt>
<totfact> 0.19336838E-02</totfact>
</mgrwt>
</event>
<event>
 6    1  0.2325157E-005  0.3895245E+04  0.7818608E-02  0.8026019E-01
         -2   -1    0    0    0  501 -0.00000000000E+00  0.00000000000E+00  0.17951883694E+04  0.17951883694E+04  0.00000000000E+00 0. -1.
          2   -1    0    0  501    0  0.00000000000E+00 -0.00000000000E+00 -0.21130005346E+04  0.21130005346E+04  0.00000000000E+00 0.  1.
         23    2    1    2    0    0 -0.53753741315E+03 -0.13172540900E+03 -0.20314104637E+04  0.21074342893E+04  0.91393422916E+02 0.  0.
         11    1    3    3    0    0 -0.34343068855E+03 -0.48055067267E+02 -0.11578261141E+04  0.12086418981E+04  0.00000000000E+00 0. -1.
        -11    1    3    3    0    0 -0.19410672460E+03 -0.83670341734E+02 -0.87358434958E+03  0.89879239118E+03  0.00000000000E+00 0.  1.
         22    1    1    2    0    0  0.53753741315E+03  0.13172540900E+03  0.17135982985E+04  0.18007546148E+04  0.00000000000E+00 0. -1.
<mgrwt>
<rscale>  0 0.38952453E+04</rscale>
<asrwt>0</asrwt>
<pdfrwt beam="1">  1        2 0.32507701E+00 0.38952453E+04</pdfrwt>
<pdfrwt beam="2">  1       -2 0.27618282E+00 0.38952453E+04</pdfrwt>
<totfact> 0.20427478E-01</totfact>
</mgrwt>
</event>
<event>
 6    1  0.2325157E-005  0.2399474E+04  0.7818608E-02  0.8439701E-01
          2   -1    0    0  501    0  0.00000000000E+00  0.00000000000E+00  0.29613934076E+04  0.29613934076E+04  0.00000000000E+00 0.  1.
         -2   -1    0    0    0  501 -0.00000000000E+00 -0.00000000000E+00 -0.48604441568E+03  0.48604441568E+03  0.00000000000E+00 0. -1.
         23    2    1    2    0    0  0.75925147599E+02 -0.44780711899E+03  0.28321967385E+04  0.28698253596E+04  0.90903164447E+02 0.  0.
         13    1    3    3    0    0  0.80173545961E+02 -0.20197089958E+03  0.13122603230E+04  0.13301305188E+04  0.00000000000E+00 0. -1.
        -13    1    3    3    0    0 -0.42483983616E+01 -0.24583621941E+03  0.15199364155E+04  0.15396948409E+04  0.00000000000E+00 0.  1.
         22    1    1    2    0    0 -0.75925147599E+02  0.44780711899E+03 -0.35684774662E+03  0.57761246362E+03  0.00000000000E+00 0. -1.
<mgrwt>
<rscale>  0 0.23994739E+04</rscale>
<asrwt>0</asrwt>
<pdfrwt beam="1">  1        2 0.45559897E+00 0.23994739E+04</pdfrwt>
<pdfrwt beam="2">  1       -2 0.74776066E-01 0.23994739E+04</pdfrwt>
<totfact> 0.26617215E+00</totfact>
</mgrwt>
</event>
<event>
 6    1  0.2325157E-005  0.2676546E+04  0.7818608E-02  0.8342655E-01
         -2   -1    0    0    0  501 -0.00000000000E+00  0.00000000000E+00  0.17086437517E+04  0.17086437517E+04  0.00000000000E+00 0. -1.
          2   -1    0    0  501    0  0.00000000000E+00 -0.00000000000E+00 -0.10481846848E+04  0.10481846848E+04  0.00000000000E+00 0.  1.
         23    2    1    2    0    0 -0.10044840190E+03  0.98889853374E+03 -0.58973219727E+03  0.11596470477E+04  0.94799891086E+02 0.  0.
         11    1    3    3    0    0 -0.82668344350E+02  0.36127709064E+03 -0.22135550083E+03  0.43168674884E+03  0.00000000000E+00 0.  1.
        -11    1    3    3    0    0 -0.17780057551E+02  0.62762144310E+03 -0.36837669644E+03  0.72796029889E+03  0.00000000000E+00 0. -1.
         22    1    1    2    0    0  0.10044840190E+03 -0.98889853374E+03  0.12501912643E+04  0.15971813888E+04  0.00000000000E+00 0. -1.
<mgrwt>
<rscale>  0 0.26765457E+04</rscale>
<asrwt>0</asrwt>
<pdfrwt beam="1">  1        2 0.16125918E+00 0.26765457E+04</pdfrwt>
<pdfrwt beam="2">  1       -2 0.26286827E+00 0.26765457E+04</pdfrwt>
<totfact> 0.11053672E+00</totfact>
</mgrwt>
</event>
<event>
 6    1  0.2325157E-005  0.2653584E+04  0.7818608E-02  0.8350225E-01
          2   -1    0    0  501    0  0.00000000000E+00  0.00000000000E+00  0.13631421554E+04  0.13631421554E+04  0.00000000000E+00 0.  1.
         -2   -1    0    0    0  501 -0.00000000000E+00 -0.00000000000E+00 -0.12914108154E+04  0.12914108154E+04  0.00000000000E+00 0. -1.
         23    2    1    2    0    0 -0.12016355247E+03  0.13196488875E+04  0.18467238495E+02  0.13283744270E+04  0.91242062175E+02 0.  0.
         11    1    3    3    0    0 -0.12632229726E+02  0.30471785705E+03  0.39628945103E+02  0.30754349111E+03  0.00000000000E+00 0.  1.
        -11    1    3    3    0    0 -0.10753132274E+03  0.10149310304E+04 -0.21161706609E+02  0.10208309359E+04  0.00000000000E+00 0. -1.
         22    1    1    2    0    0  0.12016355247E+03 -0.13196488875E+04  0.53264101531E+02  0.13261785438E+04  0.00000000000E+00 0. -1.
<mgrwt>
<rscale>  0 0.26535836E+04</rscale>
<asrwt>0</asrwt>
<pdfrwt beam="1">  1        2 0.20971418E+00 0.26535836E+04</pdfrwt>
<pdfrwt beam="2">  1       -2 0.19867859E+00 0.26535836E+04</pdfrwt>
<totfact> 0.18157721E+00</totfact>
</mgrwt>
</event>
<event>
 6    1  0.2325157E-005  0.1307181E+04  0.7818608E-02  0.9023890E-01
         -2   -1    0    0    0  501 -0.00000000000E+00  0.00000000000E+00  0.18353296919E+03  0.18353296919E+03  0.00000000000E+00 0. -1.
          2   -1    0    0  501    0  0.00000000000E+00 -0.00000000000E+00 -0.23275396975E+04  0.23275396975E+04  0.00000000000E+00 0.  1.
         23    2    1    2    0    0  0.16517454241E+03 -0.48350743248E+03 -0.30401290309E+03  0.60145507577E+03  0.90897173755E+02 0.  0.
         11    1    3    3    0    0  0.14657586628E+03 -0.29367339149E+03 -0.19158113031E+03  0.38004193838E+03  0.00000000000E+00 0. -1.
        -11    1    3    3    0    0  0.18598676133E+02 -0.18983404100E+03 -0.11243177278E+03  0.22141313738E+03  0.00000000000E+00 0.  1.
         22    1    1    2    0    0 -0.16517454241E+03  0.48350743248E+03 -0.18399938252E+04  0.19096175909E+04  0.00000000000E+00 0.  1.
<mgrwt>
<rscale>  0 0.13071806E+04</rscale>
<asrwt>0</asrwt>
<pdfrwt beam="1">  1        2 0.35808302E+00 0.13071806E+04</pdfrwt>
<pdfrwt beam="2">  1       -2 0.28235842E-01 0.13071806E+04</pdfrwt>
<totfact> 0.49324046E+01</totfact>
</mgrwt>
</event>
<event>
 6    1  0.2325157E-005  0.1530883E+04  0.7818608E-02  0.8864172E-01
         -2   -1    0    0    0  501 -0.00000000000E+00  0.00000000000E+00  0.27215168375E+03  0.27215168375E+03  0.00000000000E+00 0. -1.
          2   -1    0    0  501    0  0.00000000000E+00 -0.00000000000E+00 -0.21528468681E+04  0.21528468681E+04  0.00000000000E+00 0.  1.
         23    2    1    2    0    0 -0.63342889696E+02 -0.20595997792E+03 -0.21026864214E+04  0.21156250825E+04  0.90263330184E+02 0.  0.
         13    1    3    3    0    0 -0.36862382045E+02 -0.73735166559E+02 -0.45326454140E+03  0.46069996146E+03  0.00000000000E+00 0. -1.
        -13    1    3    3    0    0 -0.26480507651E+02 -0.13222481136E+03 -0.16494218800E+04  0.16549251210E+04  0.00000000000E+00 0.  1.
         22    1    1    2    0    0  0.63342889696E+02  0.20595997792E+03  0.22199123708E+03  0.30937346932E+03  0.00000000000E+00 0. -1.
<mgrwt>
<rscale>  0 0.15308833E+04</rscale>
<asrwt>0</asrwt>
<pdfrwt beam="1">  1        2 0.33120720E+00 0.15308833E+04</pdfrwt>
<pdfrwt beam="2">  1       -2 0.41869491E-01 0.15308833E+04</pdfrwt>
<totfact> 0.28623217E+01</totfact>
</mgrwt>
</event>
<event>
 6    1  0.2325157E-005  0.2420795E+04  0.7818608E-02  0.8431759E-01
          2   -1    0    0  501    0  0.00000000000E+00  0.00000000000E+00  0.21588283256E+04  0.21588283256E+04  0.00000000000E+00 0.  1.
         -2   -1    0    0    0  501 -0.00000000000E+00 -0.00000000000E+00 -0.67863767542E+03  0.67863767542E+03  0.00000000000E+00 0. -1.
         23    2    1    2    0    0  0.79410177037E+03 -0.88836629135E+03  0.50339132081E+03  0.12967099466E+04  0.90893203593E+02 0.  0.
         13    1    3    3    0    0  0.32686331318E+03 -0.32926736662E+03  0.23630714099E+03  0.52067042273E+03  0.00000000000E+00 0. -1.
        -13    1    3    3    0    0  0.46723845719E+03 -0.55909892474E+03  0.26708417982E+03  0.77603952388E+03  0.00000000000E+00 0.  1.
         22    1    1    2    0    0 -0.79410177037E+03  0.88836629135E+03  0.97679932935E+03  0.15407560544E+04  0.00000000000E+00 0.  1.
<mgrwt>
<rscale>  0 0.24207951E+04</rscale>
<asrwt>0</asrwt>
<pdfrwt beam="1">  1        2 0.33212743E+00 0.24207951E+04</pdfrwt>
<pdfrwt beam="2">  1       -2 0.10440580E+00 0.24207951E+04</pdfrwt>
<totfact> 0.36429440E+00</totfact>
</mgrwt>
</event>
<event>
 6    1  0.2325157E-005  0.2568513E+04  0.7818608E-02  0.8378976E-01
         -2   -1    0    0    0  501 -0.00000000000E+00  0.00000000000E+00  0.15162372451E+04  0.15162372451E+04  0.00000000000E+00 0. -1.
          2   -1    0    0  501    0  0.00000000000E+00 -0.00000000000E+00 -0.10877678492E+04  0.10877678492E+04  0.00000000000E+00 0.  1.
         23    2    1    2    0    0  0.11506093319E+04 -0.56530638974E+03  0.17221572639E+03  0.12966646290E+04  0.90596660352E+02 0.  0.
         13    1    3    3    0    0  0.96476813388E+03 -0.46405134543E+03  0.11074806497E+03  0.10762835766E+04  0.00000000000E+00 0. -1.
        -13    1    3    3    0    0  0.18584119799E+03 -0.10125504431E+03  0.61467661424E+02  0.22038105243E+03  0.00000000000E+00 0.  1.
         22    1    1    2    0    0 -0.11506093319E+04  0.56530638974E+03  0.25625366948E+03  0.13073404652E+04  0.00000000000E+00 0. -1.
<mgrwt>
<rscale>  0 0.25685125E+04</rscale>
<asrwt>0</asrwt>
<pdfrwt beam="1">  1        2 0.16734890E+00 0.25685125E+04</pdfrwt>
<pdfrwt beam="2">  1       -2 0.23326727E+00 0.25685125E+04</pdfrwt>
<totfact> 0.16036324E+00</totfact>
</mgrwt>
</event>
<event>
 6    1  0.2325157E-005  0.3696420E+04  0.7818608E-02  0.8068756E-01
          1   -1    0    0  501    0  0.00000000000E+00  0.00000000000E+00  0.40439366838E+04  0.40439366838E+04  0.00000000000E+00 0.  1.
         -1   -1    0    0    0  501 -0.00000000000E+00 -0.00000000000E+00 -0.84469179350E+03  0.84469179350E+03  0.00000000000E+00 0. -1.
         23    2    1    2    0    0  0.32498277398E+02 -0.18382788510E+04  0.18343751841E+04  0.25988261743E+04  0.92951042614E+02 0.  0.
         13    1    3    3    0    0  0.18739412741E+02 -0.68570305912E+03  0.74773238271E+03  0.10147135394E+04  0.00000000000E+00 0.  1.
        -13    1    3    3    0    0  0.13758864656E+02 -0.11525757918E+04  0.10866428014E+04  0.15841126349E+04  0.00000000000E+00 0. -1.
         22    1    1    2    0    0 -0.32498277398E+02  0.18382788510E+04  0.13648697062E+04  0.22898023030E+04  0.00000000000E+00 0. -1.
<mgrwt>
<rscale>  0 0.36964200E+04</rscale>
<asrwt>0</asrwt>
<pdfrwt beam="1">  1        1 0.62214409E+00 0.36964200E+04</pdfrwt>
<pdfrwt beam="2">  1       -1 0.12995259E+00 0.36964200E+04</pdfrwt>
<totfact> 0.35630671E-02</totfact>
</mgrwt>
</event>
<event>
 6    1  0.2325157E-005  0.2511694E+04  0.7818608E-02  0.8398831E-01
         -2   -1    0    0    0  501 -0.00000000000E+00  0.00000000000E+00  0.84564452345E+03  0.84564452345E+03  0.00000000000E+00 0. -1.
          2   -1    0    0  501    0  0.00000000000E+00 -0.00000000000E+00 -0.18650291398E+04  0.18650291398E+04  0.00000000000E+00 0.  1.
         23    2    1    2    0    0  0.12037517254E+03  0.65338924619E+03  0.63760443175E+03  0.92545087752E+03  0.92261726110E+02 0.  0.
         11    1    3    3    0    0  0.13176493264E+03  0.61928258930E+03  0.58713258919E+03  0.86347993617E+03  0.00000000000E+00 0. -1.
        -11    1    3    3    0    0 -0.11389760103E+02  0.34106656891E+02  0.50471842558E+02  0.61970941342E+02  0.00000000000E+00 0.  1.
         22    1    1    2    0    0 -0.12037517254E+03 -0.65338924619E+03 -0.16569890481E+04  0.17852227858E+04  0.00000000000E+00 0.  1.
<mgrwt>
<rscale>  0 0.25116940E+04</rscale>
<asrwt>0</asrwt>
<pdfrwt beam="1">  1        2 0.28692756E+00 0.25116940E+04</pdfrwt>
<pdfrwt beam="2">  1       -2 0.13009916E+00 0.25116940E+04</pdfrwt>
<totfact> 0.30671099E+00</totfact>
</mgrwt>
</event>
<event>
 6    1  0.2325157E-005  0.8524612E+03  0.7818608E-02  0.9487040E-01
         -2   -1    0    0    0  501 -0.00000000000E+00  0.00000000000E+00  0.13211763342E+03  0.13211763342E+03  0.00000000000E+00 0. -1.
          2   -1    0    0  501    0  0.00000000000E+00 -0.00000000000E+00 -0.13750815943E+04  0.13750815943E+04  0.00000000000E+00 0.  1.
         23    2    1    2    0    0  0.17455282894E+02  0.40964781989E+03 -0.45141148383E+03  0.61575582113E+03  0.85245998656E+02 0.  0.
         11    1    3    3    0    0 -0.10930931463E+02  0.36425808803E+03 -0.37994328537E+03  0.52646019798E+03  0.00000000000E+00 0.  1.
        -11    1    3    3    0    0  0.28386214357E+02  0.45389731860E+02 -0.71468198457E+02  0.89295623155E+02  0.00000000000E+00 0. -1.
         22    1    1    2    0    0 -0.17455282894E+02 -0.40964781989E+03 -0.79155247707E+03  0.89144340661E+03  0.00000000000E+00 0. -1.
<mgrwt>
<rscale>  0 0.85246120E+03</rscale>
<asrwt>0</asrwt>
<pdfrwt beam="1">  1        2 0.21155102E+00 0.85246120E+03</pdfrwt>
<pdfrwt beam="2">  1       -2 0.20325790E-01 0.85246120E+03</pdfrwt>
<totfact> 0.31187179E+02</totfact>
</mgrwt>
</event>
<event>
 6    1  0.2325157E-005  0.3759448E+04  0.7818608E-02  0.8054914E-01
          2   -1    0    0  501    0  0.00000000000E+00  0.00000000000E+00  0.23642750747E+04  0.23642750747E+04  0.00000000000E+00 0.  1.
         -2   -1    0    0    0  501 -0.00000000000E+00 -0.00000000000E+00 -0.14944803736E+04  0.14944803736E+04  0.00000000000E+00 0. -1.
         23    2    1    2    0    0 -0.10533373377E+04 -0.33407241137E+03 -0.11243182438E+04  0.15789286214E+04  0.88318486977E+02 0.  0.
         13    1    3    3    0    0 -0.90453598403E+03 -0.25733118660E+03 -0.97423023113E+03  0.13540787382E+04  0.00000000000E+00 0. -1.
        -13    1    3    3    0    0 -0.14880135372E+03 -0.76741224765E+02 -0.15008801268E+03  0.22484988325E+03  0.00000000000E+00 0.  1.
         22    1    1    2    0    0  0.10533373377E+04  0.33407241137E+03  0.19941129450E+04  0.22798268269E+04  0.00000000000E+00 0.  1.
<mgrwt>
<rscale>  0 0.37594482E+04</rscale>
<asrwt>0</asrwt>
<pdfrwt beam="1">  1        2 0.36373463E+00 0.37594482E+04</pdfrwt>
<pdfrwt beam="2">  1       -2 0.22992006E+00 0.37594482E+04</pdfrwt>
<totfact> 0.28696262E-01</totfact>
</mgrwt>
</event>
<event>
 6    1  0.2325157E-005  0.2616964E+04  0.7818608E-02  0.8362462E-01
          2   -1    0    0  501    0  0.00000000000E+00  0.00000000000E+00  0.27346153675E+04  0.27346153675E+04  0.00000000000E+00 0. -1.
         -2   -1    0    0    0  501 -0.00000000000E+00 -0.00000000000E+00 -0.62609353596E+03  0.62609353596E+03  0.00000000000E+00 0.  1.
         23    2    1    2    0    0  0.86824859544E+03 -0.53089033600E+02 -0.19818010956E+03  0.89544057850E+03  0.76579402097E+02 0.  0.
         11    1    3    3    0    0  0.65184076368E+03 -0.72502923989E+02 -0.14308080266E+03  0.67128620667E+03  0.00000000000E+00 0. -1.
        -11    1    3    3    0    0  0.21640783176E+03  0.19413890389E+02 -0.55099306900E+02  0.22415437183E+03  0.00000000000E+00 0.  1.
         22    1    1    2    0    0 -0.86824859544E+03  0.53089033600E+02  0.23067019411E+04  0.24652683250E+04  0.00000000000E+00 0. -1.
<mgrwt>
<rscale>  0 0.26169639E+04</rscale>
<asrwt>0</asrwt>
<pdfrwt beam="1">  1        2 0.42071005E+00 0.26169639E+04</pdfrwt>
<pdfrwt beam="2">  1       -2 0.96322083E-01 0.26169639E+04</pdfrwt>
<totfact> 0.20175778E+00</totfact>
</mgrwt>
</event>
<event>
 6    1  0.2325157E-005  0.2427926E+04  0.7818608E-02  0.8429122E-01
         -2   -1    0    0    0  501 -0.00000000000E+00  0.00000000000E+00  0.35405748953E+03  0.35405748953E+03  0.00000000000E+00 0. -1.
          2   -1    0    0  501    0  0.00000000000E+00 -0.00000000000E+00 -0.41623358072E+04  0.41623358072E+04  0.00000000000E+00 0.  1.
         23    2    1    2    0    0 -0.23185986498E+03  0.55440242436E+03 -0.38658703955E+04  0.39127063808E+04  0.56535498059E+02 0.  0.
         13    1    3    3    0    0 -0.74958476069E+02  0.12921985043E+03 -0.86474390923E+03  0.87755260323E+03  0.00000000000E+00 0.  1.
        -13    1    3    3    0    0 -0.15690138891E+03  0.42518257394E+03 -0.30011264862E+04  0.30351537775E+04  0.00000000000E+00 0. -1.
         22    1    1    2    0    0  0.23185986498E+03 -0.55440242436E+03  0.57592077744E+02  0.60368691600E+03  0.00000000000E+00 0. -1.
<mgrwt>
<rscale>  0 0.24279260E+04</rscale>
<asrwt>0</asrwt>
<pdfrwt beam="1">  1        2 0.64035940E+00 0.24279260E+04</pdfrwt>
<pdfrwt beam="2">  1       -2 0.54470379E-01 0.24279260E+04</pdfrwt>
<totfact> 0.71688662E-01</totfact>
</mgrwt>
</event>
<event>
 6    1  0.2325157E-005  0.1206516E+04  0.7818608E-02  0.9107172E-01
          2   -1    0    0  501    0  0.00000000000E+00  0.00000000000E+00  0.16829538669E+04  0.16829538669E+04  0.00000000000E+00 0.  1.
         -2   -1    0    0    0  501 -0.00000000000E+00 -0.00000000000E+00 -0.21623884031E+03  0.21623884031E+03  0.00000000000E+00 0. -1.
         23    2    1    2    0    0 -0.55745005415E+03  0.19776539602E+03  0.58118413352E+03  0.83428582052E+03  0.91630336259E+02 0.  0.
         11    1    3    3    0    0 -0.18423334263E+03  0.10899790103E+03  0.22978249163E+03  0.31404213161E+03  0.00000000000E+00 0. -1.
        -11    1    3    3    0    0 -0.37321671152E+03  0.88767494995E+02  0.35140164189E+03  0.52024368891E+03  0.00000000000E+00 0.  1.
         22    1    1    2    0    0  0.55745005415E+03 -0.19776539602E+03  0.88553089302E+03  0.10649068866E+04  0.00000000000E+00 0. -1.
<mgrwt>
<rscale>  0 0.12065156E+04</rscale>
<asrwt>0</asrwt>
<pdfrwt beam="1">  1        2 0.25891597E+00 0.12065156E+04</pdfrwt>
<pdfrwt beam="2">  1       -2 0.33267515E-01 0.12065156E+04</pdfrwt>
<totfact> 0.83423824E+01</totfact>
</mgrwt>
</event>
<event>
 6    1  0.2325157E-005  0.4728339E+04  0.7818608E-02  0.7871837E-01
         -2   -1    0    0    0  501 -0.00000000000E+00  0.00000000000E+00  0.22946097749E+04  0.22946097749E+04  0.00000000000E+00 0. -1.
          2   -1    0    0  501    0  0.00000000000E+00 -0.00000000000E+00 -0.24358379719E+04  0.24358379719E+04  0.00000000000E+00 0.  1.
         23    2    1    2    0    0  0.15388945140E+04 -0.14927186209E+04 -0.10654490810E+04  0.23957979982E+04  0.90890581955E+02 0.  0.
         13    1    3    3    0    0  0.12164448404E+04 -0.11953205986E+04 -0.88601187502E+03  0.19218601474E+04  0.00000000000E+00 0.  1.
        -13    1    3    3    0    0  0.32244967355E+03 -0.29739802223E+03 -0.17943720597E+03  0.47393785086E+03  0.00000000000E+00 0. -1.
         22    1    1    2    0    0 -0.15388945140E+04  0.14927186209E+04  0.92422088394E+03  0.23346497486E+04  0.00000000000E+00 0. -1.
<mgrwt>
<rscale>  0 0.47283391E+04</rscale>
<asrwt>0</asrwt>
<pdfrwt beam="1">  1        2 0.37474430E+00 0.47283391E+04</pdfrwt>
<pdfrwt beam="2">  1       -2 0.35301689E+00 0.47283391E+04</pdfrwt>
<totfact> 0.41998984E-02</totfact>
</mgrwt>
</event>
<event>
 6    1  0.2325157E-005  0.2247386E+04  0.7818608E-02  0.8498960E-01
         -2   -1    0    0    0  501 -0.00000000000E+00  0.00000000000E+00  0.14121702735E+04  0.14121702735E+04  0.00000000000E+00 0. -1.
          2   -1    0    0  501    0  0.00000000000E+00 -0.00000000000E+00 -0.89414577110E+03  0.89414577110E+03  0.00000000000E+00 0.  1.
         23    2    1    2    0    0  0.34427880411E+03  0.10373879367E+04  0.51887047125E+03  0.12132916433E+04  0.90268596242E+02 0.  0.
         13    1    3    3    0    0  0.71544498025E+02  0.20579038118E+03  0.64649568793E+02  0.22726166181E+03  0.00000000000E+00 0.  1.
        -13    1    3    3    0    0  0.27273430608E+03  0.83159755555E+03  0.45422090246E+03  0.98602998146E+03  0.00000000000E+00 0. -1.
         22    1    1    2    0    0 -0.34427880411E+03 -0.10373879367E+04 -0.84596885083E+00  0.10930244013E+04  0.00000000000E+00 0.  1.
<mgrwt>
<rscale>  0 0.22473861E+04</rscale>
<asrwt>0</asrwt>
<pdfrwt beam="1">  1        2 0.13756089E+00 0.22473861E+04</pdfrwt>
<pdfrwt beam="2">  1       -2 0.21725696E+00 0.22473861E+04</pdfrwt>
<totfact> 0.27710728E+00</totfact>
</mgrwt>
</event>
<event>
 6    1  0.2325157E-005  0.5223031E+04  0.7818608E-02  0.7794994E-01
         -2   -1    0    0    0  501 -0.00000000000E+00  0.00000000000E+00  0.21995211001E+04  0.21995211001E+04  0.00000000000E+00 0. -1.
          2   -1    0    0  501    0  0.00000000000E+00 -0.00000000000E+00 -0.31006804120E+04  0.31006804120E+04  0.00000000000E+00 0.  1.
         23    2    1    2    0    0 -0.20986453814E+03 -0.48506195731E+03  0.21437432397E+04  0.22097711577E+04  0.90140251125E+02 0.  0.
         11    1    3    3    0    0 -0.10593666433E+03 -0.19126232410E+03  0.10485099254E+04  0.10710634515E+04  0.00000000000E+00 0.  1.
        -11    1    3    3    0    0 -0.10392787381E+03 -0.29379963322E+03  0.10952333143E+04  0.11387077062E+04  0.00000000000E+00 0. -1.
         22    1    1    2    0    0  0.20986453814E+03  0.48506195731E+03 -0.30449025516E+04  0.30904303544E+04  0.00000000000E+00 0.  1.
<mgrwt>
<rscale>  0 0.52230305E+04</rscale>
<asrwt>0</asrwt>
<pdfrwt beam="1">  1        2 0.47702776E+00 0.52230305E+04</pdfrwt>
<pdfrwt beam="2">  1       -2 0.33838786E+00 0.52230305E+04</pdfrwt>
<totfact> 0.19776863E-02</totfact>
</mgrwt>
</event>
<event>
 6    1  0.2325157E-005  0.1446157E+04  0.7818608E-02  0.8921069E-01
         -2   -1    0    0    0  501 -0.00000000000E+00  0.00000000000E+00  0.13911307055E+04  0.13911307055E+04  0.00000000000E+00 0. -1.
          2   -1    0    0  501    0  0.00000000000E+00 -0.00000000000E+00 -0.37584014741E+03  0.37584014741E+03  0.00000000000E+00 0.  1.
         23    2    1    2    0    0 -0.69288790806E+03  0.85035771728E+02  0.72594726300E+03  0.10112961358E+04  0.91628107618E+02 0.  0.
         11    1    3    3    0    0 -0.37725332337E+03  0.19906290175E+01  0.40699521612E+03  0.55494967208E+03  0.00000000000E+00 0.  1.
        -11    1    3    3    0    0 -0.31563458469E+03  0.83045142710E+02  0.31895204688E+03  0.45634646376E+03  0.00000000000E+00 0. -1.
         22    1    1    2    0    0  0.69288790806E+03 -0.85035771728E+02  0.28934329510E+03  0.75567471707E+03  0.00000000000E+00 0. -1.
<mgrwt>
<rscale>  0 0.14461573E+04</rscale>
<asrwt>0</asrwt>
<pdfrwt beam="1">  1        2 0.57821562E-01 0.14461573E+04</pdfrwt>
<pdfrwt beam="2">  1       -2 0.21402011E+00 0.14461573E+04</pdfrwt>
<totfact> 0.89223658E+00</totfact>
</mgrwt>
</event>
<event>
 6    1  0.2325157E-005  0.3024775E+04  0.7818608E-02  0.8236691E-01
         -1   -1    0    0    0  501 -0.00000000000E+00  0.00000000000E+00  0.81527765847E+03  0.81527765847E+03  0.00000000000E+00 0. -1.
          1   -1    0    0  501    0  0.00000000000E+00 -0.00000000000E+00 -0.28055668892E+04  0.28055668892E+04  0.00000000000E+00 0.  1.
         23    2    1    2    0    0 -0.78819252797E+03 -0.11830614093E+04 -0.16084537931E+04  0.21488798535E+04  0.98383234020E+02 0.  0.
         11    1    3    3    0    0 -0.42776025130E+03 -0.72768497210E+03 -0.93910663199E+03  0.12627056337E+04  0.00000000000E+00 0. -1.
        -11    1    3    3    0    0 -0.36043227666E+03 -0.45537643724E+03 -0.66934716113E+03  0.88617421976E+03  0.00000000000E+00 0.  1.
         22    1    1    2    0    0  0.78819252797E+03  0.11830614093E+04 -0.38183543758E+03  0.14719646941E+04  0.00000000000E+00 0.  1.
<mgrwt>
<rscale>  0 0.30247750E+04</rscale>
<asrwt>0</asrwt>
<pdfrwt beam="1">  1        1 0.43162568E+00 0.30247750E+04</pdfrwt>
<pdfrwt beam="2">  1       -1 0.12542733E+00 0.30247750E+04</pdfrwt>
<totfact> 0.38890493E-01</totfact>
</mgrwt>
</event>
<event>
 6    1  0.2325157E-005  0.1275681E+04  0.7818608E-02  0.9049076E-01
         -2   -1    0    0    0  501 -0.00000000000E+00  0.00000000000E+00  0.44758709775E+03  0.44758709775E+03  0.00000000000E+00 0. -1.
          2   -1    0    0  501    0  0.00000000000E+00 -0.00000000000E+00 -0.90896355307E+03  0.90896355307E+03  0.00000000000E+00 0.  1.
         23    2    1    2    0    0 -0.43329036011E+03 -0.33122331985E+03  0.11299424743E+03  0.56449564771E+03  0.91859743871E+02 0.  0.
         11    1    3    3    0    0 -0.94208739996E+02 -0.31380324523E+02  0.65766677935E+01  0.99515144667E+02  0.00000000000E+00 0. -1.
        -11    1    3    3    0    0 -0.33908162012E+03 -0.29984299533E+03  0.10641757964E+03  0.46498050304E+03  0.00000000000E+00 0.  1.
         22    1    1    2    0    0  0.43329036011E+03  0.33122331985E+03 -0.57437070275E+03  0.79205500312E+03  0.00000000000E+00 0.  1.
<mgrwt>
<rscale>  0 0.12756808E+04</rscale>
<asrwt>0</asrwt>
<pdfrwt beam="1">  1        2 0.13984055E+00 0.12756808E+04</pdfrwt>
<pdfrwt beam="2">  1       -2 0.68859554E-01 0.12756808E+04</pdfrwt>
<totfact> 0.54716925E+01</totfact>
</mgrwt>
</event>
<event>
 6    1  0.2325157E-005  0.1745625E+04  0.7818608E-02  0.8735762E-01
         -2   -1    0    0    0  501 -0.00000000000E+00  0.00000000000E+00  0.75940143628E+03  0.75940143628E+03  0.00000000000E+00 0. -1.
          2   -1    0    0  501    0  0.00000000000E+00 -0.00000000000E+00 -0.10031608868E+04  0.10031608868E+04  0.00000000000E+00 0.  1.
         23    2    1    2    0    0 -0.34766526787E+03 -0.57383872613E+03 -0.68215769536E+03  0.96109177274E+03  0.90533155178E+02 0.  0.
         13    1    3    3    0    0 -0.30415966358E+03 -0.46487353169E+03 -0.51996301393E+03  0.76090869181E+03  0.00000000000E+00 0. -1.
        -13    1    3    3    0    0 -0.43505604290E+02 -0.10896519444E+03 -0.16219468144E+03  0.20018308093E+03  0.00000000000E+00 0.  1.
         22    1    1    2    0    0  0.34766526787E+03  0.57383872613E+03  0.43839824480E+03  0.80147055038E+03  0.00000000000E+00 0. -1.
<mgrwt>
<rscale>  0 0.17456252E+04</rscale>
<asrwt>0</asrwt>
<pdfrwt beam="1">  1        2 0.15433244E+00 0.17456252E+04</pdfrwt>
<pdfrwt beam="2">  1       -2 0.11683099E+00 0.17456252E+04</pdfrwt>
<totfact> 0.13486018E+01</totfact>
</mgrwt>
</event>
<event>
 6    1  0.2325157E-005  0.3382141E+04  0.7818608E-02  0.8142304E-01
          2   -1    0    0  501    0  0.00000000000E+00  0.00000000000E+00  0.39157044394E+04  0.39157044394E+04  0.00000000000E+00 0.  1.
         -2   -1    0    0    0  501 -0.00000000000E+00 -0.00000000000E+00 -0.73032039876E+03  0.73032039876E+03  0.00000000000E+00 0. -1.
         23    2    1    2    0    0  0.37055691245E+03 -0.12481921284E+04  0.11418557660E+03  0.13102256805E+04  0.91416482078E+02 0.  0.
         11    1    3    3    0    0  0.24314434747E+03 -0.67266414686E+03  0.80965652244E+02  0.71982752449E+03  0.00000000000E+00 0. -1.
        -11    1    3    3    0    0  0.12741256499E+03 -0.57552798153E+03  0.33219924353E+02  0.59039815601E+03  0.00000000000E+00 0.  1.
         22    1    1    2    0    0 -0.37055691245E+03  0.12481921284E+04  0.30711984641E+04  0.33357991577E+04  0.00000000000E+00 0.  1.
<mgrwt>
<rscale>  0 0.33821406E+04</rscale>
<asrwt>0</asrwt>
<pdfrwt beam="1">  1        2 0.60241605E+00 0.33821406E+04</pdfrwt>
<pdfrwt beam="2">  1       -2 0.11235699E+00 0.33821406E+04</pdfrwt>
<totfact> 0.20640359E-01</totfact>
</mgrwt>
</event>
<event>
 6    1  0.2325157E-005  0.8544120E+03  0.7818608E-02  0.9484434E-01
         -2   -1    0    0    0  501 -0.00000000000E+00  0.00000000000E+00  0.25035326473E+03  0.25035326473E+03  0.00000000000E+00 0. -1.
          2   -1    0    0  501    0  0.00000000000E+00 -0.00000000000E+00 -0.72898976646E+03  0.72898976646E+03  0.00000000000E+00 0.  1.
         23    2    1    2    0    0  0.36634964759E+02 -0.21433141486E+03  0.17331849332E+03  0.29208369759E+03  0.89406432841E+02 0.  0.
         11    1    3    3    0    0  0.57180068222E+02 -0.18726251831E+03  0.12253759104E+03  0.23098110786E+03  0.00000000000E+00 0.  1.
        -11    1    3    3    0    0 -0.20545103463E+02 -0.27068896544E+02  0.50780902274E+02  0.61102589734E+02  0.00000000000E+00 0. -1.
         22    1    1    2    0    0 -0.36634964759E+02  0.21433141486E+03 -0.65195499505E+03  0.68725933360E+03  0.00000000000E+00 0.  1.
<mgrwt>
<rscale>  0 0.85441200E+03</rscale>
<asrwt>0</asrwt>
<pdfrwt beam="1">  1        2 0.11215227E+00 0.85441200E+03</pdfrwt>
<pdfrwt beam="2">  1       -2 0.38515887E-01 0.85441200E+03</pdfrwt>
<totfact> 0.24869067E+02</totfact>
</mgrwt>
</event>
<event>
 6    1  0.2325157E-005  0.5344360E+04  0.7818608E-02  0.7777476E-01
          2   -1    0    0  501    0  0.00000000000E+00  0.00000000000E+00  0.19388247141E+04  0.19388247141E+04  0.00000000000E+00 0.  1.
         -2   -1    0    0    0  501 -0.00000000000E+00 -0.00000000000E+00 -0.36829243299E+04  0.36829243299E+04  0.00000000000E+00 0. -1.
         23    2    1    2    0    0  0.76311959793E+03 -0.12051748563E+04  0.15035996635E+04  0.20745884099E+04  0.91143665005E+02 0.  0.
         13    1    3    3    0    0  0.55140872819E+03 -0.84516428661E+03  0.10055193261E+04  0.14245783137E+04  0.00000000000E+00 0. -1.
        -13    1    3    3    0    0  0.21171086973E+03 -0.36001056971E+03  0.49808033741E+03  0.65001009621E+03  0.00000000000E+00 0.  1.
         22    1    1    2    0    0 -0.76311959793E+03  0.12051748563E+04 -0.32476992793E+04  0.35471606341E+04  0.00000000000E+00 0. -1.
<mgrwt>
<rscale>  0 0.53443595E+04</rscale>
<asrwt>0</asrwt>
<pdfrwt beam="1">  1        2 0.29828073E+00 0.53443595E+04</pdfrwt>
<pdfrwt beam="2">  1       -2 0.56660374E+00 0.53443595E+04</pdfrwt>
<totfact> 0.36696384E-03</totfact>
</mgrwt>
</event>
<event>
 6    1  0.2970262E-005  0.3256575E+04  0.7818608E-02  0.8174034E-01
         -2   -1    0    0    0  501 -0.00000000000E+00  0.00000000000E+00  0.10173645696E+04  0.10173645696E+04  0.00000000000E+00 0. -1.
          2   -1    0    0  501    0  0.00000000000E+00 -0.00000000000E+00 -0.26060664906E+04  0.26060664906E+04  0.00000000000E+00 0.  1.
         23    2    1    2    0    0 -0.31541728867E+03  0.32829040917E+03 -0.25329362947E+04  0.25751747885E+04  0.92175156859E+02 0.  0.
         11    1    3    3    0    0 -0.28776733788E+03  0.26099778508E+03 -0.20098174806E+04  0.20470212969E+04  0.00000000000E+00 0. -1.
        -11    1    3    3    0    0 -0.27649950788E+02  0.67292624097E+02 -0.52311881409E+03  0.52815349160E+03  0.00000000000E+00 0.  1.
         22    1    1    2    0    0  0.31541728867E+03 -0.32829040917E+03  0.94423437365E+03  0.10482562717E+04  0.00000000000E+00 0. -1.
<mgrwt>
<rscale>  0 0.32565747E+04</rscale>
<asrwt>0</asrwt>
<pdfrwt beam="1">  1        2 0.40093331E+00 0.32565747E+04</pdfrwt>
<pdfrwt beam="2">  1       -2 0.15651763E+00 0.32565747E+04</pdfrwt>
<totfact> 0.67629895E-01</totfact>
</mgrwt>
</event>
<event>
 6    1  0.2325157E-005  0.3858683E+04  0.7818608E-02  0.8033678E-01
          2   -1    0    0  501    0  0.00000000000E+00  0.00000000000E+00  0.17545933362E+04  0.17545933362E+04  0.00000000000E+00 0.  1.
         -2   -1    0    0    0  501 -0.00000000000E+00 -0.00000000000E+00 -0.21214939924E+04  0.21214939924E+04  0.00000000000E+00 0. -1.
         23    2    1    2    0    0 -0.83740367314E+03 -0.71862636159E+03  0.14048944698E+04  0.17887620717E+04  0.90953385752E+02 0.  0.
         11    1    3    3    0    0 -0.48637017435E+03 -0.40559790257E+03  0.87671931935E+03  0.10815277944E+04  0.00000000000E+00 0. -1.
        -11    1    3    3    0    0 -0.35103349879E+03 -0.31302845903E+03  0.52817515049E+03  0.70723427733E+03  0.00000000000E+00 0.  1.
         22    1    1    2    0    0  0.83740367314E+03  0.71862636159E+03 -0.17717951260E+04  0.20873252569E+04  0.00000000000E+00 0. -1.
<mgrwt>
<rscale>  0 0.38586833E+04</rscale>
<asrwt>0</asrwt>
<pdfrwt beam="1">  1        2 0.26993744E+00 0.38586833E+04</pdfrwt>
<pdfrwt beam="2">  1       -2 0.32638369E+00 0.38586833E+04</pdfrwt>
<totfact> 0.15949726E-01</totfact>
</mgrwt>
</event>
<event>
 6    1  0.2325157E-005  0.1370872E+04  0.7818608E-02  0.8975177E-01
          2   -1    0    0  501    0  0.00000000000E+00  0.00000000000E+00  0.39098817176E+03  0.39098817176E+03  0.00000000000E+00 0.  1.
         -2   -1    0    0    0  501 -0.00000000000E+00 -0.00000000000E+00 -0.12016284294E+04  0.12016284294E+04  0.00000000000E+00 0. -1.
         23    2    1    2    0    0 -0.28408012726E+03  0.48256348452E+03 -0.86087690624E+03  0.10303953315E+04  0.83883586568E+02 0.  0.
         13    1    3    3    0    0 -0.16587443206E+03  0.27066038648E+03 -0.41172976894E+03  0.51989688848E+03  0.00000000000E+00 0.  1.
        -13    1    3    3    0    0 -0.11820569520E+03  0.21190309804E+03 -0.44914713730E+03  0.51049844298E+03  0.00000000000E+00 0. -1.
         22    1    1    2    0    0  0.28408012726E+03 -0.48256348452E+03  0.50236648561E+02  0.56222126975E+03  0.00000000000E+00 0.  1.
<mgrwt>
<rscale>  0 0.13708720E+04</rscale>
<asrwt>0</asrwt>
<pdfrwt beam="1">  1        2 0.60152026E-01 0.13708720E+04</pdfrwt>
<pdfrwt beam="2">  1       -2 0.18486591E+00 0.13708720E+04</pdfrwt>
<totfact> 0.13346329E+01</totfact>
</mgrwt>
</event>
<event>
 6    1  0.2325157E-005  0.6656793E+04  0.7818608E-02  0.7613905E-01
          2   -1    0    0  501    0  0.00000000000E+00  0.00000000000E+00  0.31374437839E+04  0.31374437839E+04  0.00000000000E+00 0.  1.
         -2   -1    0    0    0  501 -0.00000000000E+00 -0.00000000000E+00 -0.35309708843E+04  0.35309708843E+04  0.00000000000E+00 0. -1.
         23    2    1    2    0    0 -0.10253221231E+04  0.27633499988E+04 -0.17443978567E+04  0.34261561232E+04  0.90737123215E+02 0.  0.
         11    1    3    3    0    0 -0.50520870665E+03  0.14788549044E+04 -0.94738917412E+03  0.18275103045E+04  0.00000000000E+00 0.  1.
        -11    1    3    3    0    0 -0.52011341650E+03  0.12844950944E+04 -0.79700868262E+03  0.15986458187E+04  0.00000000000E+00 0. -1.
         22    1    1    2    0    0  0.10253221231E+04 -0.27633499988E+04  0.13508707563E+04  0.32422585450E+04  0.00000000000E+00 0. -1.
<mgrwt>
<rscale>  0 0.66567928E+04</rscale>
<asrwt>0</asrwt>
<pdfrwt beam="1">  1        2 0.48268366E+00 0.66567928E+04</pdfrwt>
<pdfrwt beam="2">  1       -2 0.54322629E+00 0.66567928E+04</pdfrwt>
<totfact> 0.86175375E-04</totfact>
</mgrwt>
</event>
<event>
 6    1  0.2325157E-005  0.1091396E+04  0.7818608E-02  0.9213618E-01
         -2   -1    0    0    0  501 -0.00000000000E+00  0.00000000000E+00  0.35339459258E+03  0.35339459258E+03  0.00000000000E+00 0. -1.
          2   -1    0    0  501    0  0.00000000000E+00 -0.00000000000E+00 -0.84264592182E+03  0.84264592182E+03  0.00000000000E+00 0.  1.
         23    2    1    2    0    0  0.44644482187E+03  0.45584032539E+02 -0.57901808795E+03  0.73838458035E+03  0.92514643854E+02 0.  0.
         11    1    3    3    0    0  0.18731001360E+03 -0.11096413108E+02 -0.29622992948E+03  0.35065701576E+03  0.00000000000E+00 0.  1.
        -11    1    3    3    0    0  0.25913480827E+03  0.56680445647E+02 -0.28278815847E+03  0.38772756459E+03  0.00000000000E+00 0. -1.
         22    1    1    2    0    0 -0.44644482187E+03 -0.45584032539E+02  0.89766758713E+02  0.45765593404E+03  0.00000000000E+00 0. -1.
<mgrwt>
<rscale>  0 0.10913964E+04</rscale>
<asrwt>0</asrwt>
<pdfrwt beam="1">  1        2 0.12963783E+00 0.10913964E+04</pdfrwt>
<pdfrwt beam="2">  1       -2 0.54368399E-01 0.10913964E+04</pdfrwt>
<totfact> 0.10161447E+02</totfact>
</mgrwt>
</event>
<event>
 6    1  0.2325157E-005  0.1778426E+04  0.7818608E-02  0.8717857E-01
         -4   -1    0    0    0  501 -0.00000000000E+00  0.00000000000E+00  0.74425729994E+03  0.74425729994E+03  0.00000000000E+00 0. -1.
          4   -1    0    0  501    0  0.00000000000E+00 -0.00000000000E+00 -0.10624014262E+04  0.10624014262E+04  0.00000000000E+00 0.  1.
         23    2    1    2    0    0 -0.81477899534E+03 -0.34852267608E+03 -0.19733129478E+03  0.91227144579E+03  0.89256282130E+02 0.  0.
         13    1    3    3    0    0 -0.53565455173E+03 -0.26987407926E+03 -0.11392031985E+03  0.61052080777E+03  0.00000000000E+00 0. -1.
        -13    1    3    3    0    0 -0.27912444361E+03 -0.78648596828E+02 -0.83410974929E+02  0.30175063802E+03  0.00000000000E+00 0.  1.
         22    1    1    2    0    0  0.81477899534E+03  0.34852267608E+03 -0.12081283148E+03  0.89438728035E+03  0.00000000000E+00 0. -1.
<mgrwt>
<rscale>  0 0.17784263E+04</rscale>
<asrwt>0</asrwt>
<pdfrwt beam="1">  1        4 0.16344637E+00 0.17784263E+04</pdfrwt>
<pdfrwt beam="2">  1       -4 0.11450112E+00 0.17784263E+04</pdfrwt>
<totfact> 0.26542604E-01</totfact>
</mgrwt>
</event>
<event>
 6    1  0.2325157E-005  0.2938928E+04  0.7818608E-02  0.8261388E-01
         -2   -1    0    0    0  501 -0.00000000000E+00  0.00000000000E+00  0.17855939768E+04  0.17855939768E+04  0.00000000000E+00 0. -1.
          2   -1    0    0  501    0  0.00000000000E+00 -0.00000000000E+00 -0.12093035700E+04  0.12093035700E+04  0.00000000000E+00 0.  1.
         23    2    1    2    0    0  0.32737386757E+03 -0.95932240339E+02 -0.11665896541E+04  0.12189449712E+04  0.92297225999E+02 0.  0.
         11    1    3    3    0    0  0.31447619754E+03 -0.68440462986E+02 -0.10343403255E+04  0.10832540259E+04  0.00000000000E+00 0.  1.
        -11    1    3    3    0    0  0.12897670033E+02 -0.27491777353E+02 -0.13224932861E+03  0.13569094528E+03  0.00000000000E+00 0. -1.
         22    1    1    2    0    0 -0.32737386757E+03  0.95932240339E+02  0.17428800609E+04  0.17759525756E+04  0.00000000000E+00 0. -1.
<mgrwt>
<rscale>  0 0.29389285E+04</rscale>
<asrwt>0</asrwt>
<pdfrwt beam="1">  1        2 0.18604670E+00 0.29389285E+04</pdfrwt>
<pdfrwt beam="2">  1       -2 0.27470677E+00 0.29389285E+04</pdfrwt>
<totfact> 0.72977673E-01</totfact>
</mgrwt>
</event>
<event>
 6    1  0.2325157E-005  0.3594501E+04  0.7818608E-02  0.8091753E-01
         -2   -1    0    0    0  501 -0.00000000000E+00  0.00000000000E+00  0.14132753704E+04  0.14132753704E+04  0.00000000000E+00 0. -1.
          2   -1    0    0  501    0  0.00000000000E+00 -0.00000000000E+00 -0.22855481356E+04  0.22855481356E+04  0.00000000000E+00 0.  1.
         23    2    1    2    0    0 -0.86347738177E+03  0.13915085434E+04 -0.11953918042E+04  0.20296035899E+04  0.91869207114E+02 0.  0.
         13    1    3    3    0    0 -0.50431874108E+03  0.73588204676E+03 -0.67666745298E+03  0.11197047027E+04  0.00000000000E+00 0.  1.
        -13    1    3    3    0    0 -0.35915864069E+03  0.65562649663E+03 -0.51872435125E+03  0.90989888716E+03  0.00000000000E+00 0. -1.
         22    1    1    2    0    0  0.86347738177E+03 -0.13915085434E+04  0.32311903901E+03  0.16692199162E+04  0.00000000000E+00 0. -1.
<mgrwt>
<rscale>  0 0.35945007E+04</rscale>
<asrwt>0</asrwt>
<pdfrwt beam="1">  1        2 0.35162279E+00 0.35945007E+04</pdfrwt>
<pdfrwt beam="2">  1       -2 0.21742698E+00 0.35945007E+04</pdfrwt>
<totfact> 0.38661594E-01</totfact>
</mgrwt>
</event>
<event>
 6    1  0.2325157E-005  0.2115526E+04  0.7818608E-02  0.8554435E-01
          2   -1    0    0  501    0  0.00000000000E+00  0.00000000000E+00  0.22334215491E+04  0.22334215491E+04  0.00000000000E+00 0.  1.
         -2   -1    0    0    0  501 -0.00000000000E+00 -0.00000000000E+00 -0.50096360028E+03  0.50096360028E+03  0.00000000000E+00 0. -1.
         23    2    1    2    0    0  0.74016361798E+03 -0.54309061353E+03  0.19486185683E+03  0.94357769518E+03  0.97867909545E+02 0.  0.
         13    1    3    3    0    0  0.10434586397E+03 -0.72787433237E+02  0.62416037683E+02  0.14171037903E+03  0.00000000000E+00 0.  1.
        -13    1    3    3    0    0  0.63581775401E+03 -0.47030318029E+03  0.13244581915E+03  0.80186731615E+03  0.00000000000E+00 0. -1.
         22    1    1    2    0    0 -0.74016361798E+03  0.54309061353E+03  0.15375960920E+04  0.17908074542E+04  0.00000000000E+00 0.  1.
<mgrwt>
<rscale>  0 0.21155263E+04</rscale>
<asrwt>0</asrwt>
<pdfrwt beam="1">  1        2 0.34360331E+00 0.21155263E+04</pdfrwt>
<pdfrwt beam="2">  1       -2 0.77071324E-01 0.21155263E+04</pdfrwt>
<totfact> 0.68390086E+00</totfact>
</mgrwt>
</event>
<event>
 6    1  0.2325157E-005  0.1718965E+04  0.7818608E-02  0.8750621E-01
          2   -1    0    0  501    0  0.00000000000E+00  0.00000000000E+00  0.13607320131E+04  0.13607320131E+04  0.00000000000E+00 0.  1.
         -2   -1    0    0    0  501 -0.00000000000E+00 -0.00000000000E+00 -0.54287725565E+03  0.54287725565E+03  0.00000000000E+00 0. -1.
         23    2    1    2    0    0  0.48778457339E+03 -0.79200268810E+02 -0.36546745230E+03  0.62124507527E+03  0.90401948145E+02 0.  0.
         11    1    3    3    0    0  0.29663068073E+02  0.15747387717E+02 -0.15554922063E+02  0.37011260824E+02  0.00000000000E+00 0.  1.
        -11    1    3    3    0    0  0.45812150532E+03 -0.94947656527E+02 -0.34991253024E+03  0.58423381444E+03  0.00000000000E+00 0. -1.
         22    1    1    2    0    0 -0.48778457339E+03  0.79200268810E+02  0.11833222098E+04  0.12823641935E+04  0.00000000000E+00 0.  1.
<mgrwt>
<rscale>  0 0.17189653E+04</rscale>
<asrwt>0</asrwt>
<pdfrwt beam="1">  1        2 0.20934339E+00 0.17189653E+04</pdfrwt>
<pdfrwt beam="2">  1       -2 0.83519578E-01 0.17189653E+04</pdfrwt>
<totfact> 0.18163305E+01</totfact>
</mgrwt>
</event>
<event>
 6    1  0.2325157E-005  0.1753173E+04  0.7818608E-02  0.8731606E-01
         -2   -1    0    0    0  501 -0.00000000000E+00  0.00000000000E+00  0.55672286280E+03  0.55672286280E+03  0.00000000000E+00 0. -1.
          2   -1    0    0  501    0  0.00000000000E+00 -0.00000000000E+00 -0.13802273116E+04  0.13802273116E+04  0.00000000000E+00 0.  1.
         23    2    1    2    0    0 -0.98489133319E+02 -0.79249786695E+03 -0.19962790016E+02  0.80406351816E+03  0.91469392419E+02 0.  0.
         13    1    3    3    0    0 -0.74981333611E+02 -0.61207498775E+03 -0.53810804545E+02  0.61899401750E+03  0.00000000000E+00 0.  1.
        -13    1    3    3    0    0 -0.23507799708E+02 -0.18042287920E+03  0.33848014529E+02  0.18506950066E+03  0.00000000000E+00 0. -1.
         22    1    1    2    0    0  0.98489133319E+02  0.79249786695E+03 -0.80354165880E+03  0.11328866563E+04  0.00000000000E+00 0.  1.
<mgrwt>
<rscale>  0 0.17531732E+04</rscale>
<asrwt>0</asrwt>
<pdfrwt beam="1">  1        2 0.21234266E+00 0.17531732E+04</pdfrwt>
<pdfrwt beam="2">  1       -2 0.85649672E-01 0.17531732E+04</pdfrwt>
<totfact> 0.16668411E+01</totfact>
</mgrwt>
</event>
<event>
 6    1  0.2325157E-005  0.5199121E+04  0.7818608E-02  0.7798504E-01
          2   -1    0    0  501    0  0.00000000000E+00  0.00000000000E+00  0.15135208504E+04  0.15135208504E+04  0.00000000000E+00 0.  1.
         -2   -1    0    0    0  501 -0.00000000000E+00 -0.00000000000E+00 -0.44648963772E+04  0.44648963772E+04  0.00000000000E+00 0. -1.
         23    2    1    2    0    0  0.14646432707E+04 -0.20003224859E+04 -0.23723442659E+04  0.34324896640E+04  0.86591104928E+02 0.  0.
         13    1    3    3    0    0  0.97550440797E+03 -0.13969948105E+04 -0.16464849150E+04  0.23694125698E+04  0.00000000000E+00 0.  1.
        -13    1    3    3    0    0  0.48913886275E+03 -0.60332767543E+03 -0.72585935088E+03  0.10630770942E+04  0.00000000000E+00 0. -1.
         22    1    1    2    0    0 -0.14646432707E+04  0.20003224859E+04 -0.57903126097E+03  0.25459275636E+04  0.00000000000E+00 0.  1.
<mgrwt>
<rscale>  0 0.51991206E+04</rscale>
<asrwt>0</asrwt>
<pdfrwt beam="1">  1        2 0.23284936E+00 0.51991206E+04</pdfrwt>
<pdfrwt beam="2">  1       -2 0.68690713E+00 0.51991206E+04</pdfrwt>
<totfact> 0.22849052E-03</totfact>
</mgrwt>
</event>
<event>
 6    1  0.2325157E-005  0.1663616E+04  0.7818608E-02  0.8782392E-01
          2   -1    0    0  501    0  0.00000000000E+00  0.00000000000E+00  0.53954995972E+03  0.53954995972E+03  0.00000000000E+00 0.  1.
         -2   -1    0    0    0  501 -0.00000000000E+00 -0.00000000000E+00 -0.12823736556E+04  0.12823736556E+04  0.00000000000E+00 0. -1.
         23    2    1    2    0    0  0.52416575569E+02 -0.82558354669E+03 -0.30954859432E+03  0.88808047879E+03  0.92362950404E+02 0.  0.
         13    1    3    3    0    0  0.52772558260E+02 -0.20132479563E+03 -0.77930196433E+02  0.22223800701E+03  0.00000000000E+00 0.  1.
        -13    1    3    3    0    0 -0.35598269086E+00 -0.62425875106E+03 -0.23161839789E+03  0.66584247179E+03  0.00000000000E+00 0. -1.
         22    1    1    2    0    0 -0.52416575569E+02  0.82558354669E+03 -0.43327510153E+03  0.93384313649E+03  0.00000000000E+00 0.  1.
<mgrwt>
<rscale>  0 0.16636161E+04</rscale>
<asrwt>0</asrwt>
<pdfrwt beam="1">  1        2 0.83007686E-01 0.16636161E+04</pdfrwt>
<pdfrwt beam="2">  1       -2 0.19728825E+00 0.16636161E+04</pdfrwt>
<totfact> 0.74407568E+00</totfact>
</mgrwt>
</event>
<event>
 6    1  0.2325157E-005  0.1652038E+04  0.7818608E-02  0.8789202E-01
          2   -1    0    0  501    0  0.00000000000E+00  0.00000000000E+00  0.20205322859E+04  0.20205322859E+04  0.00000000000E+00 0.  1.
         -2   -1    0    0    0  501 -0.00000000000E+00 -0.00000000000E+00 -0.33768676222E+03  0.33768676222E+03  0.00000000000E+00 0. -1.
         23    2    1    2    0    0  0.13753975433E+03  0.39203930131E+03  0.18589796030E+04  0.19069594646E+04  0.89873453570E+02 0.  0.
         13    1    3    3    0    0  0.49587361608E+02  0.18761392030E+03  0.10574764626E+04  0.10751345769E+04  0.00000000000E+00 0.  1.
        -13    1    3    3    0    0  0.87952392717E+02  0.20442538101E+03  0.80150314035E+03  0.83182488769E+03  0.00000000000E+00 0. -1.
         22    1    1    2    0    0 -0.13753975433E+03 -0.39203930131E+03 -0.17613407930E+03  0.45125958348E+03  0.00000000000E+00 0. -1.
<mgrwt>
<rscale>  0 0.16520375E+04</rscale>
<asrwt>0</asrwt>
<pdfrwt beam="1">  1        2 0.31085111E+00 0.16520375E+04</pdfrwt>
<pdfrwt beam="2">  1       -2 0.51951811E-01 0.16520375E+04</pdfrwt>
<totfact> 0.21748726E+01</totfact>
</mgrwt>
</event>
<event>
 6    1  0.2325157E-005  0.1635926E+04  0.7818608E-02  0.8798776E-01
          1   -1    0    0  501    0  0.00000000000E+00  0.00000000000E+00  0.40903381724E+03  0.40903381724E+03  0.00000000000E+00 0.  1.
         -1   -1    0    0    0  501 -0.00000000000E+00 -0.00000000000E+00 -0.16357164056E+04  0.16357164056E+04  0.00000000000E+00 0. -1.
         23    2    1    2    0    0  0.57652366745E+02  0.78995749024E+03 -0.37211760629E+03  0.87957300870E+03  0.88433777194E+02 0.  0.
         13    1    3    3    0    0 -0.97461185662E+01  0.46441725641E+03 -0.21968585456E+03  0.51384846946E+03  0.00000000000E+00 0.  1.
        -13    1    3    3    0    0  0.67398485311E+02  0.32554023384E+03 -0.15243175173E+03  0.36572453924E+03  0.00000000000E+00 0. -1.
         22    1    1    2    0    0 -0.57652366745E+02 -0.78995749024E+03 -0.85456498208E+03  0.11651772142E+04  0.00000000000E+00 0. -1.
<mgrwt>
<rscale>  0 0.16359258E+04</rscale>
<asrwt>0</asrwt>
<pdfrwt beam="1">  1        1 0.62928279E-01 0.16359258E+04</pdfrwt>
<pdfrwt beam="2">  1       -1 0.25164868E+00 0.16359258E+04</pdfrwt>
<totfact> 0.37903009E+00</totfact>
</mgrwt>
</event>
<event>
 6    1  0.2325157E-005  0.2003328E+04  0.7818608E-02  0.8605066E-01
         -2   -1    0    0    0  501 -0.00000000000E+00  0.00000000000E+00  0.69700551965E+03  0.69700551965E+03  0.00000000000E+00 0.  1.
          2   -1    0    0  501    0  0.00000000000E+00 -0.00000000000E+00 -0.14394873701E+04  0.14394873701E+04  0.00000000000E+00 0. -1.
         23    2    1    2    0    0 -0.17307433778E+03  0.97520734617E+03 -0.22767844298E+03  0.10202462132E+04  0.89893090994E+02 0.  0.
         13    1    3    3    0    0 -0.16698931214E+03  0.71921926382E+03 -0.16251724887E+03  0.75602489113E+03  0.00000000000E+00 0. -1.
        -13    1    3    3    0    0 -0.60850256407E+01  0.25598808235E+03 -0.65161194107E+02  0.26422132212E+03  0.00000000000E+00 0.  1.
         22    1    1    2    0    0  0.17307433778E+03 -0.97520734617E+03 -0.51480340743E+03  0.11162466765E+04  0.00000000000E+00 0.  1.
<mgrwt>
<rscale>  0 0.20033279E+04</rscale>
<asrwt>0</asrwt>
<pdfrwt beam="1">  1        2 0.22145960E+00 0.20033279E+04</pdfrwt>
<pdfrwt beam="2">  1       -2 0.10723162E+00 0.20033279E+04</pdfrwt>
<totfact> 0.89179731E+00</totfact>
</mgrwt>
</event>
<event>
 6    1  0.2325157E-005  0.2763278E+04  0.7818608E-02  0.8314761E-01
          2   -1    0    0  501    0  0.00000000000E+00  0.00000000000E+00  0.94097332389E+03  0.94097332389E+03  0.00000000000E+00 0.  1.
         -2   -1    0    0    0  501 -0.00000000000E+00 -0.00000000000E+00 -0.20286724352E+04  0.20286724352E+04  0.00000000000E+00 0. -1.
         23    2    1    2    0    0 -0.88575531198E+03  0.10072190482E+04 -0.19491728008E+03  0.13584002527E+04  0.90585962146E+02 0.  0.
         13    1    3    3    0    0 -0.82198502679E+03  0.90615120663E+03 -0.19517244169E+03  0.12388953449E+04  0.00000000000E+00 0. -1.
        -13    1    3    3    0    0 -0.63770285189E+02  0.10106784160E+03  0.25516160992E+00  0.11950490779E+03  0.00000000000E+00 0.  1.
         22    1    1    2    0    0  0.88575531198E+03 -0.10072190482E+04 -0.89278183125E+03  0.16112455064E+04  0.00000000000E+00 0. -1.
<mgrwt>
<rscale>  0 0.27632782E+04</rscale>
<asrwt>0</asrwt>
<pdfrwt beam="1">  1        2 0.14476513E+00 0.27632782E+04</pdfrwt>
<pdfrwt beam="2">  1       -2 0.31210345E+00 0.27632782E+04</pdfrwt>
<totfact> 0.64348148E-01</totfact>
</mgrwt>
</event>
<event>
 6    1  0.2325157E-005  0.4821741E+03  0.7818608E-02  0.1018539E+00
         -2   -1    0    0    0  501 -0.00000000000E+00  0.00000000000E+00  0.83458343092E+02  0.83458343092E+02  0.00000000000E+00 0. -1.
          2   -1    0    0  501    0  0.00000000000E+00 -0.00000000000E+00 -0.69643100455E+03  0.69643100455E+03  0.00000000000E+00 0.  1.
         23    2    1    2    0    0 -0.16179436426E+03  0.15366185658E+03 -0.19904284060E+03  0.30964762356E+03  0.80462512423E+02 0.  0.
         13    1    3    3    0    0 -0.10007981917E+03  0.51136094758E+02 -0.12859045778E+03  0.17078166243E+03  0.00000000000E+00 0.  1.
        -13    1    3    3    0    0 -0.61714545091E+02  0.10252576182E+03 -0.70452382824E+02  0.13886596113E+03  0.00000000000E+00 0. -1.
         22    1    1    2    0    0  0.16179436426E+03 -0.15366185658E+03 -0.41392982086E+03  0.47024172409E+03  0.00000000000E+00 0.  1.
<mgrwt>
<rscale>  0 0.48217415E+03</rscale>
<asrwt>0</asrwt>
<pdfrwt beam="1">  1        2 0.10714323E+00 0.48217415E+03</pdfrwt>
<pdfrwt beam="2">  1       -2 0.12839745E-01 0.48217415E+03</pdfrwt>
<totfact> 0.18754606E+03</totfact>
</mgrwt>
</event>
<event>
 6    1  0.2325157E-005  0.1078182E+04  0.7818608E-02  0.9226722E-01
         -2   -1    0    0    0  501 -0.00000000000E+00  0.00000000000E+00  0.23826467953E+03  0.23826467953E+03  0.00000000000E+00 0. -1.
          2   -1    0    0  501    0  0.00000000000E+00 -0.00000000000E+00 -0.12197318359E+04  0.12197318359E+04  0.00000000000E+00 0.  1.
         23    2    1    2    0    0 -0.56751997576E+02 -0.39296414201E+03 -0.97970838228E+03  0.10609515565E+04  0.90266742391E+02 0.  0.
         13    1    3    3    0    0 -0.46401767538E+02 -0.30575202279E+03 -0.65112377750E+03  0.72083257216E+03  0.00000000000E+00 0. -1.
        -13    1    3    3    0    0 -0.10350230038E+02 -0.87212119217E+02 -0.32858460478E+03  0.34011898433E+03  0.00000000000E+00 0.  1.
         22    1    1    2    0    0  0.56751997576E+02  0.39296414201E+03 -0.17587740917E+01  0.39704495894E+03  0.00000000000E+00 0. -1.
<mgrwt>
<rscale>  0 0.10781818E+04</rscale>
<asrwt>0</asrwt>
<pdfrwt beam="1">  1        2 0.18765106E+00 0.10781818E+04</pdfrwt>
<pdfrwt beam="2">  1       -2 0.36656104E-01 0.10781818E+04</pdfrwt>
<totfact> 0.12831902E+02</totfact>
</mgrwt>
</event>
<event>
 6    1  0.2325157E-005  0.1405009E+04  0.7818608E-02  0.8950200E-01
         -1   -1    0    0    0  501 -0.00000000000E+00  0.00000000000E+00  0.16771620428E+04  0.16771620428E+04  0.00000000000E+00 0. -1.
          1   -1    0    0  501    0  0.00000000000E+00 -0.00000000000E+00 -0.29425474101E+03  0.29425474101E+03  0.00000000000E+00 0.  1.
         23    2    1    2    0    0 -0.36566491428E+02 -0.68914626350E+03  0.53660829151E+03  0.87940868146E+03  0.95663418861E+02 0.  0.
         11    1    3    3    0    0 -0.17186398198E+02 -0.40205474758E+03  0.37137197170E+03  0.54759522797E+03  0.00000000000E+00 0.  1.
        -11    1    3    3    0    0 -0.19380093230E+02 -0.28709151592E+03  0.16523631982E+03  0.33181345349E+03  0.00000000000E+00 0. -1.
         22    1    1    2    0    0  0.36566491428E+02  0.68914626350E+03  0.84629901026E+03  0.10920081023E+04  0.00000000000E+00 0.  1.
<mgrwt>
<rscale>  0 0.14050094E+04</rscale>
<asrwt>0</asrwt>
<pdfrwt beam="1">  1        1 0.45269961E-01 0.14050094E+04</pdfrwt>
<pdfrwt beam="2">  1       -1 0.25802492E+00 0.14050094E+04</pdfrwt>
<totfact> 0.54235900E+00</totfact>
</mgrwt>
</event>
<event>
 6    1  0.2325157E-005  0.3602262E+04  0.7818608E-02  0.8089974E-01
          1   -1    0    0  501    0  0.00000000000E+00  0.00000000000E+00  0.25523195620E+04  0.25523195620E+04  0.00000000000E+00 0.  1.
         -1   -1    0    0    0  501 -0.00000000000E+00 -0.00000000000E+00 -0.12710295905E+04  0.12710295905E+04  0.00000000000E+00 0. -1.
         23    2    1    2    0    0 -0.13207137813E+04  0.11851567415E+04  0.32089186568E+03  0.18056162872E+04  0.91636198709E+02 0.  0.
         11    1    3    3    0    0 -0.55838862090E+03  0.55071888609E+03  0.16870703412E+03  0.80221643389E+03  0.00000000000E+00 0.  1.
        -11    1    3    3    0    0 -0.76232516039E+03  0.63443785545E+03  0.15218483156E+03  0.10033998533E+04  0.00000000000E+00 0. -1.
         22    1    1    2    0    0  0.13207137813E+04 -0.11851567415E+04  0.96039810584E+03  0.20177328653E+04  0.00000000000E+00 0. -1.
<mgrwt>
<rscale>  0 0.36022624E+04</rscale>
<asrwt>0</asrwt>
<pdfrwt beam="1">  1        1 0.39266455E+00 0.36022624E+04</pdfrwt>
<pdfrwt beam="2">  1       -1 0.19554301E+00 0.36022624E+04</pdfrwt>
<totfact> 0.16282908E-01</totfact>
</mgrwt>
</event>
<event>
 6    1  0.2325157E-005  0.5560478E+04  0.7818608E-02  0.7747422E-01
          2   -1    0    0  501    0  0.00000000000E+00  0.00000000000E+00  0.28393750751E+04  0.28393750751E+04  0.00000000000E+00 0.  1.
         -2   -1    0    0    0  501 -0.00000000000E+00 -0.00000000000E+00 -0.27223342457E+04  0.27223342457E+04  0.00000000000E+00 0. -1.
         23    2    1    2    0    0 -0.12920098224E+04  0.24589664769E+04  0.15620662944E+03  0.27836993360E+04  0.93680128017E+02 0.  0.
         13    1    3    3    0    0 -0.68173990089E+03  0.11968926070E+04  0.79477533821E+02  0.13797238433E+04  0.00000000000E+00 0.  1.
        -13    1    3    3    0    0 -0.61026992153E+03  0.12620738699E+04  0.76729095620E+02  0.14039754928E+04  0.00000000000E+00 0. -1.
         22    1    1    2    0    0  0.12920098224E+04 -0.24589664769E+04 -0.39165800015E+02  0.27780099848E+04  0.00000000000E+00 0. -1.
<mgrwt>
<rscale>  0 0.55604777E+04</rscale>
<asrwt>0</asrwt>
<pdfrwt beam="1">  1        2 0.43682693E+00 0.55604777E+04</pdfrwt>
<pdfrwt beam="2">  1       -2 0.41882065E+00 0.55604777E+04</pdfrwt>
<totfact> 0.85228561E-03</totfact>
</mgrwt>
</event>
<event>
 6    1  0.2325157E-005  0.1123225E+04  0.7818608E-02  0.9182847E-01
         -2   -1    0    0    0  501 -0.00000000000E+00  0.00000000000E+00  0.51832352532E+03  0.51832352532E+03  0.00000000000E+00 0. -1.
          2   -1    0    0  501    0  0.00000000000E+00 -0.00000000000E+00 -0.60851643336E+03  0.60851643336E+03  0.00000000000E+00 0.  1.
         23    2    1    2    0    0 -0.51561947926E+03 -0.45220046739E+02  0.16318642696E+03  0.55055063254E+03  0.92562892282E+02 0.  0.
         13    1    3    3    0    0 -0.38601778345E+03 -0.33870124536E+02  0.16316778058E+03  0.42045289759E+03  0.00000000000E+00 0.  1.
        -13    1    3    3    0    0 -0.12960169581E+03 -0.11349922203E+02  0.18646384056E-01  0.13009773495E+03  0.00000000000E+00 0. -1.
         22    1    1    2    0    0  0.51561947926E+03  0.45220046739E+02 -0.25337933500E+03  0.57628932614E+03  0.00000000000E+00 0.  1.
<mgrwt>
<rscale>  0 0.11232246E+04</rscale>
<asrwt>0</asrwt>
<pdfrwt beam="1">  1        2 0.93617913E-01 0.11232246E+04</pdfrwt>
<pdfrwt beam="2">  1       -2 0.79742081E-01 0.11232246E+04</pdfrwt>
<totfact> 0.67347822E+01</totfact>
</mgrwt>
</event>
<event>
 6    1  0.2325157E-005  0.2433779E+04  0.7818608E-02  0.8426964E-01
          1   -1    0    0  501    0  0.00000000000E+00  0.00000000000E+00  0.10432203070E+04  0.10432203070E+04  0.00000000000E+00 0.  1.
         -1   -1    0    0    0  501 -0.00000000000E+00 -0.00000000000E+00 -0.14194705280E+04  0.14194705280E+04  0.00000000000E+00 0. -1.
         23    2    1    2    0    0 -0.41399505999E+03  0.10328034262E+04 -0.68262924941E+03  0.13085925134E+04  0.91415792546E+02 0.  0.
         13    1    3    3    0    0 -0.22743962053E+03  0.67751828925E+03 -0.41873807575E+03  0.82831237426E+03  0.00000000000E+00 0.  1.
        -13    1    3    3    0    0 -0.18655543946E+03  0.35528513692E+03 -0.26389117366E+03  0.48028013913E+03  0.00000000000E+00 0. -1.
         22    1    1    2    0    0  0.41399505999E+03 -0.10328034262E+04  0.30637902848E+03  0.11540983216E+04  0.00000000000E+00 0.  1.
<mgrwt>
<rscale>  0 0.24337793E+04</rscale>
<asrwt>0</asrwt>
<pdfrwt beam="1">  1        1 0.16049543E+00 0.24337793E+04</pdfrwt>
<pdfrwt beam="2">  1       -1 0.21838008E+00 0.24337793E+04</pdfrwt>
<totfact> 0.14121225E+00</totfact>
</mgrwt>
</event>
<event>
 6    1  0.2325157E-005  0.1736233E+04  0.7818608E-02  0.8740965E-01
         -2   -1    0    0    0  501 -0.00000000000E+00  0.00000000000E+00  0.45484962529E+03  0.45484962529E+03  0.00000000000E+00 0. -1.
          2   -1    0    0  501    0  0.00000000000E+00 -0.00000000000E+00 -0.16568687044E+04  0.16568687044E+04  0.00000000000E+00 0.  1.
         23    2    1    2    0    0 -0.64009752842E+03 -0.45028112224E+03 -0.10527771543E+04  0.13150056543E+04  0.91772542079E+02 0.  0.
         11    1    3    3    0    0 -0.57884789121E+03 -0.38807115508E+03 -0.97239387180E+03  0.11963335423E+04  0.00000000000E+00 0. -1.
        -11    1    3    3    0    0 -0.61249637207E+02 -0.62209967160E+02 -0.80383282455E+02  0.11867211202E+03  0.00000000000E+00 0.  1.
         22    1    1    2    0    0  0.64009752842E+03  0.45028112224E+03 -0.14924192485E+03  0.79671267535E+03  0.00000000000E+00 0.  1.
<mgrwt>
<rscale>  0 0.17362328E+04</rscale>
<asrwt>0</asrwt>
<pdfrwt beam="1">  1        2 0.25490288E+00 0.17362328E+04</pdfrwt>
<pdfrwt beam="2">  1       -2 0.69976865E-01 0.17362328E+04</pdfrwt>
<totfact> 0.18293484E+01</totfact>
</mgrwt>
</event>
<event>
 6    1  0.2325157E-005  0.2766822E+04  0.7818608E-02  0.8313643E-01
          2   -1    0    0  501    0  0.00000000000E+00  0.00000000000E+00  0.11395700078E+04  0.11395700078E+04  0.00000000000E+00 0.  1.
         -2   -1    0    0    0  501 -0.00000000000E+00 -0.00000000000E+00 -0.16794286359E+04  0.16794286359E+04  0.00000000000E+00 0. -1.
         23    2    1    2    0    0 -0.10742779651E+04  0.34632151904E+03  0.54225359709E+03  0.12553559068E+04  0.88700328947E+02 0.  0.
         11    1    3    3    0    0 -0.82571077742E+03  0.30171215235E+03  0.43748055847E+03  0.98194589967E+03  0.00000000000E+00 0.  1.
        -11    1    3    3    0    0 -0.24856718763E+03  0.44609366681E+02  0.10477303861E+03  0.27341000710E+03  0.00000000000E+00 0. -1.
         22    1    1    2    0    0  0.10742779651E+04 -0.34632151904E+03 -0.10821122252E+04  0.15636427369E+04  0.00000000000E+00 0. -1.
<mgrwt>
<rscale>  0 0.27668224E+04</rscale>
<asrwt>0</asrwt>
<pdfrwt beam="1">  1        2 0.17531846E+00 0.27668224E+04</pdfrwt>
<pdfrwt beam="2">  1       -2 0.25837364E+00 0.27668224E+04</pdfrwt>
<totfact> 0.10261092E+00</totfact>
</mgrwt>
</event>
<event>
 6    1  0.2325157E-005  0.3244993E+04  0.7818608E-02  0.8177035E-01
         -2   -1    0    0    0  501 -0.00000000000E+00  0.00000000000E+00  0.17222265861E+04  0.17222265861E+04  0.00000000000E+00 0. -1.
          2   -1    0    0  501    0  0.00000000000E+00 -0.00000000000E+00 -0.15285417280E+04  0.15285417280E+04  0.00000000000E+00 0.  1.
         23    2    1    2    0    0  0.59060079472E+02  0.88081125894E+03 -0.12652458698E+04  0.15455423949E+04  0.92399224640E+02 0.  0.
         13    1    3    3    0    0  0.72931234181E+02  0.49159815322E+03 -0.66973437854E+03  0.83398551964E+03  0.00000000000E+00 0.  1.
        -13    1    3    3    0    0 -0.13871154709E+02  0.38921310572E+03 -0.59551149123E+03  0.71155687530E+03  0.00000000000E+00 0. -1.
         22    1    1    2    0    0 -0.59060079472E+02 -0.88081125894E+03  0.14589307279E+04  0.17052259192E+04  0.00000000000E+00 0. -1.
<mgrwt>
<rscale>  0 0.32449932E+04</rscale>
<asrwt>0</asrwt>
<pdfrwt beam="1">  1        2 0.23516027E+00 0.32449932E+04</pdfrwt>
<pdfrwt beam="2">  1       -2 0.26495794E+00 0.32449932E+04</pdfrwt>
<totfact> 0.53392890E-01</totfact>
</mgrwt>
</event>
<event>
 6    1  0.2325157E-005  0.3489768E+04  0.7818608E-02  0.8116219E-01
         -2   -1    0    0    0  501 -0.00000000000E+00  0.00000000000E+00  0.14798044682E+04  0.14798044682E+04  0.00000000000E+00 0. -1.
          2   -1    0    0  501    0  0.00000000000E+00 -0.00000000000E+00 -0.20574477436E+04  0.20574477436E+04  0.00000000000E+00 0.  1.
         23    2    1    2    0    0  0.16851036499E+04 -0.20103522903E+03  0.11688210812E+03  0.17035796722E+04  0.92373146218E+02 0.  0.
         13    1    3    3    0    0  0.13266421454E+04 -0.18507536889E+03  0.65363209611E+02  0.13410833767E+04  0.00000000000E+00 0. -1.
        -13    1    3    3    0    0  0.35846150450E+03 -0.15959860135E+02  0.51518898514E+02  0.36249629549E+03  0.00000000000E+00 0.  1.
         22    1    1    2    0    0 -0.16851036499E+04  0.20103522903E+03 -0.69452538352E+03  0.18336725396E+04  0.00000000000E+00 0.  1.
<mgrwt>
<rscale>  0 0.34897681E+04</rscale>
<asrwt>0</asrwt>
<pdfrwt beam="1">  1        2 0.31653042E+00 0.34897681E+04</pdfrwt>
<pdfrwt beam="2">  1       -2 0.22766223E+00 0.34897681E+04</pdfrwt>
<totfact> 0.45140224E-01</totfact>
</mgrwt>
</event>
<event>
 6    1  0.2325157E-005  0.1368595E+04  0.7818608E-02  0.8976870E-01
         -2   -1    0    0    0  501 -0.00000000000E+00  0.00000000000E+00  0.23668624149E+03  0.23668624149E+03  0.00000000000E+00 0. -1.
          2   -1    0    0  501    0  0.00000000000E+00 -0.00000000000E+00 -0.19784124916E+04  0.19784124916E+04  0.00000000000E+00 0.  1.
         23    2    1    2    0    0  0.34461747089E+03 -0.10411864888E+03 -0.18107999702E+04  0.18485294039E+04  0.91992015481E+02 0.  0.
         11    1    3    3    0    0  0.30849693076E+03 -0.81969634880E+02 -0.17038546397E+04  0.17334964697E+04  0.00000000000E+00 0. -1.
        -11    1    3    3    0    0  0.36120540128E+02 -0.22149014004E+02 -0.10694533049E+03  0.11503293422E+03  0.00000000000E+00 0.  1.
         22    1    1    2    0    0 -0.34461747089E+03  0.10411864888E+03  0.69073720052E+02  0.36656932917E+03  0.00000000000E+00 0. -1.
<mgrwt>
<rscale>  0 0.13685949E+04</rscale>
<asrwt>0</asrwt>
<pdfrwt beam="1">  1        2 0.30437115E+00 0.13685949E+04</pdfrwt>
<pdfrwt beam="2">  1       -2 0.36413269E-01 0.13685949E+04</pdfrwt>
<totfact> 0.47597549E+01</totfact>
</mgrwt>
</event>
<event>
 6    1  0.2325157E-005  0.6875653E+03  0.7818608E-02  0.9738737E-01
          2   -1    0    0  501    0  0.00000000000E+00  0.00000000000E+00  0.10260555203E+04  0.10260555203E+04  0.00000000000E+00 0.  1.
         -2   -1    0    0    0  501 -0.00000000000E+00 -0.00000000000E+00 -0.11518529301E+03  0.11518529301E+03  0.00000000000E+00 0. -1.
         23    2    1    2    0    0 -0.14382592374E+03  0.19473578699E+03  0.72667075088E+02  0.26877737715E+03  0.91393936297E+02 0.  0.
         13    1    3    3    0    0 -0.73230745361E+02  0.15558475510E+03  0.75955647495E+02  0.18798568688E+03  0.00000000000E+00 0.  1.
        -13    1    3    3    0    0 -0.70595178378E+02  0.39151031894E+02 -0.32885724066E+01  0.80791690272E+02  0.00000000000E+00 0. -1.
         22    1    1    2    0    0  0.14382592374E+03 -0.19473578699E+03  0.83820315223E+03  0.87246343619E+03  0.00000000000E+00 0.  1.
<mgrwt>
<rscale>  0 0.68756529E+03</rscale>
<asrwt>0</asrwt>
<pdfrwt beam="1">  1        2 0.15785469E+00 0.68756529E+03</pdfrwt>
<pdfrwt beam="2">  1       -2 0.17720815E-01 0.68756529E+03</pdfrwt>
<totfact> 0.64338422E+02</totfact>
</mgrwt>
</event>
<event>
 6    1  0.2325157E-005  0.2236157E+04  0.7818608E-02  0.8503528E-01
         -2   -1    0    0    0  501 -0.00000000000E+00  0.00000000000E+00  0.58584793582E+03  0.58584793582E+03  0.00000000000E+00 0. -1.
          2   -1    0    0  501    0  0.00000000000E+00 -0.00000000000E+00 -0.21338290819E+04  0.21338290819E+04  0.00000000000E+00 0.  1.
         23    2    1    2    0    0 -0.10191739334E+04 -0.21212059615E+03 -0.12608702858E+04  0.16397958669E+04  0.12420126185E+03 0.  0.
         13    1    3    3    0    0 -0.25744670965E+03  0.20033398323E+00 -0.32308130841E+03  0.41311061508E+03  0.00000000000E+00 0.  1.
        -13    1    3    3    0    0 -0.76172722375E+03 -0.21232093013E+03 -0.93778897743E+03  0.12266852518E+04  0.00000000000E+00 0. -1.
         22    1    1    2    0    0  0.10191739334E+04  0.21212059615E+03 -0.28711086022E+03  0.10798811508E+04  0.00000000000E+00 0.  1.
<mgrwt>
<rscale>  0 0.22361568E+04</rscale>
<asrwt>0</asrwt>
<pdfrwt beam="1">  1        2 0.32828140E+00 0.22361568E+04</pdfrwt>
<pdfrwt beam="2">  1       -2 0.90130452E-01 0.22361568E+04</pdfrwt>
<totfact> 0.53989060E+00</totfact>
</mgrwt>
</event>
<event>
 6    1  0.2325157E-005  0.1278300E+04  0.7818608E-02  0.9046953E-01
          2   -1    0    0  501    0  0.00000000000E+00  0.00000000000E+00  0.62049104711E+03  0.62049104711E+03  0.00000000000E+00 0.  1.
         -2   -1    0    0    0  501 -0.00000000000E+00 -0.00000000000E+00 -0.65837024986E+03  0.65837024986E+03  0.00000000000E+00 0. -1.
         23    2    1    2    0    0 -0.11218788081E+03  0.36294285340E+03  0.49088055659E+03  0.62778486634E+03  0.94002564526E+02 0.  0.
         11    1    3    3    0    0 -0.77724264358E+02  0.11353063510E+03  0.14405955331E+03  0.19920698099E+03  0.00000000000E+00 0. -1.
        -11    1    3    3    0    0 -0.34463616449E+02  0.24941221830E+03  0.34682100327E+03  0.42857788535E+03  0.00000000000E+00 0.  1.
         22    1    1    2    0    0  0.11218788081E+03 -0.36294285340E+03 -0.52875975933E+03  0.65107643063E+03  0.00000000000E+00 0.  1.
<mgrwt>
<rscale>  0 0.12783002E+04</rscale>
<asrwt>0</asrwt>
<pdfrwt beam="1">  1        2 0.95460162E-01 0.12783002E+04</pdfrwt>
<pdfrwt beam="2">  1       -2 0.10128773E+00 0.12783002E+04</pdfrwt>
<totfact> 0.37453364E+01</totfact>
</mgrwt>
</event>
<event>
 6    1  0.2325157E-005  0.2281800E+04  0.7818608E-02  0.8485132E-01
          2   -1    0    0  501    0  0.00000000000E+00  0.00000000000E+00  0.23709780509E+04  0.23709780509E+04  0.00000000000E+00 0.  1.
         -2   -1    0    0    0  501 -0.00000000000E+00 -0.00000000000E+00 -0.54899387625E+03  0.54899387625E+03  0.00000000000E+00 0. -1.
         23    2    1    2    0    0 -0.62105023600E+03  0.95381111411E+03  0.85660376112E+03  0.14275181155E+04  0.92622511002E+02 0.  0.
         11    1    3    3    0    0 -0.36763813248E+03  0.62383577879E+03  0.50524982961E+03  0.88295315032E+03  0.00000000000E+00 0.  1.
        -11    1    3    3    0    0 -0.25341210352E+03  0.32997533532E+03  0.35135393152E+03  0.54456496520E+03  0.00000000000E+00 0. -1.
         22    1    1    2    0    0  0.62105023600E+03 -0.95381111411E+03  0.96538041353E+03  0.14924538116E+04  0.00000000000E+00 0.  1.
<mgrwt>
<rscale>  0 0.22817997E+04</rscale>
<asrwt>0</asrwt>
<pdfrwt beam="1">  1        2 0.36476585E+00 0.22817997E+04</pdfrwt>
<pdfrwt beam="2">  1       -2 0.84460598E-01 0.22817997E+04</pdfrwt>
<totfact> 0.45844414E+00</totfact>
</mgrwt>
</event>
<event>
 6    1  0.2325157E-005  0.5524182E+03  0.7818608E-02  0.1000936E+00
         -2   -1    0    0    0  501 -0.00000000000E+00  0.00000000000E+00  0.40001379742E+03  0.40001379742E+03  0.00000000000E+00 0. -1.
          2   -1    0    0  501    0  0.00000000000E+00 -0.00000000000E+00 -0.19072210292E+03  0.19072210292E+03  0.00000000000E+00 0.  1.
         23    2    1    2    0    0 -0.88996379991E+02  0.86249841207E+02 -0.14771872314E+03  0.21282608429E+03  0.90081797415E+02 0.  0.
         13    1    3    3    0    0 -0.75014442714E+02  0.10126094649E+02 -0.68816500796E+02  0.10230061188E+03  0.00000000000E+00 0. -1.
        -13    1    3    3    0    0 -0.13981937277E+02  0.76123746557E+02 -0.78902222346E+02  0.11052547241E+03  0.00000000000E+00 0.  1.
         22    1    1    2    0    0  0.88996379991E+02 -0.86249841207E+02  0.35701041765E+03  0.37790981605E+03  0.00000000000E+00 0. -1.
<mgrwt>
<rscale>  0 0.55241822E+03</rscale>
<asrwt>0</asrwt>
<pdfrwt beam="1">  1        2 0.29341862E-01 0.55241822E+03</pdfrwt>
<pdfrwt beam="2">  1       -2 0.61540584E-01 0.55241822E+03</pdfrwt>
<totfact> 0.45198543E+02</totfact>
</mgrwt>
</event>
<event>
 6    1  0.2325157E-005  0.1430832E+04  0.7818608E-02  0.8931798E-01
          2   -1    0    0  501    0  0.00000000000E+00  0.00000000000E+00  0.19312766441E+04  0.19312766441E+04  0.00000000000E+00 0.  1.
         -2   -1    0    0    0  501 -0.00000000000E+00 -0.00000000000E+00 -0.26501644207E+03  0.26501644207E+03  0.00000000000E+00 0. -1.
         23    2    1    2    0    0  0.56393128493E+02  0.77230176260E+02  0.19202805929E+04  0.19248689824E+04  0.92186543550E+02 0.  0.
         13    1    3    3    0    0  0.93332382267E+01 -0.98400712066E+01  0.82859739952E+03  0.82870838467E+03  0.00000000000E+00 0.  1.
        -13    1    3    3    0    0  0.47059890266E+02  0.87070247467E+02  0.10916831934E+04  0.10961605977E+04  0.00000000000E+00 0. -1.
         22    1    1    2    0    0 -0.56393128493E+02 -0.77230176260E+02 -0.25402039094E+03  0.27142410372E+03  0.00000000000E+00 0. -1.
<mgrwt>
<rscale>  0 0.14308320E+04</rscale>
<asrwt>0</asrwt>
<pdfrwt beam="1">  1        2 0.29711948E+00 0.14308320E+04</pdfrwt>
<pdfrwt beam="2">  1       -2 0.40771761E-01 0.14308320E+04</pdfrwt>
<totfact> 0.40372842E+01</totfact>
</mgrwt>
</event>
<event>
 6    1  0.2325157E-005  0.1497255E+04  0.7818608E-02  0.8886280E-01
          2   -1    0    0  501    0  0.00000000000E+00  0.00000000000E+00  0.22845555024E+04  0.22845555024E+04  0.00000000000E+00 0.  1.
         -2   -1    0    0    0  501 -0.00000000000E+00 -0.00000000000E+00 -0.24531831250E+03  0.24531831250E+03  0.00000000000E+00 0. -1.
         23    2    1    2    0    0  0.21688859644E+03 -0.72538084603E+02  0.22228187772E+04  0.22366083444E+04  0.95870397915E+02 0.  0.
         13    1    3    3    0    0  0.10863230776E+03 -0.69502828884E+02  0.87595510497E+03  0.88539763239E+03  0.00000000000E+00 0. -1.
        -13    1    3    3    0    0  0.10825628867E+03 -0.30352557189E+01  0.13468636722E+04  0.13512107120E+04  0.00000000000E+00 0.  1.
         22    1    1    2    0    0 -0.21688859644E+03  0.72538084603E+02 -0.18358158728E+03  0.29326547047E+03  0.00000000000E+00 0. -1.
<mgrwt>
<rscale>  0 0.14972552E+04</rscale>
<asrwt>0</asrwt>
<pdfrwt beam="1">  1        2 0.35147006E+00 0.14972552E+04</pdfrwt>
<pdfrwt beam="2">  1       -2 0.37741280E-01 0.14972552E+04</pdfrwt>
<totfact> 0.29658423E+01</totfact>
</mgrwt>
</event>
<event>
 6    1  0.2325157E-005  0.4648476E+03  0.7818608E-02  0.1023385E+00
         -2   -1    0    0    0  501 -0.00000000000E+00  0.00000000000E+00  0.67826056668E+02  0.67826056668E+02  0.00000000000E+00 0. -1.
          2   -1    0    0  501    0  0.00000000000E+00 -0.00000000000E+00 -0.79646106403E+03  0.79646106403E+03  0.00000000000E+00 0.  1.
         23    2    1    2    0    0  0.12535928389E+03 -0.13714081298E+03 -0.14800800152E+03  0.25465586120E+03  0.91764298540E+02 0.  0.
         13    1    3    3    0    0  0.13289621100E+03 -0.12826191549E+03 -0.15496066495E+03  0.24109195247E+03  0.00000000000E+00 0. -1.
        -13    1    3    3    0    0 -0.75369271122E+01 -0.88788974981E+01  0.69526634393E+01  0.13563908728E+02  0.00000000000E+00 0.  1.
         22    1    1    2    0    0 -0.12535928389E+03  0.13714081298E+03 -0.58062700585E+03  0.60963125951E+03  0.00000000000E+00 0.  1.
<mgrwt>
<rscale>  0 0.46484756E+03</rscale>
<asrwt>0</asrwt>
<pdfrwt beam="1">  1        2 0.12253247E+00 0.46484756E+03</pdfrwt>
<pdfrwt beam="2">  1       -2 0.10434778E-01 0.46484756E+03</pdfrwt>
<totfact> 0.22192278E+03</totfact>
</mgrwt>
</event>
<event>
 6    1  0.2325157E-005  0.2071376E+04  0.7818608E-02  0.8573958E-01
         -2   -1    0    0    0  501 -0.00000000000E+00  0.00000000000E+00  0.80090167913E+03  0.80090167913E+03  0.00000000000E+00 0. -1.
          2   -1    0    0  501    0  0.00000000000E+00 -0.00000000000E+00 -0.13393021676E+04  0.13393021676E+04  0.00000000000E+00 0.  1.
         23    2    1    2    0    0  0.52418905860E+03  0.18011054653E+03  0.63175698930E+03  0.84541332278E+03  0.91612306392E+02 0.  0.
         11    1    3    3    0    0  0.16341413938E+03  0.13057110340E+02  0.17244845722E+03  0.23793515814E+03  0.00000000000E+00 0. -1.
        -11    1    3    3    0    0  0.36077491922E+03  0.16705343619E+03  0.45930853208E+03  0.60747816465E+03  0.00000000000E+00 0.  1.
         22    1    1    2    0    0 -0.52418905860E+03 -0.18011054653E+03 -0.11701574778E+04  0.12947905240E+04  0.00000000000E+00 0.  1.
<mgrwt>
<rscale>  0 0.20713757E+04</rscale>
<asrwt>0</asrwt>
<pdfrwt beam="1">  1        2 0.20604648E+00 0.20713757E+04</pdfrwt>
<pdfrwt beam="2">  1       -2 0.12321564E+00 0.20713757E+04</pdfrwt>
<totfact> 0.72026792E+00</totfact>
</mgrwt>
</event>
<event>
 6    1  0.2325157E-005  0.2585970E+04  0.7818608E-02  0.8372982E-01
          1   -1    0    0  501    0  0.00000000000E+00  0.00000000000E+00  0.15047339338E+04  0.15047339338E+04  0.00000000000E+00 0.  1.
         -1   -1    0    0    0  501 -0.00000000000E+00 -0.00000000000E+00 -0.11110341356E+04  0.11110341356E+04  0.00000000000E+00 0. -1.
         23    2    1    2    0    0  0.81369688311E+03 -0.90253248865E+03  0.63896985680E+03  0.13760806442E+04  0.92994359190E+02 0.  0.
         11    1    3    3    0    0  0.68928768909E+02 -0.10954584762E+03  0.48037161855E+02  0.13805447053E+03  0.00000000000E+00 0.  1.
        -11    1    3    3    0    0  0.74476811421E+03 -0.79298664103E+03  0.59093269495E+03  0.12380261737E+04  0.00000000000E+00 0. -1.
         22    1    1    2    0    0 -0.81369688311E+03  0.90253248865E+03 -0.24527005860E+03  0.12396874252E+04  0.00000000000E+00 0. -1.
<mgrwt>
<rscale>  0 0.25859704E+04</rscale>
<asrwt>0</asrwt>
<pdfrwt beam="1">  1        1 0.23149753E+00 0.25859704E+04</pdfrwt>
<pdfrwt beam="2">  1       -1 0.17092833E+00 0.25859704E+04</pdfrwt>
<totfact> 0.13868443E+00</totfact>
</mgrwt>
</event>
<event>
 6    1  0.2325157E-005  0.1312221E+04  0.7818608E-02  0.9019929E-01
         -2   -1    0    0    0  501 -0.00000000000E+00  0.00000000000E+00  0.29932981585E+03  0.29932981585E+03  0.00000000000E+00 0. -1.
          2   -1    0    0  501    0  0.00000000000E+00 -0.00000000000E+00 -0.14381497030E+04  0.14381497030E+04  0.00000000000E+00 0.  1.
         23    2    1    2    0    0  0.30013615736E+03  0.53985258635E+03 -0.85235029587E+03  0.10566070237E+04  0.91623401359E+02 0.  0.
         11    1    3    3    0    0  0.22970541046E+03  0.46971534978E+03 -0.74648389615E+03  0.91139195335E+03  0.00000000000E+00 0.  1.
        -11    1    3    3    0    0  0.70430746893E+02  0.70137236574E+02 -0.10586639971E+03  0.14521507033E+03  0.00000000000E+00 0. -1.
         22    1    1    2    0    0 -0.30013615736E+03 -0.53985258635E+03 -0.28646959127E+03  0.68087249516E+03  0.00000000000E+00 0. -1.
<mgrwt>
<rscale>  0 0.13122211E+04</rscale>
<asrwt>0</asrwt>
<pdfrwt beam="1">  1        2 0.22125380E+00 0.13122211E+04</pdfrwt>
<pdfrwt beam="2">  1       -2 0.46050741E-01 0.13122211E+04</pdfrwt>
<totfact> 0.60241763E+01</totfact>
</mgrwt>
</event>
<event>
 6    1  0.2325157E-005  0.2403073E+04  0.7818608E-02  0.8438354E-01
          2   -1    0    0  501    0  0.00000000000E+00  0.00000000000E+00  0.19736502728E+04  0.19736502728E+04  0.00000000000E+00 0.  1.
         -2   -1    0    0    0  501 -0.00000000000E+00 -0.00000000000E+00 -0.73148212796E+03  0.73148212796E+03  0.00000000000E+00 0. -1.
         23    2    1    2    0    0  0.10933822366E+04 -0.23144844464E+03  0.11126221051E+04  0.15800389494E+04  0.97683341486E+02 0.  0.
         11    1    3    3    0    0  0.84621065424E+03 -0.16469782588E+03  0.80148394069E+03  0.11771042233E+04  0.00000000000E+00 0. -1.
        -11    1    3    3    0    0  0.24717158233E+03 -0.66750618765E+02  0.31113816442E+03  0.40293472620E+03  0.00000000000E+00 0.  1.
         22    1    1    2    0    0 -0.10933822366E+04  0.23144844464E+03  0.12954603973E+03  0.11250934513E+04  0.00000000000E+00 0. -1.
<mgrwt>
<rscale>  0 0.24030730E+04</rscale>
<asrwt>0</asrwt>
<pdfrwt beam="1">  1        2 0.30363850E+00 0.24030730E+04</pdfrwt>
<pdfrwt beam="2">  1       -2 0.11253571E+00 0.24030730E+04</pdfrwt>
<totfact> 0.38619643E+00</totfact>
</mgrwt>
</event>
<event>
 6    1  0.2325157E-005  0.4494116E+04  0.7818608E-02  0.7911668E-01
         -2   -1    0    0    0  501 -0.00000000000E+00  0.00000000000E+00  0.12384183059E+04  0.12384183059E+04  0.00000000000E+00 0. -1.
          2   -1    0    0  501    0  0.00000000000E+00 -0.00000000000E+00 -0.40771930885E+04  0.40771930885E+04  0.00000000000E+00 0.  1.
         23    2    1    2    0    0 -0.13318164638E+04  0.14167167683E+04 -0.89976921603E+02  0.19486081013E+04  0.90311633126E+02 0.  0.
         13    1    3    3    0    0 -0.43628822246E+02  0.28255014163E+02  0.50319516329E+01  0.52222030726E+02  0.00000000000E+00 0. -1.
        -13    1    3    3    0    0 -0.12881876415E+04  0.13884617542E+04 -0.95008873236E+02  0.18963860706E+04  0.00000000000E+00 0.  1.
         22    1    1    2    0    0  0.13318164638E+04 -0.14167167683E+04 -0.27487978610E+04  0.33670032931E+04  0.00000000000E+00 0.  1.
<mgrwt>
<rscale>  0 0.44941164E+04</rscale>
<asrwt>0</asrwt>
<pdfrwt beam="1">  1        2 0.62726047E+00 0.44941164E+04</pdfrwt>
<pdfrwt beam="2">  1       -2 0.19052589E+00 0.44941164E+04</pdfrwt>
<totfact> 0.34299006E-02</totfact>
</mgrwt>
</event>
<event>
 6    1  0.2325157E-005  0.2604954E+04  0.7818608E-02  0.8366521E-01
          2   -1    0    0  501    0  0.00000000000E+00  0.00000000000E+00  0.15512536561E+04  0.15512536561E+04  0.00000000000E+00 0.  1.
         -2   -1    0    0    0  501 -0.00000000000E+00 -0.00000000000E+00 -0.10935967036E+04  0.10935967036E+04  0.00000000000E+00 0. -1.
         23    2    1    2    0    0  0.59687453250E+03 -0.54320265124E+03  0.12651507562E+04  0.15031960465E+04  0.87541936427E+02 0.  0.
         11    1    3    3    0    0  0.50490275315E+02 -0.38817995504E+02  0.62533541463E+02  0.89255523550E+02  0.00000000000E+00 0. -1.
        -11    1    3    3    0    0  0.54638425719E+03 -0.50438465574E+03  0.12026172147E+04  0.14139405230E+04  0.00000000000E+00 0.  1.
         22    1    1    2    0    0 -0.59687453250E+03  0.54320265124E+03 -0.80749380359E+03  0.11416543131E+04  0.00000000000E+00 0. -1.
<mgrwt>
<rscale>  0 0.26049537E+04</rscale>
<asrwt>0</asrwt>
<pdfrwt beam="1">  1        2 0.23865441E+00 0.26049537E+04</pdfrwt>
<pdfrwt beam="2">  1       -2 0.16824565E+00 0.26049537E+04</pdfrwt>
<totfact> 0.23041110E+00</totfact>
</mgrwt>
</event>
<event>
 6    1  0.2325157E-005  0.1127492E+04  0.7818608E-02  0.9178803E-01
          2   -1    0    0  501    0  0.00000000000E+00  0.00000000000E+00  0.61138675441E+03  0.61138675441E+03  0.00000000000E+00 0.  1.
         -2   -1    0    0    0  501 -0.00000000000E+00 -0.00000000000E+00 -0.51981790901E+03  0.51981790901E+03  0.00000000000E+00 0. -1.
         23    2    1    2    0    0  0.49776245281E+03 -0.11876950704E+03  0.27423475834E+03  0.58784429407E+03  0.92100793439E+02 0.  0.
         11    1    3    3    0    0  0.81667792589E+02  0.12681018551E+02  0.31013244996E+02  0.88273767015E+02  0.00000000000E+00 0. -1.
        -11    1    3    3    0    0  0.41609466022E+03 -0.13145052559E+03  0.24322151334E+03  0.49957052705E+03  0.00000000000E+00 0.  1.
         22    1    1    2    0    0 -0.49776245281E+03  0.11876950704E+03 -0.18266591294E+03  0.54336036936E+03  0.00000000000E+00 0. -1.
<mgrwt>
<rscale>  0 0.11274924E+04</rscale>
<asrwt>0</asrwt>
<pdfrwt beam="1">  1        2 0.94059501E-01 0.11274924E+04</pdfrwt>
<pdfrwt beam="2">  1       -2 0.79971986E-01 0.11274924E+04</pdfrwt>
<totfact> 0.66513085E+01</totfact>
</mgrwt>
</event>
<event>
 6    1  0.2325157E-005  0.3845407E+04  0.7818608E-02  0.8036480E-01
          2   -1    0    0  501    0  0.00000000000E+00  0.00000000000E+00  0.24500522062E+04  0.24500522062E+04  0.00000000000E+00 0.  1.
         -2   -1    0    0    0  501 -0.00000000000E+00 -0.00000000000E+00 -0.15088609469E+04  0.15088609469E+04  0.00000000000E+00 0. -1.
         23    2    1    2    0    0  0.12159872651E+04  0.78399587509E+03 -0.83125823460E+03  0.16709333086E+04  0.88052871033E+02 0.  0.
         11    1    3    3    0    0  0.87835275169E+03  0.51973185951E+03 -0.57490604120E+03  0.11713845305E+04  0.00000000000E+00 0. -1.
        -11    1    3    3    0    0  0.33763451337E+03  0.26426401558E+03 -0.25635219340E+03  0.49954877800E+03  0.00000000000E+00 0.  1.
         22    1    1    2    0    0 -0.12159872651E+04 -0.78399587509E+03  0.17724494939E+04  0.22879798446E+04  0.00000000000E+00 0.  1.
<mgrwt>
<rscale>  0 0.38454067E+04</rscale>
<asrwt>0</asrwt>
<pdfrwt beam="1">  1        2 0.37693111E+00 0.38454067E+04</pdfrwt>
<pdfrwt beam="2">  1       -2 0.23213245E+00 0.38454067E+04</pdfrwt>
<totfact> 0.24642712E-01</totfact>
</mgrwt>
</event>
<event>
 6    1  0.2325157E-005  0.1590815E+04  0.7818608E-02  0.8826211E-01
          2   -1    0    0  501    0  0.00000000000E+00  0.00000000000E+00  0.12357622803E+04  0.12357622803E+04  0.00000000000E+00 0. -1.
         -2   -1    0    0    0  501 -0.00000000000E+00 -0.00000000000E+00 -0.51196990220E+03  0.51196990220E+03  0.00000000000E+00 0.  1.
         23    2    1    2    0    0 -0.22528466325E+03  0.44884558315E+03 -0.31052789485E+03  0.59793482469E+03  0.94249371796E+02 0.  0.
         13    1    3    3    0    0 -0.17368858580E+03  0.36026998171E+03 -0.19993707561E+03  0.44714317479E+03  0.00000000000E+00 0.  1.
        -13    1    3    3    0    0 -0.51596077445E+02  0.88575601446E+02 -0.11059081924E+03  0.15079164990E+03  0.00000000000E+00 0. -1.
         22    1    1    2    0    0  0.22528466325E+03 -0.44884558315E+03  0.10343202730E+04  0.11497973579E+04  0.00000000000E+00 0. -1.
<mgrwt>
<rscale>  0 0.15908150E+04</rscale>
<asrwt>0</asrwt>
<pdfrwt beam="1">  1        2 0.19011727E+00 0.15908150E+04</pdfrwt>
<pdfrwt beam="2">  1       -2 0.78764601E-01 0.15908150E+04</pdfrwt>
<totfact> 0.24775715E+01</totfact>
</mgrwt>
</event>
<event>
 6    1  0.2325157E-005  0.1882004E+04  0.7818608E-02  0.8663866E-01
          2   -1    0    0  501    0  0.00000000000E+00  0.00000000000E+00  0.33548369089E+04  0.33548369089E+04  0.00000000000E+00 0.  1.
         -2   -1    0    0    0  501 -0.00000000000E+00 -0.00000000000E+00 -0.26394266676E+03  0.26394266676E+03  0.00000000000E+00 0. -1.
         23    2    1    2    0    0  0.51851817902E+03 -0.65905899016E+01  0.47868289530E+02  0.53188607473E+03  0.10819836182E+03 0.  0.
         11    1    3    3    0    0  0.11466842112E+03 -0.45939069058E+02  0.20509946074E+01  0.12354534166E+03  0.00000000000E+00 0. -1.
        -11    1    3    3    0    0  0.40384975790E+03  0.39348479157E+02  0.45817294922E+02  0.40834073307E+03  0.00000000000E+00 0.  1.
         22    1    1    2    0    0 -0.51851817902E+03  0.65905899016E+01  0.30430259526E+04  0.30868935009E+04  0.00000000000E+00 0.  1.
<mgrwt>
<rscale>  0 0.18820038E+04</rscale>
<asrwt>0</asrwt>
<pdfrwt beam="1">  1        2 0.51612873E+00 0.18820038E+04</pdfrwt>
<pdfrwt beam="2">  1       -2 0.40606566E-01 0.18820038E+04</pdfrwt>
<totfact> 0.55426377E+00</totfact>
</mgrwt>
</event>
<event>
 6    1  0.2325157E-005  0.6100226E+04  0.7818608E-02  0.7678098E-01
         -2   -1    0    0    0  501 -0.00000000000E+00  0.00000000000E+00  0.35201681209E+04  0.35201681209E+04  0.00000000000E+00 0. -1.
          2   -1    0    0  501    0  0.00000000000E+00 -0.00000000000E+00 -0.26428254799E+04  0.26428254799E+04  0.00000000000E+00 0.  1.
         23    2    1    2    0    0  0.94613250663E+03  0.16745280060E+04 -0.19520202685E+04  0.27418088298E+04  0.89004312373E+02 0.  0.
         11    1    3    3    0    0  0.62377561488E+03  0.10258193984E+04 -0.11895881601E+04  0.16901246837E+04  0.00000000000E+00 0. -1.
        -11    1    3    3    0    0  0.32235689175E+03  0.64870860760E+03 -0.76243210840E+03  0.10516841461E+04  0.00000000000E+00 0.  1.
         22    1    1    2    0    0 -0.94613250663E+03 -0.16745280060E+04  0.28293629095E+04  0.34211847709E+04  0.00000000000E+00 0. -1.
<mgrwt>
<rscale>  0 0.61002262E+04</rscale>
<asrwt>0</asrwt>
<pdfrwt beam="1">  1        2 0.40658854E+00 0.61002262E+04</pdfrwt>
<pdfrwt beam="2">  1       -2 0.54156433E+00 0.61002262E+04</pdfrwt>
<totfact> 0.18459767E-03</totfact>
</mgrwt>
</event>
<event>
 6    1  0.2325157E-005  0.3022613E+04  0.7818608E-02  0.8237303E-01
         -2   -1    0    0    0  501 -0.00000000000E+00  0.00000000000E+00  0.28903148157E+04  0.28903148157E+04  0.00000000000E+00 0. -1.
          2   -1    0    0  501    0  0.00000000000E+00 -0.00000000000E+00 -0.79024172665E+03  0.79024172665E+03  0.00000000000E+00 0.  1.
         23    2    1    2    0    0  0.59252345593E+03 -0.10545219907E+04 -0.49199192797E+02  0.12142897246E+04  0.94753892369E+02 0.  0.
         13    1    3    3    0    0  0.39608937671E+03 -0.74021834321E+03  0.60775217153E+01  0.83955162214E+03  0.00000000000E+00 0. -1.
        -13    1    3    3    0    0  0.19643407922E+03 -0.31430364747E+03 -0.55276714513E+02  0.37473810249E+03  0.00000000000E+00 0.  1.
         22    1    1    2    0    0 -0.59252345593E+03  0.10545219907E+04  0.21492722818E+04  0.24662668177E+04  0.00000000000E+00 0. -1.
<mgrwt>
<rscale>  0 0.30226130E+04</rscale>
<asrwt>0</asrwt>
<pdfrwt beam="1">  1        2 0.12157565E+00 0.30226130E+04</pdfrwt>
<pdfrwt beam="2">  1       -2 0.44466381E+00 0.30226130E+04</pdfrwt>
<totfact> 0.11247119E-01</totfact>
</mgrwt>
</event>
<event>
 6    1  0.2325157E-005  0.1036641E+04  0.7818608E-02  0.9269247E-01
         -2   -1    0    0    0  501 -0.00000000000E+00  0.00000000000E+00  0.64425639209E+03  0.64425639209E+03  0.00000000000E+00 0. -1.
          2   -1    0    0  501    0  0.00000000000E+00 -0.00000000000E+00 -0.41700150691E+03  0.41700150691E+03  0.00000000000E+00 0.  1.
         23    2    1    2    0    0 -0.24989120384E+03  0.34940268282E+03 -0.17445863363E+03  0.47312390090E+03  0.94247346019E+02 0.  0.
         13    1    3    3    0    0 -0.70937884837E+02  0.12239620929E+03 -0.13091893648E+02  0.14207185940E+03  0.00000000000E+00 0.  1.
        -13    1    3    3    0    0 -0.17895331901E+03  0.22700647353E+03 -0.16136673998E+03  0.33105204150E+03  0.00000000000E+00 0. -1.
         22    1    1    2    0    0  0.24989120384E+03 -0.34940268282E+03  0.40171351881E+03  0.58813399810E+03  0.00000000000E+00 0. -1.
<mgrwt>
<rscale>  0 0.10366405E+04</rscale>
<asrwt>0</asrwt>
<pdfrwt beam="1">  1        2 0.64154078E-01 0.10366405E+04</pdfrwt>
<pdfrwt beam="2">  1       -2 0.99116368E-01 0.10366405E+04</pdfrwt>
<totfact> 0.63779432E+01</totfact>
</mgrwt>
</event>
<event>
 6    1  0.2325157E-005  0.4600420E+04  0.7818608E-02  0.7893288E-01
         -2   -1    0    0    0  501 -0.00000000000E+00  0.00000000000E+00  0.21750235799E+04  0.21750235799E+04  0.00000000000E+00 0. -1.
          2   -1    0    0  501    0  0.00000000000E+00 -0.00000000000E+00 -0.24326013424E+04  0.24326013424E+04  0.00000000000E+00 0.  1.
         23    2    1    2    0    0 -0.20244401649E+04  0.52696209508E+03 -0.10852210429E+04  0.23579492945E+04  0.78569285362E+02 0.  0.
         11    1    3    3    0    0 -0.85015984090E+03  0.25918757636E+03 -0.44639884105E+03  0.99459634029E+03  0.00000000000E+00 0. -1.
        -11    1    3    3    0    0 -0.11742803240E+04  0.26777451872E+03 -0.63882220183E+03  0.13633529542E+04  0.00000000000E+00 0.  1.
         22    1    1    2    0    0  0.20244401649E+04 -0.52696209508E+03  0.82764328035E+03  0.22496756278E+04  0.00000000000E+00 0.  1.
<mgrwt>
<rscale>  0 0.46004197E+04</rscale>
<asrwt>0</asrwt>
<pdfrwt beam="1">  1        2 0.37424636E+00 0.46004197E+04</pdfrwt>
<pdfrwt beam="2">  1       -2 0.33461901E+00 0.46004197E+04</pdfrwt>
<totfact> 0.55601110E-02</totfact>
</mgrwt>
</event>
<event>
 6    1  0.2325157E-005  0.1016372E+04  0.7818608E-02  0.9290769E-01
         -2   -1    0    0    0  501 -0.00000000000E+00  0.00000000000E+00  0.67406108481E+03  0.67406108481E+03  0.00000000000E+00 0. -1.
          2   -1    0    0  501    0  0.00000000000E+00 -0.00000000000E+00 -0.38312977869E+03  0.38312977869E+03  0.00000000000E+00 0.  1.
         23    2    1    2    0    0  0.20246092817E+03 -0.20103626941E+03  0.57887892426E+03  0.65182702712E+03  0.91496750074E+02 0.  0.
         11    1    3    3    0    0  0.18891727634E+03 -0.17368004350E+03  0.55983388318E+03  0.61584776655E+03  0.00000000000E+00 0.  1.
        -11    1    3    3    0    0  0.13543651835E+02 -0.27356225913E+02  0.19045041077E+02  0.35979260566E+02  0.00000000000E+00 0. -1.
         22    1    1    2    0    0 -0.20246092817E+03  0.20103626941E+03 -0.28794761814E+03  0.40536383638E+03  0.00000000000E+00 0.  1.
<mgrwt>
<rscale>  0 0.10163717E+04</rscale>
<asrwt>0</asrwt>
<pdfrwt beam="1">  1        2 0.58943043E-01 0.10163717E+04</pdfrwt>
<pdfrwt beam="2">  1       -2 0.10370171E+00 0.10163717E+04</pdfrwt>
<totfact> 0.63077650E+01</totfact>
</mgrwt>
</event>
<event>
 6    1  0.4617216E-005  0.4131271E+04  0.7818608E-02  0.7978576E-01
          2   -1    0    0  501    0  0.00000000000E+00  0.00000000000E+00  0.18872528164E+04  0.18872528164E+04  0.00000000000E+00 0.  1.
         -2   -1    0    0    0  501 -0.00000000000E+00 -0.00000000000E+00 -0.22608790489E+04  0.22608790489E+04  0.00000000000E+00 0. -1.
         23    2    1    2    0    0 -0.12302074992E+04 -0.70927579381E+03  0.13183118551E+04  0.19392549709E+04  0.79253088889E+02 0.  0.
         13    1    3    3    0    0 -0.59053742204E+03 -0.38166020378E+03  0.67544830278E+03  0.97500223984E+03  0.00000000000E+00 0.  1.
        -13    1    3    3    0    0 -0.63967007715E+03 -0.32761559003E+03  0.64286355228E+03  0.96425273102E+03  0.00000000000E+00 0. -1.
         22    1    1    2    0    0  0.12302074992E+04  0.70927579381E+03 -0.16919380876E+04  0.22088768945E+04  0.00000000000E+00 0. -1.
<mgrwt>
<rscale>  0 0.41312712E+04</rscale>
<asrwt>0</asrwt>
<pdfrwt beam="1">  1        2 0.29034659E+00 0.41312712E+04</pdfrwt>
<pdfrwt beam="2">  1       -2 0.34782754E+00 0.41312712E+04</pdfrwt>
<totfact> 0.96718070E-02</totfact>
</mgrwt>
</event>
<event>
 6    1  0.2325157E-005  0.9178372E+03  0.7818608E-02  0.9403555E-01
         -2   -1    0    0    0  501 -0.00000000000E+00  0.00000000000E+00  0.70759467260E+03  0.70759467260E+03  0.00000000000E+00 0. -1.
          2   -1    0    0  501    0  0.00000000000E+00 -0.00000000000E+00 -0.29763690316E+03  0.29763690316E+03  0.00000000000E+00 0.  1.
         23    2    1    2    0    0  0.67344906086E+02 -0.36517983542E+03  0.49391795675E+03  0.62452044954E+03  0.90438903839E+02 0.  0.
         11    1    3    3    0    0  0.26341872998E+02 -0.17362301525E+03  0.16099690009E+03  0.23824115416E+03  0.00000000000E+00 0.  1.
        -11    1    3    3    0    0  0.41003033088E+02 -0.19155682017E+03  0.33292105666E+03  0.38627929538E+03  0.00000000000E+00 0. -1.
         22    1    1    2    0    0 -0.67344906086E+02  0.36517983542E+03 -0.83960187310E+02  0.38071112622E+03  0.00000000000E+00 0.  1.
<mgrwt>
<rscale>  0 0.91783721E+03</rscale>
<asrwt>0</asrwt>
<pdfrwt beam="1">  1        2 0.45790293E-01 0.91783721E+03</pdfrwt>
<pdfrwt beam="2">  1       -2 0.10886072E+00 0.91783721E+03</pdfrwt>
<totfact> 0.74805966E+01</totfact>
</mgrwt>
</event>
<event>
 6    1  0.2325157E-005  0.2645620E+04  0.7818608E-02  0.8352868E-01
         -2   -1    0    0    0  501 -0.00000000000E+00  0.00000000000E+00  0.18817536829E+04  0.18817536829E+04  0.00000000000E+00 0. -1.
          2   -1    0    0  501    0  0.00000000000E+00 -0.00000000000E+00 -0.92989134025E+03  0.92989134025E+03  0.00000000000E+00 0.  1.
         23    2    1    2    0    0 -0.59562277815E+03 -0.17489599419E+03 -0.76291540521E+03  0.98796253237E+03  0.93139396776E+02 0.  0.
         13    1    3    3    0    0 -0.34773041881E+03 -0.14289432337E+03 -0.42094851452E+03  0.56438717534E+03  0.00000000000E+00 0.  1.
        -13    1    3    3    0    0 -0.24789235934E+03 -0.32001670827E+02 -0.34196689069E+03  0.42357535703E+03  0.00000000000E+00 0. -1.
         22    1    1    2    0    0  0.59562277815E+03  0.17489599419E+03  0.17147777479E+04  0.18236824908E+04  0.00000000000E+00 0. -1.
<mgrwt>
<rscale>  0 0.26456201E+04</rscale>
<asrwt>0</asrwt>
<pdfrwt beam="1">  1        2 0.14306021E+00 0.26456201E+04</pdfrwt>
<pdfrwt beam="2">  1       -2 0.28950057E+00 0.26456201E+04</pdfrwt>
<totfact> 0.90909798E-01</totfact>
</mgrwt>
</event>
<event>
 6    1  0.2325157E-005  0.1353169E+04  0.7818608E-02  0.8988432E-01
         -2   -1    0    0    0  501 -0.00000000000E+00  0.00000000000E+00  0.29191302928E+03  0.29191302928E+03  0.00000000000E+00 0. -1.
          2   -1    0    0  501    0  0.00000000000E+00 -0.00000000000E+00 -0.15681619722E+04  0.15681619722E+04  0.00000000000E+00 0.  1.
         23    2    1    2    0    0 -0.36059465700E+03  0.47813061660E+03 -0.21738488277E+03  0.64359216516E+03  0.91199202931E+02 0.  0.
         13    1    3    3    0    0 -0.77755761357E+02  0.12397489384E+03 -0.93747778481E+02  0.17379406980E+03  0.00000000000E+00 0.  1.
        -13    1    3    3    0    0 -0.28283889564E+03  0.35415572276E+03 -0.12363710429E+03  0.46979809537E+03  0.00000000000E+00 0. -1.
         22    1    1    2    0    0  0.36059465700E+03 -0.47813061660E+03 -0.10588640602E+04  0.12164828364E+04  0.00000000000E+00 0.  1.
<mgrwt>
<rscale>  0 0.13531695E+04</rscale>
<asrwt>0</asrwt>
<pdfrwt beam="1">  1        2 0.24125569E+00 0.13531695E+04</pdfrwt>
<pdfrwt beam="2">  1       -2 0.44909697E-01 0.13531695E+04</pdfrwt>
<totfact> 0.53341933E+01</totfact>
</mgrwt>
</event>
<event>
 6    1  0.2325157E-005  0.2673797E+04  0.7818608E-02  0.8343557E-01
          2   -1    0    0  501    0  0.00000000000E+00  0.00000000000E+00  0.10264187894E+04  0.10264187894E+04  0.00000000000E+00 0.  1.
         -2   -1    0    0    0  501 -0.00000000000E+00 -0.00000000000E+00 -0.17412945240E+04  0.17412945240E+04  0.00000000000E+00 0. -1.
         23    2    1    2    0    0  0.13151541841E+04  0.17610283893E+03 -0.20251497628E+03  0.13453363295E+04  0.90965850875E+02 0.  0.
         13    1    3    3    0    0  0.50382347854E+02 -0.10708170913E+02 -0.71207467101E+01  0.51997605073E+02  0.00000000000E+00 0.  1.
        -13    1    3    3    0    0  0.12647718362E+04  0.18681100984E+03 -0.19539422957E+03  0.12933387244E+04  0.00000000000E+00 0. -1.
         22    1    1    2    0    0 -0.13151541841E+04 -0.17610283893E+03 -0.51236075824E+03  0.14223769839E+04  0.00000000000E+00 0.  1.
<mgrwt>
<rscale>  0 0.26737969E+04</rscale>
<asrwt>0</asrwt>
<pdfrwt beam="1">  1        2 0.15791058E+00 0.26737969E+04</pdfrwt>
<pdfrwt beam="2">  1       -2 0.26789146E+00 0.26737969E+04</pdfrwt>
<totfact> 0.10633760E+00</totfact>
</mgrwt>
</event>
<event>
 6    1  0.2325157E-005  0.1048135E+04  0.7818608E-02  0.9257272E-01
         -4   -1    0    0    0  501 -0.00000000000E+00  0.00000000000E+00  0.12285627818E+04  0.12285627818E+04  0.00000000000E+00 0. -1.
          4   -1    0    0  501    0  0.00000000000E+00 -0.00000000000E+00 -0.22355116487E+03  0.22355116487E+03  0.00000000000E+00 0.  1.
         23    2    1    2    0    0  0.55313028021E+02 -0.17218935946E+02  0.12224502366E+04  0.12270904452E+04  0.89500597009E+02 0.  0.
         11    1    3    3    0    0  0.15943886881E+02  0.22824131351E+00  0.10193783477E+04  0.10195030532E+04  0.00000000000E+00 0. -1.
        -11    1    3    3    0    0  0.39369141140E+02 -0.17447177260E+02  0.20307188891E+03  0.20758739204E+03  0.00000000000E+00 0.  1.
         22    1    1    2    0    0 -0.55313028021E+02  0.17218935946E+02 -0.21743861976E+03  0.22502350141E+03  0.00000000000E+00 0.  1.
<mgrwt>
<rscale>  0 0.10481348E+04</rscale>
<asrwt>0</asrwt>
<pdfrwt beam="1">  1        4 0.34392488E-01 0.10481348E+04</pdfrwt>
<pdfrwt beam="2">  1       -4 0.18900965E+00 0.10481348E+04</pdfrwt>
<totfact> 0.25522045E+00</totfact>
</mgrwt>
</event>
<event>
 6    1  0.2325157E-005  0.5607443E+04  0.7818608E-02  0.7741076E-01
         -2   -1    0    0    0  501 -0.00000000000E+00  0.00000000000E+00  0.21869192841E+04  0.21869192841E+04  0.00000000000E+00 0.  1.
          2   -1    0    0  501    0  0.00000000000E+00 -0.00000000000E+00 -0.35944881468E+04  0.35944881468E+04  0.00000000000E+00 0. -1.
         23    2    1    2    0    0 -0.94893231915E+03  0.17998565910E+04  0.12841941623E+04  0.24071601849E+04  0.72864356592E+02 0.  0.
         11    1    3    3    0    0 -0.41919851063E+03  0.84826536345E+03  0.62845718143E+03  0.11358872950E+04  0.00000000000E+00 0.  1.
        -11    1    3    3    0    0 -0.52973380852E+03  0.95159122757E+03  0.65573698088E+03  0.12712728898E+04  0.00000000000E+00 0. -1.
         22    1    1    2    0    0  0.94893231915E+03 -0.17998565910E+04 -0.26917630250E+04  0.33742472460E+04  0.00000000000E+00 0. -1.
<mgrwt>
<rscale>  0 0.56074434E+04</rscale>
<asrwt>0</asrwt>
<pdfrwt beam="1">  1        2 0.55299817E+00 0.56074434E+04</pdfrwt>
<pdfrwt beam="2">  1       -2 0.33644912E+00 0.56074434E+04</pdfrwt>
<totfact> 0.91261652E-03</totfact>
</mgrwt>
</event>
<event>
 6    1  0.2325157E-005  0.1553035E+04  0.7818608E-02  0.8849932E-01
          2   -1    0    0  501    0  0.00000000000E+00  0.00000000000E+00  0.53264935052E+03  0.53264935052E+03  0.00000000000E+00 0.  1.
         -2   -1    0    0    0  501 -0.00000000000E+00 -0.00000000000E+00 -0.11320381192E+04  0.11320381192E+04  0.00000000000E+00 0. -1.
         23    2    1    2    0    0 -0.47706089808E+02 -0.44109433355E+03  0.37884014258E+03  0.59054972951E+03  0.91591742521E+02 0.  0.
         11    1    3    3    0    0  0.20143163971E+02 -0.23521593701E+03  0.20568592381E+03  0.31311177450E+03  0.00000000000E+00 0. -1.
        -11    1    3    3    0    0 -0.67849253780E+02 -0.20587839655E+03  0.17315421877E+03  0.27743795501E+03  0.00000000000E+00 0.  1.
         22    1    1    2    0    0  0.47706089808E+02  0.44109433355E+03 -0.97822891123E+03  0.10741377402E+04  0.00000000000E+00 0. -1.
<mgrwt>
<rscale>  0 0.15530349E+04</rscale>
<asrwt>0</asrwt>
<pdfrwt beam="1">  1        2 0.81946056E-01 0.15530349E+04</pdfrwt>
<pdfrwt beam="2">  1       -2 0.17415971E+00 0.15530349E+04</pdfrwt>
<totfact> 0.10948574E+01</totfact>
</mgrwt>
</event>
<event>
 6    1  0.2325157E-005  0.1273459E+04  0.7818608E-02  0.9050881E-01
         -2   -1    0    0    0  501 -0.00000000000E+00  0.00000000000E+00  0.24464452161E+03  0.24464452161E+03  0.00000000000E+00 0. -1.
          2   -1    0    0  501    0  0.00000000000E+00 -0.00000000000E+00 -0.16571985461E+04  0.16571985461E+04  0.00000000000E+00 0.  1.
         23    2    1    2    0    0  0.54038823484E+03 -0.14899340758E+03 -0.11505947061E+04  0.12831014703E+04  0.90899535197E+02 0.  0.
         13    1    3    3    0    0  0.12996460867E+03 -0.60712830060E+02 -0.22627293396E+03  0.26791097007E+03  0.00000000000E+00 0. -1.
        -13    1    3    3    0    0  0.41042362617E+03 -0.88280577516E+02 -0.92432177215E+03  0.10151905002E+04  0.00000000000E+00 0.  1.
         22    1    1    2    0    0 -0.54038823484E+03  0.14899340758E+03 -0.26195931835E+03  0.61874159738E+03  0.00000000000E+00 0. -1.
<mgrwt>
<rscale>  0 0.12734591E+04</rscale>
<asrwt>0</asrwt>
<pdfrwt beam="1">  1        2 0.25495364E+00 0.12734591E+04</pdfrwt>
<pdfrwt beam="2">  1       -2 0.37637617E-01 0.12734591E+04</pdfrwt>
<totfact> 0.67735041E+01</totfact>
</mgrwt>
</event>
<event>
 6    1  0.2325157E-005  0.9108310E+03  0.7818608E-02  0.9412142E-01
         -2   -1    0    0    0  501 -0.00000000000E+00  0.00000000000E+00  0.13746010707E+03  0.13746010707E+03  0.00000000000E+00 0. -1.
          2   -1    0    0  501    0  0.00000000000E+00 -0.00000000000E+00 -0.15088253661E+04  0.15088253661E+04  0.00000000000E+00 0.  1.
         23    2    1    2    0    0  0.28998929393E+03  0.54324638957E+02 -0.78031956417E+02  0.31972752547E+03  0.95350654580E+02 0.  0.
         13    1    3    3    0    0  0.24799759683E+03  0.70945716296E+02 -0.89675196344E+02  0.27308925928E+03  0.00000000000E+00 0. -1.
        -13    1    3    3    0    0  0.41991697095E+02 -0.16621077339E+02  0.11643239928E+02  0.46638266186E+02  0.00000000000E+00 0.  1.
         22    1    1    2    0    0 -0.28998929393E+03 -0.54324638957E+02 -0.12933333027E+04  0.13265579477E+04  0.00000000000E+00 0.  1.
<mgrwt>
<rscale>  0 0.91083104E+03</rscale>
<asrwt>0</asrwt>
<pdfrwt beam="1">  1        2 0.23212697E+00 0.91083104E+03</pdfrwt>
<pdfrwt beam="2">  1       -2 0.21147710E-01 0.91083104E+03</pdfrwt>
<totfact> 0.24358627E+02</totfact>
</mgrwt>
</event>
<event>
 6    1  0.2325157E-005  0.4674600E+04  0.7818608E-02  0.7880763E-01
          2   -1    0    0  501    0  0.00000000000E+00  0.00000000000E+00  0.16920127103E+04  0.16920127103E+04  0.00000000000E+00 0.  1.
         -2   -1    0    0    0  501 -0.00000000000E+00 -0.00000000000E+00 -0.32286820238E+04  0.32286820238E+04  0.00000000000E+00 0. -1.
         23    2    1    2    0    0  0.10969751908E+04 -0.69370528837E+03 -0.28135979987E+04  0.30999453106E+04  0.93518097610E+02 0.  0.
         13    1    3    3    0    0  0.21354641420E+03 -0.17473940658E+03 -0.55436644389E+03  0.61923992551E+03  0.00000000000E+00 0.  1.
        -13    1    3    3    0    0  0.88342877656E+03 -0.51896588179E+03 -0.22592315548E+04  0.24807053851E+04  0.00000000000E+00 0. -1.
         22    1    1    2    0    0 -0.10969751908E+04  0.69370528837E+03  0.12769286851E+04  0.18207494235E+04  0.00000000000E+00 0.  1.
<mgrwt>
<rscale>  0 0.46745999E+04</rscale>
<asrwt>0</asrwt>
<pdfrwt beam="1">  1        2 0.26030965E+00 0.46745999E+04</pdfrwt>
<pdfrwt beam="2">  1       -2 0.49672031E+00 0.46745999E+04</pdfrwt>
<totfact> 0.12858596E-02</totfact>
</mgrwt>
</event>
<event>
 6    1  0.2325157E-005  0.4423391E+04  0.7818608E-02  0.7924188E-01
         -2   -1    0    0    0  501 -0.00000000000E+00  0.00000000000E+00  0.28856761293E+04  0.28856761293E+04  0.00000000000E+00 0. -1.
          2   -1    0    0  501    0  0.00000000000E+00 -0.00000000000E+00 -0.16951300100E+04  0.16951300100E+04  0.00000000000E+00 0.  1.
         23    2    1    2    0    0 -0.17834882803E+03  0.58528121420E+03  0.27955278817E+04  0.28631540028E+04  0.91171829309E+02 0.  0.
         13    1    3    3    0    0 -0.90058054403E+02  0.41353386373E+03  0.20294958566E+04  0.20731556000E+04  0.00000000000E+00 0. -1.
        -13    1    3    3    0    0 -0.88290773628E+02  0.17174735047E+03  0.76603202504E+03  0.78999840284E+03  0.00000000000E+00 0.  1.
         22    1    1    2    0    0  0.17834882803E+03 -0.58528121420E+03 -0.16049817624E+04  0.17176521364E+04  0.00000000000E+00 0.  1.
<mgrwt>
<rscale>  0 0.44233906E+04</rscale>
<asrwt>0</asrwt>
<pdfrwt beam="1">  1        2 0.26078923E+00 0.44233906E+04</pdfrwt>
<pdfrwt beam="2">  1       -2 0.44395017E+00 0.44233906E+04</pdfrwt>
<totfact> 0.28660612E-02</totfact>
</mgrwt>
</event>
<event>
 6    1  0.2325157E-005  0.9776650E+03  0.7818608E-02  0.9333386E-01
          2   -1    0    0  501    0  0.00000000000E+00  0.00000000000E+00  0.88860130096E+03  0.88860130096E+03  0.00000000000E+00 0.  1.
         -2   -1    0    0    0  501 -0.00000000000E+00 -0.00000000000E+00 -0.26891387020E+03  0.26891387020E+03  0.00000000000E+00 0. -1.
         23    2    1    2    0    0  0.24886095170E+02 -0.41365060870E+03  0.15309647842E+02  0.42471325502E+03  0.91765025244E+02 0.  0.
         11    1    3    3    0    0  0.32787516372E+02 -0.32784657125E+03 -0.23272146094E+02  0.33030287358E+03  0.00000000000E+00 0. -1.
        -11    1    3    3    0    0 -0.79014212014E+01 -0.85804037447E+02  0.38581793936E+02  0.94410381434E+02  0.00000000000E+00 0.  1.
         22    1    1    2    0    0 -0.24886095170E+02  0.41365060870E+03  0.60437778292E+03  0.73280191614E+03  0.00000000000E+00 0.  1.
<mgrwt>
<rscale>  0 0.97766500E+03</rscale>
<asrwt>0</asrwt>
<pdfrwt beam="1">  1        2 0.13670789E+00 0.97766500E+03</pdfrwt>
<pdfrwt beam="2">  1       -2 0.41371365E-01 0.97766500E+03</pdfrwt>
<totfact> 0.16501665E+02</totfact>
</mgrwt>
</event>
<event>
 6    1  0.2325157E-005  0.2103481E+04  0.7818608E-02  0.8559712E-01
          2   -1    0    0  501    0  0.00000000000E+00  0.00000000000E+00  0.24259604593E+04  0.24259604593E+04  0.00000000000E+00 0.  1.
         -2   -1    0    0    0  501 -0.00000000000E+00 -0.00000000000E+00 -0.45596691895E+03  0.45596691895E+03  0.00000000000E+00 0. -1.
         23    2    1    2    0    0 -0.87318211975E+03  0.56757027857E+03  0.80781819131E+03  0.13214035632E+04  0.94626165980E+02 0.  0.
         13    1    3    3    0    0 -0.35807551631E+03  0.23319476095E+03  0.39087483878E+03  0.57912089542E+03  0.00000000000E+00 0.  1.
        -13    1    3    3    0    0 -0.51510660344E+03  0.33437551761E+03  0.41694335253E+03  0.74228266779E+03  0.00000000000E+00 0. -1.
         22    1    1    2    0    0  0.87318211975E+03 -0.56757027857E+03  0.11621753490E+04  0.15605238150E+04  0.00000000000E+00 0.  1.
<mgrwt>
<rscale>  0 0.21034807E+04</rscale>
<asrwt>0</asrwt>
<pdfrwt beam="1">  1        2 0.37322468E+00 0.21034807E+04</pdfrwt>
<pdfrwt beam="2">  1       -2 0.70148758E-01 0.21034807E+04</pdfrwt>
<totfact> 0.65493365E+00</totfact>
</mgrwt>
</event>
<event>
 6    1  0.2325157E-005  0.1576132E+04  0.7818608E-02  0.8835347E-01
          2   -1    0    0  501    0  0.00000000000E+00  0.00000000000E+00  0.11651377424E+04  0.11651377424E+04  0.00000000000E+00 0.  1.
         -2   -1    0    0    0  501 -0.00000000000E+00 -0.00000000000E+00 -0.53302556027E+03  0.53302556027E+03  0.00000000000E+00 0. -1.
         23    2    1    2    0    0  0.59133768936E+03 -0.12311174901E+03  0.85807136963E+03  0.10532646129E+04  0.90791540013E+02 0.  0.
         11    1    3    3    0    0  0.26794002458E+03 -0.40940350632E+02  0.31176065751E+03  0.41311339442E+03  0.00000000000E+00 0.  1.
        -11    1    3    3    0    0  0.32339766478E+03 -0.82171398374E+02  0.54631071212E+03  0.64015121845E+03  0.00000000000E+00 0. -1.
         22    1    1    2    0    0 -0.59133768936E+03  0.12311174901E+03 -0.22595918755E+03  0.64489868975E+03  0.00000000000E+00 0. -1.
<mgrwt>
<rscale>  0 0.15761322E+04</rscale>
<asrwt>0</asrwt>
<pdfrwt beam="1">  1        2 0.17925196E+00 0.15761322E+04</pdfrwt>
<pdfrwt beam="2">  1       -2 0.82003932E-01 0.15761322E+04</pdfrwt>
<totfact> 0.24966882E+01</totfact>
</mgrwt>
</event>
<event>
 6    1  0.2325157E-005  0.1446744E+04  0.7818608E-02  0.8920661E-01
          2   -1    0    0  501    0  0.00000000000E+00  0.00000000000E+00  0.89382352029E+03  0.89382352029E+03  0.00000000000E+00 0.  1.
         -2   -1    0    0    0  501 -0.00000000000E+00 -0.00000000000E+00 -0.58542586748E+03  0.58542586748E+03  0.00000000000E+00 0. -1.
         23    2    1    2    0    0 -0.67212387060E+02  0.19912349052E+03  0.85937703491E+03  0.88954950736E+03  0.92745719430E+02 0.  0.
         13    1    3    3    0    0 -0.10270282442E+02  0.16066121793E+03  0.60641882073E+03  0.62742433152E+03  0.00000000000E+00 0.  1.
        -13    1    3    3    0    0 -0.56942104618E+02  0.38462272597E+02  0.25295821418E+03  0.26212517585E+03  0.00000000000E+00 0. -1.
         22    1    1    2    0    0  0.67212387060E+02 -0.19912349052E+03 -0.55097938210E+03  0.58969988040E+03  0.00000000000E+00 0. -1.
<mgrwt>
<rscale>  0 0.14467445E+04</rscale>
<asrwt>0</asrwt>
<pdfrwt beam="1">  1        2 0.13751131E+00 0.14467445E+04</pdfrwt>
<pdfrwt beam="2">  1       -2 0.90065518E-01 0.14467445E+04</pdfrwt>
<totfact> 0.30307339E+01</totfact>
</mgrwt>
</event>
<event>
 6    1  0.2325157E-005  0.2765959E+04  0.7818608E-02  0.8313915E-01
         -2   -1    0    0    0  501 -0.00000000000E+00  0.00000000000E+00  0.11163183164E+04  0.11163183164E+04  0.00000000000E+00 0. -1.
          2   -1    0    0  501    0  0.00000000000E+00 -0.00000000000E+00 -0.17133392050E+04  0.17133392050E+04  0.00000000000E+00 0.  1.
         23    2    1    2    0    0  0.56883500856E+03  0.97177987293E+03  0.52006325473E+03  0.12435281535E+04  0.89258563793E+02 0.  0.
         13    1    3    3    0    0  0.27780942511E+03  0.47251497323E+03  0.20409998471E+03  0.58489766658E+03  0.00000000000E+00 0.  1.
        -13    1    3    3    0    0  0.29102558345E+03  0.49926489970E+03  0.31596327002E+03  0.65863048692E+03  0.00000000000E+00 0. -1.
         22    1    1    2    0    0 -0.56883500856E+03 -0.97177987293E+03 -0.11170841433E+04  0.15861293679E+04  0.00000000000E+00 0.  1.
<mgrwt>
<rscale>  0 0.27659587E+04</rscale>
<asrwt>0</asrwt>
<pdfrwt beam="1">  1        2 0.26359065E+00 0.27659587E+04</pdfrwt>
<pdfrwt beam="2">  1       -2 0.17174128E+00 0.27659587E+04</pdfrwt>
<totfact> 0.17428988E+00</totfact>
</mgrwt>
</event>
<event>
 6    1  0.2325157E-005  0.3162174E+04  0.7818608E-02  0.8198879E-01
          2   -1    0    0  501    0  0.00000000000E+00  0.00000000000E+00  0.29159587181E+04  0.29159587181E+04  0.00000000000E+00 0.  1.
         -2   -1    0    0    0  501 -0.00000000000E+00 -0.00000000000E+00 -0.85729451668E+03  0.85729451668E+03  0.00000000000E+00 0. -1.
         23    2    1    2    0    0 -0.67509693757E+03  0.75637293728E+03  0.24758959512E+04  0.26769238005E+04  0.89467182634E+02 0.  0.
         13    1    3    3    0    0 -0.23453629091E+03  0.27031843746E+03  0.76499849614E+03  0.84457209786E+03  0.00000000000E+00 0. -1.
        -13    1    3    3    0    0 -0.44056064665E+03  0.48605449983E+03  0.17108974551E+04  0.18323517026E+04  0.00000000000E+00 0.  1.
         22    1    1    2    0    0  0.67509693757E+03 -0.75637293728E+03 -0.41723174986E+03  0.10963294343E+04  0.00000000000E+00 0. -1.
<mgrwt>
<rscale>  0 0.31621736E+04</rscale>
<asrwt>0</asrwt>
<pdfrwt beam="1">  1        2 0.44860903E+00 0.31621736E+04</pdfrwt>
<pdfrwt beam="2">  1       -2 0.13189147E+00 0.31621736E+04</pdfrwt>
<totfact> 0.69413921E-01</totfact>
</mgrwt>
</event>
<event>
 6    1  0.2325157E-005  0.4105568E+04  0.7818608E-02  0.7983582E-01
          2   -1    0    0  501    0  0.00000000000E+00  0.00000000000E+00  0.24592162412E+04  0.24592162412E+04  0.00000000000E+00 0.  1.
         -2   -1    0    0    0  501 -0.00000000000E+00 -0.00000000000E+00 -0.17135226133E+04  0.17135226133E+04  0.00000000000E+00 0. -1.
         23    2    1    2    0    0 -0.17145122036E+04 -0.10634048850E+04  0.74938397582E+03  0.21552166948E+04  0.11402022842E+03 0.  0.
         11    1    3    3    0    0 -0.42443338110E+03 -0.23671635185E+03  0.22705648577E+03  0.53640747007E+03  0.00000000000E+00 0. -1.
        -11    1    3    3    0    0 -0.12900788226E+04 -0.82668853318E+03  0.52232749006E+03  0.16188092248E+04  0.00000000000E+00 0.  1.
         22    1    1    2    0    0  0.17145122036E+04  0.10634048850E+04 -0.36903479534E+01  0.20175221596E+04  0.00000000000E+00 0. -1.
<mgrwt>
<rscale>  0 0.41055682E+04</rscale>
<asrwt>0</asrwt>
<pdfrwt beam="1">  1        2 0.37834096E+00 0.41055682E+04</pdfrwt>
<pdfrwt beam="2">  1       -2 0.26361886E+00 0.41055682E+04</pdfrwt>
<totfact> 0.15243798E-01</totfact>
</mgrwt>
</event>
<event>
 6    1  0.2325157E-005  0.2543210E+04  0.7818608E-02  0.8387751E-01
          2   -1    0    0  501    0  0.00000000000E+00  0.00000000000E+00  0.12097653683E+04  0.12097653683E+04  0.00000000000E+00 0.  1.
         -2   -1    0    0    0  501 -0.00000000000E+00 -0.00000000000E+00 -0.13366057330E+04  0.13366057330E+04  0.00000000000E+00 0. -1.
         23    2    1    2    0    0  0.10501037731E+04 -0.68236459407E+03  0.14747228089E+03  0.12643466081E+04  0.92113506698E+02 0.  0.
         11    1    3    3    0    0  0.93903534806E+03 -0.57689605762E+03  0.11818966692E+03  0.11084066237E+04  0.00000000000E+00 0. -1.
        -11    1    3    3    0    0  0.11106842508E+03 -0.10546853645E+03  0.29282613968E+02  0.15593998432E+03  0.00000000000E+00 0.  1.
         22    1    1    2    0    0 -0.10501037731E+04  0.68236459407E+03 -0.27431264559E+03  0.12820244932E+04  0.00000000000E+00 0. -1.
<mgrwt>
<rscale>  0 0.25432100E+04</rscale>
<asrwt>0</asrwt>
<pdfrwt beam="1">  1        2 0.18611775E+00 0.25432100E+04</pdfrwt>
<pdfrwt beam="2">  1       -2 0.20563165E+00 0.25432100E+04</pdfrwt>
<totfact> 0.20294750E+00</totfact>
</mgrwt>
</event>
<event>
 6    1  0.2325157E-005  0.7017018E+03  0.7818608E-02  0.9714326E-01
         -2   -1    0    0    0  501 -0.00000000000E+00  0.00000000000E+00  0.14104220923E+03  0.14104220923E+03  0.00000000000E+00 0. -1.
          2   -1    0    0  501    0  0.00000000000E+00 -0.00000000000E+00 -0.87276263401E+03  0.87276263401E+03  0.00000000000E+00 0.  1.
         23    2    1    2    0    0 -0.32221949745E+03  0.23050954307E+01 -0.19296999734E+03  0.38604474489E+03  0.89232321406E+02 0.  0.
         11    1    3    3    0    0 -0.19689151265E+03  0.33384517905E+02 -0.82345359584E+02  0.21601285155E+03  0.00000000000E+00 0.  1.
        -11    1    3    3    0    0 -0.12532798480E+03 -0.31079422475E+02 -0.11062463776E+03  0.17003189335E+03  0.00000000000E+00 0. -1.
         22    1    1    2    0    0  0.32221949745E+03 -0.23050954307E+01 -0.53875042744E+03  0.62776009834E+03  0.00000000000E+00 0.  1.
<mgrwt>
<rscale>  0 0.70170185E+03</rscale>
<asrwt>0</asrwt>
<pdfrwt beam="1">  1        2 0.13427118E+00 0.70170185E+03</pdfrwt>
<pdfrwt beam="2">  1       -2 0.21698801E-01 0.70170185E+03</pdfrwt>
<totfact> 0.56900619E+02</totfact>
</mgrwt>
</event>
<event>
 6    1  0.2325157E-005  0.1134644E+04  0.7818608E-02  0.9172068E-01
          1   -1    0    0  501    0  0.00000000000E+00  0.00000000000E+00  0.12027236913E+04  0.12027236913E+04  0.00000000000E+00 0.  1.
         -1   -1    0    0    0  501 -0.00000000000E+00 -0.00000000000E+00 -0.26760451761E+03  0.26760451761E+03  0.00000000000E+00 0. -1.
         23    2    1    2    0    0  0.43589668439E+03  0.18300984446E+03  0.86965771284E+03  0.99306127576E+03  0.79797476658E+02 0.  0.
         13    1    3    3    0    0  0.22822405112E+03  0.10063612806E+03  0.54010246308E+03  0.59491555570E+03  0.00000000000E+00 0.  1.
        -13    1    3    3    0    0  0.20767263327E+03  0.82373716406E+02  0.32955524975E+03  0.39814572006E+03  0.00000000000E+00 0. -1.
         22    1    1    2    0    0 -0.43589668439E+03 -0.18300984446E+03  0.65461460854E+02  0.47726693316E+03  0.00000000000E+00 0. -1.
<mgrwt>
<rscale>  0 0.11346441E+04</rscale>
<asrwt>0</asrwt>
<pdfrwt beam="1">  1        1 0.18503441E+00 0.11346441E+04</pdfrwt>
<pdfrwt beam="2">  1       -1 0.41169926E-01 0.11346441E+04</pdfrwt>
<totfact> 0.61051461E+01</totfact>
</mgrwt>
</event>
<event>
 6    1  0.2325157E-005  0.1607238E+04  0.7818608E-02  0.8816113E-01
         -2   -1    0    0    0  501 -0.00000000000E+00  0.00000000000E+00  0.28343657867E+03  0.28343657867E+03  0.00000000000E+00 0. -1.
          2   -1    0    0  501    0  0.00000000000E+00 -0.00000000000E+00 -0.22784772919E+04  0.22784772919E+04  0.00000000000E+00 0.  1.
         23    2    1    2    0    0 -0.68763545033E+03  0.40416543404E+03 -0.11198225460E+04  0.13777690100E+04  0.89736835873E+02 0.  0.
         13    1    3    3    0    0 -0.27369772322E+03  0.13389909633E+03 -0.36490383758E+03  0.47538849626E+03  0.00000000000E+00 0.  1.
        -13    1    3    3    0    0 -0.41393772711E+03  0.27026633772E+03 -0.75491870843E+03  0.90238051374E+03  0.00000000000E+00 0. -1.
         22    1    1    2    0    0  0.68763545033E+03 -0.40416543404E+03 -0.87521816727E+03  0.11841448606E+04  0.00000000000E+00 0.  1.
<mgrwt>
<rscale>  0 0.16072384E+04</rscale>
<asrwt>0</asrwt>
<pdfrwt beam="1">  1        2 0.35053495E+00 0.16072384E+04</pdfrwt>
<pdfrwt beam="2">  1       -2 0.43605630E-01 0.16072384E+04</pdfrwt>
<totfact> 0.22309632E+01</totfact>
</mgrwt>
</event>
<event>
 6    1  0.2325157E-005  0.2776419E+04  0.7818608E-02  0.8310627E-01
         -2   -1    0    0    0  501 -0.00000000000E+00  0.00000000000E+00  0.97789894708E+03  0.97789894708E+03  0.00000000000E+00 0. -1.
          2   -1    0    0  501    0  0.00000000000E+00 -0.00000000000E+00 -0.19706794416E+04  0.19706794416E+04  0.00000000000E+00 0.  1.
         23    2    1    2    0    0  0.64868012860E+03 -0.93652832141E+03 -0.13363783007E+04  0.17586495427E+04  0.95236786001E+02 0.  0.
         13    1    3    3    0    0  0.30084866392E+03 -0.35240392720E+03 -0.54616044886E+03  0.71623298052E+03  0.00000000000E+00 0. -1.
        -13    1    3    3    0    0  0.34783146468E+03 -0.58412439422E+03 -0.79021785180E+03  0.10424165622E+04  0.00000000000E+00 0.  1.
         22    1    1    2    0    0 -0.64868012860E+03  0.93652832141E+03  0.34359780618E+03  0.11899288460E+04  0.00000000000E+00 0. -1.
<mgrwt>
<rscale>  0 0.27764188E+04</rscale>
<asrwt>0</asrwt>
<pdfrwt beam="1">  1        2 0.30318145E+00 0.27764188E+04</pdfrwt>
<pdfrwt beam="2">  1       -2 0.15044599E+00 0.27764188E+04</pdfrwt>
<totfact> 0.17979734E+00</totfact>
</mgrwt>
</event>
<event>
 6    1  0.2325157E-005  0.2794024E+03  0.7818608E-02  0.1096016E+00
         -2   -1    0    0    0  501 -0.00000000000E+00  0.00000000000E+00  0.21502044049E+02  0.21502044049E+02  0.00000000000E+00 0. -1.
          2   -1    0    0  501    0  0.00000000000E+00 -0.00000000000E+00 -0.90765412020E+03  0.90765412020E+03  0.00000000000E+00 0.  1.
         23    2    1    2    0    0 -0.18925804721E+02 -0.72931019419E+01 -0.89986875428E+03  0.90467101203E+03  0.90854222014E+02 0.  0.
         11    1    3    3    0    0  0.31967697060E+02 -0.40916499835E+01 -0.17032919722E+03  0.17335140807E+03  0.00000000000E+00 0. -1.
        -11    1    3    3    0    0 -0.50893501781E+02 -0.32014519584E+01 -0.72953955706E+03  0.73131960395E+03  0.00000000000E+00 0.  1.
         22    1    1    2    0    0  0.18925804721E+02  0.72931019419E+01  0.13716678129E+02  0.24485152219E+02  0.00000000000E+00 0. -1.
<mgrwt>
<rscale>  0 0.27940235E+03</rscale>
<asrwt>0</asrwt>
<pdfrwt beam="1">  1        2 0.13963910E+00 0.27940235E+03</pdfrwt>
<pdfrwt beam="2">  1       -2 0.33080067E-02 0.27940235E+03</pdfrwt>
<totfact> 0.10965084E+04</totfact>
</mgrwt>
</event>
<event>
 6    1  0.2325157E-005  0.1046572E+04  0.7818608E-02  0.9258891E-01
          2   -1    0    0  501    0  0.00000000000E+00  0.00000000000E+00  0.90208443642E+03  0.90208443642E+03  0.00000000000E+00 0.  1.
         -2   -1    0    0    0  501 -0.00000000000E+00 -0.00000000000E+00 -0.30355037372E+03  0.30355037372E+03  0.00000000000E+00 0. -1.
         23    2    1    2    0    0  0.29663517443E+03 -0.42591736104E+03  0.30611070225E+03  0.60989204108E+03  0.94162171793E+02 0.  0.
         11    1    3    3    0    0  0.54995191660E+02 -0.38064094675E+02  0.64785674158E+02  0.93115680663E+02  0.00000000000E+00 0. -1.
        -11    1    3    3    0    0  0.24163998277E+03 -0.38785326636E+03  0.24132502809E+03  0.51677636042E+03  0.00000000000E+00 0.  1.
         22    1    1    2    0    0 -0.29663517443E+03  0.42591736104E+03  0.29242336045E+03  0.59574276906E+03  0.00000000000E+00 0.  1.
<mgrwt>
<rscale>  0 0.10465717E+04</rscale>
<asrwt>0</asrwt>
<pdfrwt beam="1">  1        2 0.13878222E+00 0.10465717E+04</pdfrwt>
<pdfrwt beam="2">  1       -2 0.46700058E-01 0.10465717E+04</pdfrwt>
<totfact> 0.12648263E+02</totfact>
</mgrwt>
</event>
<event>
 6    1  0.2325157E-005  0.5727188E+03  0.7818608E-02  0.9963680E-01
         -2   -1    0    0    0  501 -0.00000000000E+00  0.00000000000E+00  0.27533904138E+03  0.27533904138E+03  0.00000000000E+00 0. -1.
          2   -1    0    0  501    0  0.00000000000E+00 -0.00000000000E+00 -0.29782084645E+03  0.29782084645E+03  0.00000000000E+00 0.  1.
         23    2    1    2    0    0  0.86930740589E+02  0.20873882595E+03  0.15269963856E+03  0.28712249637E+03  0.89405241379E+02 0.  0.
         11    1    3    3    0    0  0.68031169739E+02  0.55750651713E+02  0.68432748771E+02  0.11144243504E+03  0.00000000000E+00 0. -1.
        -11    1    3    3    0    0  0.18899570851E+02  0.15298817424E+03  0.84266889785E+02  0.17568006133E+03  0.00000000000E+00 0.  1.
         22    1    1    2    0    0 -0.86930740589E+02 -0.20873882595E+03 -0.17518144363E+03  0.28603739146E+03  0.00000000000E+00 0.  1.
<mgrwt>
<rscale>  0 0.57271880E+03</rscale>
<asrwt>0</asrwt>
<pdfrwt beam="1">  1        2 0.45818592E-01 0.57271880E+03</pdfrwt>
<pdfrwt beam="2">  1       -2 0.42359853E-01 0.57271880E+03</pdfrwt>
<totfact> 0.58892946E+02</totfact>
</mgrwt>
</event>
<event>
 6    1  0.2325157E-005  0.3684643E+04  0.7818608E-02  0.8071374E-01
         -2   -1    0    0    0  501 -0.00000000000E+00  0.00000000000E+00  0.13856665545E+04  0.13856665545E+04  0.00000000000E+00 0. -1.
          2   -1    0    0  501    0  0.00000000000E+00 -0.00000000000E+00 -0.24494696647E+04  0.24494696647E+04  0.00000000000E+00 0.  1.
         23    2    1    2    0    0  0.15496574824E+02 -0.52255508808E+03 -0.23697174317E+04  0.24284677512E+04  0.92687369438E+02 0.  0.
         11    1    3    3    0    0  0.41845539973E+02 -0.15372923697E+03 -0.62390202113E+03  0.64392348884E+03  0.00000000000E+00 0. -1.
        -11    1    3    3    0    0 -0.26348965149E+02 -0.36882585111E+03 -0.17458154106E+04  0.17845442624E+04  0.00000000000E+00 0.  1.
         22    1    1    2    0    0 -0.15496574824E+02  0.52255508808E+03  0.13059143214E+04  0.14066684680E+04  0.00000000000E+00 0. -1.
<mgrwt>
<rscale>  0 0.36846428E+04</rscale>
<asrwt>0</asrwt>
<pdfrwt beam="1">  1        2 0.37684149E+00 0.36846428E+04</pdfrwt>
<pdfrwt beam="2">  1       -2 0.21317947E+00 0.36846428E+04</pdfrwt>
<totfact> 0.32922840E-01</totfact>
</mgrwt>
</event>
<event>
 6    1  0.2325157E-005  0.4085807E+04  0.7818608E-02  0.7987457E-01
         -2   -1    0    0    0  501 -0.00000000000E+00  0.00000000000E+00  0.19704891311E+04  0.19704891311E+04  0.00000000000E+00 0.  1.
          2   -1    0    0  501    0  0.00000000000E+00 -0.00000000000E+00 -0.21179786214E+04  0.21179786214E+04  0.00000000000E+00 0. -1.
         23    2    1    2    0    0 -0.72956533909E+03  0.19063804158E+04 -0.22310727491E+02  0.20434196856E+04  0.92273340114E+02 0.  0.
         11    1    3    3    0    0 -0.56935399364E+03  0.15599091058E+04  0.69395614961E+01  0.16605807858E+04  0.00000000000E+00 0. -1.
        -11    1    3    3    0    0 -0.16021134545E+03  0.34647130993E+03 -0.29250288988E+02  0.38283889982E+03  0.00000000000E+00 0.  1.
         22    1    1    2    0    0  0.72956533909E+03 -0.19063804158E+04 -0.12517876277E+03  0.20450480670E+04  0.00000000000E+00 0. -1.
<mgrwt>
<rscale>  0 0.40858066E+04</rscale>
<asrwt>0</asrwt>
<pdfrwt beam="1">  1        2 0.32584286E+00 0.40858066E+04</pdfrwt>
<pdfrwt beam="2">  1       -2 0.30315218E+00 0.40858066E+04</pdfrwt>
<totfact> 0.13674804E-01</totfact>
</mgrwt>
</event>
<event>
 6    1  0.2325157E-005  0.3357752E+04  0.7818608E-02  0.8148354E-01
         -2   -1    0    0    0  501 -0.00000000000E+00  0.00000000000E+00  0.69536851710E+03  0.69536851710E+03  0.00000000000E+00 0. -1.
          2   -1    0    0  501    0  0.00000000000E+00 -0.00000000000E+00 -0.40534246449E+04  0.40534246449E+04  0.00000000000E+00 0.  1.
         23    2    1    2    0    0 -0.12576036287E+04 -0.11736450735E+03 -0.32417428409E+04  0.34803807310E+04  0.93872637199E+02 0.  0.
         11    1    3    3    0    0 -0.82785554366E+03 -0.36097718180E+02 -0.21699463620E+04  0.23227817505E+04  0.00000000000E+00 0. -1.
        -11    1    3    3    0    0 -0.42974808501E+03 -0.81266789171E+02 -0.10717964788E+04  0.11575989805E+04  0.00000000000E+00 0.  1.
         22    1    1    2    0    0  0.12576036287E+04  0.11736450735E+03 -0.11631328694E+03  0.12684124310E+04  0.00000000000E+00 0.  1.
<mgrwt>
<rscale>  0 0.33577516E+04</rscale>
<asrwt>0</asrwt>
<pdfrwt beam="1">  1        2 0.62360377E+00 0.33577516E+04</pdfrwt>
<pdfrwt beam="2">  1       -2 0.10697977E+00 0.33577516E+04</pdfrwt>
<totfact> 0.18031392E-01</totfact>
</mgrwt>
</event>
<event>
 6    1  0.2325157E-005  0.2532537E+04  0.7818608E-02  0.8391485E-01
          2   -1    0    0  501    0  0.00000000000E+00  0.00000000000E+00  0.17724952274E+04  0.17724952274E+04  0.00000000000E+00 0.  1.
         -2   -1    0    0    0  501 -0.00000000000E+00 -0.00000000000E+00 -0.90462052950E+03  0.90462052950E+03  0.00000000000E+00 0. -1.
         23    2    1    2    0    0  0.12334007331E+04  0.74563708389E+02  0.71897374883E+03  0.14325240135E+04  0.91458639515E+02 0.  0.
         11    1    3    3    0    0  0.96583188143E+03  0.27368545076E+02  0.58595542093E+03  0.11300106264E+04  0.00000000000E+00 0.  1.
        -11    1    3    3    0    0  0.26756885166E+03  0.47195163314E+02  0.13301832790E+03  0.30251338711E+03  0.00000000000E+00 0. -1.
         22    1    1    2    0    0 -0.12334007331E+04 -0.74563708389E+02  0.14890094902E+03  0.12445917434E+04  0.00000000000E+00 0. -1.
<mgrwt>
<rscale>  0 0.25325367E+04</rscale>
<asrwt>0</asrwt>
<pdfrwt beam="1">  1        2 0.27269157E+00 0.25325367E+04</pdfrwt>
<pdfrwt beam="2">  1       -2 0.13917239E+00 0.25325367E+04</pdfrwt>
<totfact> 0.29000536E+00</totfact>
</mgrwt>
</event>
<event>
 6    1  0.2325157E-005  0.1339421E+04  0.7818608E-02  0.8998875E-01
          2   -1    0    0  501    0  0.00000000000E+00  0.00000000000E+00  0.99058204025E+03  0.99058204025E+03  0.00000000000E+00 0.  1.
         -2   -1    0    0    0  501 -0.00000000000E+00 -0.00000000000E+00 -0.45277668484E+03  0.45277668484E+03  0.00000000000E+00 0. -1.
         23    2    1    2    0    0  0.38210197135E+03  0.51408248847E+03  0.46887135894E+03  0.79912692106E+03  0.92091059703E+02 0.  0.
         11    1    3    3    0    0  0.24538308745E+03  0.29294859625E+03  0.22969828871E+03  0.44586213507E+03  0.00000000000E+00 0.  1.
        -11    1    3    3    0    0  0.13671888390E+03  0.22113389221E+03  0.23917307023E+03  0.35326478599E+03  0.00000000000E+00 0. -1.
         22    1    1    2    0    0 -0.38210197135E+03 -0.51408248847E+03  0.68933996473E+02  0.64423180403E+03  0.00000000000E+00 0. -1.
<mgrwt>
<rscale>  0 0.13394214E+04</rscale>
<asrwt>0</asrwt>
<pdfrwt beam="1">  1        2 0.15239724E+00 0.13394214E+04</pdfrwt>
<pdfrwt beam="2">  1       -2 0.69657951E-01 0.13394214E+04</pdfrwt>
<totfact> 0.46925554E+01</totfact>
</mgrwt>
</event>
<event>
 6    1  0.2325157E-005  0.1813248E+04  0.7818608E-02  0.8699286E-01
          2   -1    0    0  501    0  0.00000000000E+00  0.00000000000E+00  0.26660890264E+04  0.26660890264E+04  0.00000000000E+00 0.  1.
         -2   -1    0    0    0  501 -0.00000000000E+00 -0.00000000000E+00 -0.30830436080E+03  0.30830436080E+03  0.00000000000E+00 0. -1.
         23    2    1    2    0    0  0.43318774351E+03 -0.34486780183E+03  0.86809896603E+01  0.56091591638E+03  0.89251799931E+02 0.  0.
         11    1    3    3    0    0  0.11640740241E+03 -0.11716233498E+03 -0.33473072768E+02  0.16851748477E+03  0.00000000000E+00 0.  1.
        -11    1    3    3    0    0  0.31678034111E+03 -0.22770546685E+03  0.42154062428E+02  0.39239843160E+03  0.00000000000E+00 0. -1.
         22    1    1    2    0    0 -0.43318774351E+03  0.34486780183E+03  0.23491036760E+04  0.24134774709E+04  0.00000000000E+00 0.  1.
<mgrwt>
<rscale>  0 0.18132478E+04</rscale>
<asrwt>0</asrwt>
<pdfrwt beam="1">  1        2 0.41016753E+00 0.18132478E+04</pdfrwt>
<pdfrwt beam="2">  1       -2 0.47431442E-01 0.18132478E+04</pdfrwt>
<totfact> 0.11071147E+01</totfact>
</mgrwt>
</event>
<event>
 6    1  0.2325157E-005  0.1319475E+04  0.7818608E-02  0.9014262E-01
          2   -1    0    0  501    0  0.00000000000E+00  0.00000000000E+00  0.23465258158E+03  0.23465258158E+03  0.00000000000E+00 0.  1.
         -2   -1    0    0    0  501 -0.00000000000E+00 -0.00000000000E+00 -0.18548862352E+04  0.18548862352E+04  0.00000000000E+00 0. -1.
         23    2    1    2    0    0 -0.37133036743E+02 -0.11715448666E+03 -0.18353667133E+04  0.18417762903E+04  0.92004864617E+02 0.  0.
         13    1    3    3    0    0  0.11336672499E+02 -0.39490874715E+02 -0.10950760954E+04  0.10958465695E+04  0.00000000000E+00 0.  1.
        -13    1    3    3    0    0 -0.48469709242E+02 -0.77663611950E+02 -0.74029061791E+03  0.74592972075E+03  0.00000000000E+00 0. -1.
         22    1    1    2    0    0  0.37133036743E+02  0.11715448666E+03  0.21513305967E+03  0.24776252648E+03  0.00000000000E+00 0.  1.
<mgrwt>
<rscale>  0 0.13194754E+04</rscale>
<asrwt>0</asrwt>
<pdfrwt beam="1">  1        2 0.36100397E-01 0.13194754E+04</pdfrwt>
<pdfrwt beam="2">  1       -2 0.28536712E+00 0.13194754E+04</pdfrwt>
<totfact> 0.55497028E+00</totfact>
</mgrwt>
</event>
<event>
 6    1  0.2325157E-005  0.3719385E+04  0.7818608E-02  0.8063679E-01
          2   -1    0    0  501    0  0.00000000000E+00  0.00000000000E+00  0.21152473256E+04  0.21152473256E+04  0.00000000000E+00 0.  1.
         -2   -1    0    0    0  501 -0.00000000000E+00 -0.00000000000E+00 -0.16350124444E+04  0.16350124444E+04  0.00000000000E+00 0. -1.
         23    2    1    2    0    0  0.90205765887E+03  0.85079737443E+03  0.16362301438E+04  0.20550048513E+04  0.90728513240E+02 0.  0.
         13    1    3    3    0    0  0.44253505567E+03  0.39457061830E+03  0.71253867695E+03  0.92694908947E+03  0.00000000000E+00 0. -1.
        -13    1    3    3    0    0  0.45952260320E+03  0.45622675613E+03  0.92369146680E+03  0.11280557618E+04  0.00000000000E+00 0.  1.
         22    1    1    2    0    0 -0.90205765887E+03 -0.85079737443E+03 -0.11559952625E+04  0.16952549187E+04  0.00000000000E+00 0. -1.
<mgrwt>
<rscale>  0 0.37193847E+04</rscale>
<asrwt>0</asrwt>
<pdfrwt beam="1">  1        2 0.32542267E+00 0.37193847E+04</pdfrwt>
<pdfrwt beam="2">  1       -2 0.25154037E+00 0.37193847E+04</pdfrwt>
<totfact> 0.29240452E-01</totfact>
</mgrwt>
</event>
<event>
 6    1  0.2325157E-005  0.4723677E+04  0.7818608E-02  0.7872606E-01
         -2   -1    0    0    0  501 -0.00000000000E+00  0.00000000000E+00  0.16437450826E+04  0.16437450826E+04  0.00000000000E+00 0. -1.
          2   -1    0    0  501    0  0.00000000000E+00 -0.00000000000E+00 -0.33936416059E+04  0.33936416059E+04  0.00000000000E+00 0.  1.
         23    2    1    2    0    0 -0.23422760029E+03  0.12607464219E+04  0.12387873434E+04  0.17852219689E+04  0.89884853864E+02 0.  0.
         13    1    3    3    0    0 -0.16561708905E+03  0.94266834991E+03  0.87029811889E+03  0.12936272469E+04  0.00000000000E+00 0. -1.
        -13    1    3    3    0    0 -0.68610511247E+02  0.31807807199E+03  0.36848922447E+03  0.49159472199E+03  0.00000000000E+00 0.  1.
         22    1    1    2    0    0  0.23422760029E+03 -0.12607464219E+04 -0.29886838666E+04  0.32521647196E+04  0.00000000000E+00 0.  1.
<mgrwt>
<rscale>  0 0.47236773E+04</rscale>
<asrwt>0</asrwt>
<pdfrwt beam="1">  1        2 0.52209870E+00 0.47236773E+04</pdfrwt>
<pdfrwt beam="2">  1       -2 0.25288386E+00 0.47236773E+04</pdfrwt>
<totfact> 0.44138980E-02</totfact>
</mgrwt>
</event>
<event>
 6    1  0.2325157E-005  0.2205088E+04  0.7818608E-02  0.8516313E-01
         -2   -1    0    0    0  501 -0.00000000000E+00  0.00000000000E+00  0.10281132161E+04  0.10281132161E+04  0.00000000000E+00 0. -1.
          2   -1    0    0  501    0  0.00000000000E+00 -0.00000000000E+00 -0.11823632901E+04  0.11823632901E+04  0.00000000000E+00 0.  1.
         23    2    1    2    0    0  0.10582684783E+04 -0.83831926998E+02 -0.36578508419E+03  0.11280223387E+04  0.10805417464E+03 0.  0.
         11    1    3    3    0    0  0.50341248120E+03  0.92807672647E+01 -0.19660348187E+03  0.54052121878E+03  0.00000000000E+00 0.  1.
        -11    1    3    3    0    0  0.55485599709E+03 -0.93112694263E+02 -0.16918160232E+03  0.58750111992E+03  0.00000000000E+00 0. -1.
         22    1    1    2    0    0 -0.10582684783E+04  0.83831926998E+02  0.21153501023E+03  0.10824541675E+04  0.00000000000E+00 0. -1.
<mgrwt>
<rscale>  0 0.22050880E+04</rscale>
<asrwt>0</asrwt>
<pdfrwt beam="1">  1        2 0.18190205E+00 0.22050880E+04</pdfrwt>
<pdfrwt beam="2">  1       -2 0.15817126E+00 0.22050880E+04</pdfrwt>
<totfact> 0.46087331E+00</totfact>
</mgrwt>
</event>
<event>
 6    1  0.2325157E-005  0.3031182E+04  0.7818608E-02  0.8234882E-01
          2   -1    0    0  501    0  0.00000000000E+00  0.00000000000E+00  0.11291757300E+04  0.11291757300E+04  0.00000000000E+00 0.  1.
         -2   -1    0    0    0  501 -0.00000000000E+00 -0.00000000000E+00 -0.20342409233E+04  0.20342409233E+04  0.00000000000E+00 0. -1.
         23    2    1    2    0    0 -0.86308124548E+03 -0.12438930996E+04 -0.41566921097E+03  0.15722888435E+04  0.84451375709E+02 0.  0.
         13    1    3    3    0    0 -0.62770914428E+03 -0.96178778626E+03 -0.33120642035E+03  0.11953042326E+04  0.00000000000E+00 0. -1.
        -13    1    3    3    0    0 -0.23537210120E+03 -0.28210531339E+03 -0.84462790625E+02  0.37698461091E+03  0.00000000000E+00 0.  1.
         22    1    1    2    0    0  0.86308124548E+03  0.12438930996E+04 -0.48939598225E+03  0.15911278098E+04  0.00000000000E+00 0. -1.
<mgrwt>
<rscale>  0 0.30311816E+04</rscale>
<asrwt>0</asrwt>
<pdfrwt beam="1">  1        2 0.17371934E+00 0.30311816E+04</pdfrwt>
<pdfrwt beam="2">  1       -2 0.31296014E+00 0.30311816E+04</pdfrwt>
<totfact> 0.47226085E-01</totfact>
</mgrwt>
</event>
<event>
 6    1  0.2325157E-005  0.9236666E+03  0.7818608E-02  0.9396471E-01
         -2   -1    0    0    0  501 -0.00000000000E+00  0.00000000000E+00  0.13192562088E+03  0.13192562088E+03  0.00000000000E+00 0. -1.
          2   -1    0    0  501    0  0.00000000000E+00 -0.00000000000E+00 -0.16167442612E+04  0.16167442612E+04  0.00000000000E+00 0.  1.
         23    2    1    2    0    0 -0.67108613742E+02 -0.27554243786E+03 -0.71183695132E+02  0.30686859225E+03  0.93134383310E+02 0.  0.
         13    1    3    3    0    0 -0.57449824111E+02 -0.12502632819E+03  0.54278597002E+01  0.13770085945E+03  0.00000000000E+00 0. -1.
        -13    1    3    3    0    0 -0.96587896312E+01 -0.15051610967E+03 -0.76611554832E+02  0.16916773280E+03  0.00000000000E+00 0.  1.
         22    1    1    2    0    0  0.67108613742E+02  0.27554243786E+03 -0.14136349452E+04  0.14418012898E+04  0.00000000000E+00 0.  1.
<mgrwt>
<rscale>  0 0.92366659E+03</rscale>
<asrwt>0</asrwt>
<pdfrwt beam="1">  1        2 0.24872987E+00 0.92366659E+03</pdfrwt>
<pdfrwt beam="2">  1       -2 0.20296251E-01 0.92366659E+03</pdfrwt>
<totfact> 0.22788020E+02</totfact>
</mgrwt>
</event>
<event>
 6    1  0.2325157E-005  0.1331079E+04  0.7818608E-02  0.9005276E-01
          2   -1    0    0  501    0  0.00000000000E+00  0.00000000000E+00  0.27657574095E+04  0.27657574095E+04  0.00000000000E+00 0.  1.
         -2   -1    0    0    0  501 -0.00000000000E+00 -0.00000000000E+00 -0.16015240591E+03  0.16015240591E+03  0.00000000000E+00 0. -1.
         23    2    1    2    0    0  0.51328111318E+03 -0.66573240212E+02  0.22166814016E+04  0.22784910440E+04  0.99777270337E+02 0.  0.
         11    1    3    3    0    0  0.25833716656E+03 -0.67141828619E+02  0.12935543561E+04  0.13208061891E+04  0.00000000000E+00 0. -1.
        -11    1    3    3    0    0  0.25494394662E+03  0.56858840755E+00  0.92312704548E+03  0.95768485490E+03  0.00000000000E+00 0.  1.
         22    1    1    2    0    0 -0.51328111318E+03  0.66573240212E+02  0.38892360199E+03  0.64741877147E+03  0.00000000000E+00 0. -1.
<mgrwt>
<rscale>  0 0.13310788E+04</rscale>
<asrwt>0</asrwt>
<pdfrwt beam="1">  1        2 0.42550110E+00 0.13310788E+04</pdfrwt>
<pdfrwt beam="2">  1       -2 0.24638834E-01 0.13310788E+04</pdfrwt>
<totfact> 0.35198683E+01</totfact>
</mgrwt>
</event>
<event>
 6    1  0.2325157E-005  0.2263833E+04  0.7818608E-02  0.8492319E-01
         -2   -1    0    0    0  501 -0.00000000000E+00  0.00000000000E+00  0.32791374190E+03  0.32791374190E+03  0.00000000000E+00 0.  1.
          2   -1    0    0  501    0  0.00000000000E+00 -0.00000000000E+00 -0.39072321907E+04  0.39072321907E+04  0.00000000000E+00 0. -1.
         23    2    1    2    0    0  0.49357544739E+03  0.10144678114E+04 -0.19180531094E+04  0.22270213870E+04  0.89077861178E+02 0.  0.
         11    1    3    3    0    0  0.21264312648E+03  0.33971784281E+03 -0.68046792777E+03  0.78972268087E+03  0.00000000000E+00 0.  1.
        -11    1    3    3    0    0  0.28093232091E+03  0.67474996855E+03 -0.12375851816E+04  0.14372987061E+04  0.00000000000E+00 0. -1.
         22    1    1    2    0    0 -0.49357544739E+03 -0.10144678114E+04 -0.16612653395E+04  0.20081245456E+04  0.00000000000E+00 0. -1.
<mgrwt>
<rscale>  0 0.22638331E+04</rscale>
<asrwt>0</asrwt>
<pdfrwt beam="1">  1        2 0.60111261E+00 0.22638331E+04</pdfrwt>
<pdfrwt beam="2">  1       -2 0.50448271E-01 0.22638331E+04</pdfrwt>
<totfact> 0.13785087E+00</totfact>
</mgrwt>
</event>
<event>
 6    1  0.2325157E-005  0.6644621E+03  0.7818608E-02  0.9780014E-01
         -2   -1    0    0    0  501 -0.00000000000E+00  0.00000000000E+00  0.84818985742E+03  0.84818985742E+03  0.00000000000E+00 0. -1.
          2   -1    0    0  501    0  0.00000000000E+00 -0.00000000000E+00 -0.13013296755E+03  0.13013296755E+03  0.00000000000E+00 0.  1.
         23    2    1    2    0    0 -0.25180309338E+03  0.45214131238E+02  0.68689445018E+02  0.28037784581E+03  0.91893313488E+02 0.  0.
         11    1    3    3    0    0 -0.38223805979E+02  0.22930161928E+02 -0.18961491308E+02  0.48439548121E+02  0.00000000000E+00 0.  1.
        -11    1    3    3    0    0 -0.21357928740E+03  0.22283969310E+02  0.87650936326E+02  0.23193829769E+03  0.00000000000E+00 0. -1.
         22    1    1    2    0    0  0.25180309338E+03 -0.45214131238E+02  0.64936744485E+03  0.69794497916E+03  0.00000000000E+00 0. -1.
<mgrwt>
<rscale>  0 0.66446208E+03</rscale>
<asrwt>0</asrwt>
<pdfrwt beam="1">  1        2 0.20020457E-01 0.66446208E+03</pdfrwt>
<pdfrwt beam="2">  1       -2 0.13049074E+00 0.66446208E+03</pdfrwt>
<totfact> 0.12364749E+02</totfact>
</mgrwt>
</event>
<event>
 6    1  0.2325157E-005  0.1430224E+04  0.7818608E-02  0.8932227E-01
         -1   -1    0    0    0  501 -0.00000000000E+00  0.00000000000E+00  0.92229280494E+03  0.92229280494E+03  0.00000000000E+00 0.  1.
          1   -1    0    0  501    0  0.00000000000E+00 -0.00000000000E+00 -0.55447179369E+03  0.55447179369E+03  0.00000000000E+00 0. -1.
         23    2    1    2    0    0 -0.20515839349E+03  0.43996775405E+03  0.72274715362E+03  0.87540434257E+03  0.91146716360E+02 0.  0.
         11    1    3    3    0    0 -0.12078237624E+03  0.25119401191E+03  0.33342239800E+03  0.43457716175E+03  0.00000000000E+00 0. -1.
        -11    1    3    3    0    0 -0.84376017251E+02  0.18877374214E+03  0.38932475563E+03  0.44082718082E+03  0.00000000000E+00 0.  1.
         22    1    1    2    0    0  0.20515839349E+03 -0.43996775405E+03 -0.35492614238E+03  0.60136025606E+03  0.00000000000E+00 0. -1.
<mgrwt>
<rscale>  0 0.14302242E+04</rscale>
<asrwt>0</asrwt>
<pdfrwt beam="1">  1        1 0.85303353E-01 0.14302242E+04</pdfrwt>
<pdfrwt beam="2">  1       -1 0.14189120E+00 0.14302242E+04</pdfrwt>
<totfact> 0.15096874E+01</totfact>
</mgrwt>
</event>
<event>
 6    1  0.2325157E-005  0.2921132E+04  0.7818608E-02  0.8266618E-01
          2   -1    0    0  501    0  0.00000000000E+00  0.00000000000E+00  0.29729751225E+04  0.29729751225E+04  0.00000000000E+00 0.  1.
         -2   -1    0    0    0  501 -0.00000000000E+00 -0.00000000000E+00 -0.71754811198E+03  0.71754811198E+03  0.00000000000E+00 0. -1.
         23    2    1    2    0    0 -0.12989486518E+03 -0.14427257990E+04  0.13501078581E+04  0.19823273515E+04  0.92195948261E+02 0.  0.
         11    1    3    3    0    0 -0.10925354667E+03 -0.71644716058E+03  0.65811444761E+03  0.97895224475E+03  0.00000000000E+00 0. -1.
        -11    1    3    3    0    0 -0.20641318509E+02 -0.72627863838E+03  0.69199341051E+03  0.10033751067E+04  0.00000000000E+00 0.  1.
         22    1    1    2    0    0  0.12989486518E+03  0.14427257990E+04  0.90531915240E+03  0.17081958830E+04  0.00000000000E+00 0.  1.
<mgrwt>
<rscale>  0 0.29211318E+04</rscale>
<asrwt>0</asrwt>
<pdfrwt beam="1">  1        2 0.45738078E+00 0.29211318E+04</pdfrwt>
<pdfrwt beam="2">  1       -2 0.11039202E+00 0.29211318E+04</pdfrwt>
<totfact> 0.10154056E+00</totfact>
</mgrwt>
</event>
<event>
 6    1  0.2325157E-005  0.8632905E+03  0.7818608E-02  0.9472671E-01
         -2   -1    0    0    0  501 -0.00000000000E+00  0.00000000000E+00  0.59079629997E+02  0.59079629997E+02  0.00000000000E+00 0. -1.
          2   -1    0    0  501    0  0.00000000000E+00 -0.00000000000E+00 -0.31536693012E+04  0.31536693012E+04  0.00000000000E+00 0.  1.
         23    2    1    2    0    0  0.11545329268E+03 -0.39260111975E+03 -0.11123688138E+04  0.11887270367E+04  0.90788147735E+02 0.  0.
         11    1    3    3    0    0  0.30844734204E+02 -0.22287486623E+03 -0.68941811430E+03  0.72520475726E+03  0.00000000000E+00 0.  1.
        -11    1    3    3    0    0  0.84608558479E+02 -0.16972625352E+03 -0.42295069954E+03  0.46352227945E+03  0.00000000000E+00 0. -1.
         22    1    1    2    0    0 -0.11545329268E+03  0.39260111975E+03 -0.19822208574E+04  0.20240218945E+04  0.00000000000E+00 0.  1.
<mgrwt>
<rscale>  0 0.86329049E+03</rscale>
<asrwt>0</asrwt>
<pdfrwt beam="1">  1        2 0.48517978E+00 0.86329049E+03</pdfrwt>
<pdfrwt beam="2">  1       -2 0.90891760E-02 0.86329049E+03</pdfrwt>
<totfact> 0.11660739E+02</totfact>
</mgrwt>
</event>
<event>
 6    1  0.2325157E-005  0.2102690E+04  0.7818608E-02  0.8560060E-01
         -2   -1    0    0    0  501 -0.00000000000E+00  0.00000000000E+00  0.72213762337E+03  0.72213762337E+03  0.00000000000E+00 0. -1.
          2   -1    0    0  501    0  0.00000000000E+00 -0.00000000000E+00 -0.15306304545E+04  0.15306304545E+04  0.00000000000E+00 0.  1.
         23    2    1    2    0    0  0.78476173249E+03 -0.65410444148E+03 -0.66130606379E+03  0.12206016467E+04  0.94016343593E+02 0.  0.
         13    1    3    3    0    0  0.25691377878E+03 -0.16314133654E+03 -0.21738656987E+03  0.37400094408E+03  0.00000000000E+00 0.  1.
        -13    1    3    3    0    0  0.52784795371E+03 -0.49096310494E+03 -0.44391949391E+03  0.84660070265E+03  0.00000000000E+00 0. -1.
         22    1    1    2    0    0 -0.78476173249E+03  0.65410444148E+03 -0.14718676738E+03  0.10321664312E+04  0.00000000000E+00 0. -1.
<mgrwt>
<rscale>  0 0.21026896E+04</rscale>
<asrwt>0</asrwt>
<pdfrwt beam="1">  1        2 0.23548161E+00 0.21026896E+04</pdfrwt>
<pdfrwt beam="2">  1       -2 0.11109810E+00 0.21026896E+04</pdfrwt>
<totfact> 0.72094538E+00</totfact>
</mgrwt>
</event>
<event>
 6    1  0.2325157E-005  0.3470410E+04  0.7818608E-02  0.8120838E-01
          2   -1    0    0  501    0  0.00000000000E+00  0.00000000000E+00  0.17540977608E+04  0.17540977608E+04  0.00000000000E+00 0.  1.
         -2   -1    0    0    0  501 -0.00000000000E+00 -0.00000000000E+00 -0.17165161223E+04  0.17165161223E+04  0.00000000000E+00 0. -1.
         23    2    1    2    0    0 -0.23589347559E+03 -0.14967170338E+04  0.86211999431E+03  0.17456005175E+04  0.89792376294E+02 0.  0.
         11    1    3    3    0    0 -0.86725942047E+02 -0.44401490199E+03  0.30111489234E+03  0.54345266639E+03  0.00000000000E+00 0. -1.
        -11    1    3    3    0    0 -0.14916753354E+03 -0.10527021319E+04  0.56100510197E+03  0.12021478511E+04  0.00000000000E+00 0.  1.
         22    1    1    2    0    0  0.23589347559E+03  0.14967170338E+04 -0.82453835583E+03  0.17250133656E+04  0.00000000000E+00 0. -1.
<mgrwt>
<rscale>  0 0.34704104E+04</rscale>
<asrwt>0</asrwt>
<pdfrwt beam="1">  1        2 0.26986120E+00 0.34704104E+04</pdfrwt>
<pdfrwt beam="2">  1       -2 0.26407940E+00 0.34704104E+04</pdfrwt>
<totfact> 0.39705879E-01</totfact>
</mgrwt>
</event>
<event>
 6    1  0.2325157E-005  0.2564535E+04  0.7818608E-02  0.8380349E-01
         -2   -1    0    0    0  501 -0.00000000000E+00  0.00000000000E+00  0.58144485128E+03  0.58144485128E+03  0.00000000000E+00 0. -1.
          2   -1    0    0  501    0  0.00000000000E+00 -0.00000000000E+00 -0.28278001735E+04  0.28278001735E+04  0.00000000000E+00 0.  1.
         23    2    1    2    0    0 -0.11822838001E+04 -0.69155443636E+02 -0.47666299881E+03  0.12798346888E+04  0.90508324589E+02 0.  0.
         11    1    3    3    0    0 -0.10329845109E+04 -0.89559633198E+02 -0.40807961405E+03  0.11142741580E+04  0.00000000000E+00 0. -1.
        -11    1    3    3    0    0 -0.14929928920E+03  0.20404189562E+02 -0.68583384764E+02  0.16556053084E+03  0.00000000000E+00 0.  1.
         22    1    1    2    0    0  0.11822838001E+04  0.69155443636E+02 -0.17696923234E+04  0.21294103360E+04  0.00000000000E+00 0.  1.
<mgrwt>
<rscale>  0 0.25645349E+04</rscale>
<asrwt>0</asrwt>
<pdfrwt beam="1">  1        2 0.43504619E+00 0.25645349E+04</pdfrwt>
<pdfrwt beam="2">  1       -2 0.89453052E-01 0.25645349E+04</pdfrwt>
<totfact> 0.21146430E+00</totfact>
</mgrwt>
</event>
<event>
 6    1  0.2325157E-005  0.2794034E+04  0.7818608E-02  0.8305123E-01
         -2   -1    0    0    0  501 -0.00000000000E+00  0.00000000000E+00  0.10668249963E+04  0.10668249963E+04  0.00000000000E+00 0. -1.
          2   -1    0    0  501    0  0.00000000000E+00 -0.00000000000E+00 -0.18294061904E+04  0.18294061904E+04  0.00000000000E+00 0.  1.
         23    2    1    2    0    0  0.11085512765E+04 -0.75182440778E+03 -0.78988177066E+03  0.15565031567E+04  0.68286108311E+02 0.  0.
         13    1    3    3    0    0  0.99987951886E+03 -0.70132132804E+03 -0.72273686290E+03  0.14191403138E+04  0.00000000000E+00 0. -1.
        -13    1    3    3    0    0  0.10867175762E+03 -0.50503079736E+02 -0.67144907762E+02  0.13736284289E+03  0.00000000000E+00 0.  1.
         22    1    1    2    0    0 -0.11085512765E+04  0.75182440778E+03  0.27300576573E+02  0.13397280299E+04  0.00000000000E+00 0. -1.
<mgrwt>
<rscale>  0 0.27940338E+04</rscale>
<asrwt>0</asrwt>
<pdfrwt beam="1">  1        2 0.28144711E+00 0.27940338E+04</pdfrwt>
<pdfrwt beam="2">  1       -2 0.16412692E+00 0.27940338E+04</pdfrwt>
<totfact> 0.16998994E+00</totfact>
</mgrwt>
</event>
<event>
 6    1  0.2325157E-005  0.3996585E+04  0.7818608E-02  0.8005236E-01
          2   -1    0    0  501    0  0.00000000000E+00  0.00000000000E+00  0.24386736508E+04  0.24386736508E+04  0.00000000000E+00 0.  1.
         -2   -1    0    0    0  501 -0.00000000000E+00 -0.00000000000E+00 -0.16374361465E+04  0.16374361465E+04  0.00000000000E+00 0. -1.
         23    2    1    2    0    0  0.15429103162E+04  0.12479234464E+04  0.17026636467E+03  0.19938010423E+04  0.91470155401E+02 0.  0.
         13    1    3    3    0    0  0.29725769737E+03  0.26822277812E+03  0.46290689287E+01  0.40040857337E+03  0.00000000000E+00 0.  1.
        -13    1    3    3    0    0  0.12456526188E+04  0.97970066829E+03  0.16563729574E+03  0.15933924689E+04  0.00000000000E+00 0. -1.
         22    1    1    2    0    0 -0.15429103162E+04 -0.12479234464E+04  0.63097113967E+03  0.20823087550E+04  0.00000000000E+00 0.  1.
<mgrwt>
<rscale>  0 0.39965847E+04</rscale>
<asrwt>0</asrwt>
<pdfrwt beam="1">  1        2 0.37518056E+00 0.39965847E+04</pdfrwt>
<pdfrwt beam="2">  1       -2 0.25191325E+00 0.39965847E+04</pdfrwt>
<totfact> 0.18641992E-01</totfact>
</mgrwt>
</event>
<event>
 6    1  0.2325157E-005  0.8868542E+03  0.7818608E-02  0.9442165E-01
          4   -1    0    0  501    0  0.00000000000E+00  0.00000000000E+00  0.35069184729E+03  0.35069184729E+03  0.00000000000E+00 0.  1.
         -4   -1    0    0    0  501 -0.00000000000E+00 -0.00000000000E+00 -0.56068487430E+03  0.56068487430E+03  0.00000000000E+00 0. -1.
         23    2    1    2    0    0 -0.37672483408E+03 -0.19095641710E+03  0.16718167470E+02  0.43201890164E+03  0.89302185892E+02 0.  0.
         13    1    3    3    0    0 -0.89318605401E+02 -0.90404040072E+02  0.25133943266E+00  0.12708566758E+03  0.00000000000E+00 0. -1.
        -13    1    3    3    0    0 -0.28740622868E+03 -0.10055237703E+03  0.16466828037E+02  0.30493323406E+03  0.00000000000E+00 0.  1.
         22    1    1    2    0    0  0.37672483408E+03  0.19095641710E+03 -0.22671119447E+03  0.47935781995E+03  0.00000000000E+00 0. -1.
<mgrwt>
<rscale>  0 0.88685425E+03</rscale>
<asrwt>0</asrwt>
<pdfrwt beam="1">  1        4 0.53952592E-01 0.88685425E+03</pdfrwt>
<pdfrwt beam="2">  1       -4 0.86259212E-01 0.88685425E+03</pdfrwt>
<totfact> 0.76370179E+00</totfact>
</mgrwt>
</event>
<event>
 6    1  0.2325157E-005  0.4138194E+04  0.7818608E-02  0.7977234E-01
         -1   -1    0    0    0  501 -0.00000000000E+00  0.00000000000E+00  0.22631006633E+04  0.22631006633E+04  0.00000000000E+00 0. -1.
          1   -1    0    0  501    0  0.00000000000E+00 -0.00000000000E+00 -0.18917238952E+04  0.18917238952E+04  0.00000000000E+00 0.  1.
         23    2    1    2    0    0 -0.18756055060E+04  0.73414044108E+03  0.65689335661E+03  0.21205242061E+04  0.90861570551E+02 0.  0.
         11    1    3    3    0    0 -0.12111107937E+04  0.51938933763E+03  0.43910383636E+03  0.13890164929E+04  0.00000000000E+00 0. -1.
        -11    1    3    3    0    0 -0.66449471239E+03  0.21475110344E+03  0.21778952026E+03  0.73150771312E+03  0.00000000000E+00 0.  1.
         22    1    1    2    0    0  0.18756055060E+04 -0.73414044108E+03 -0.28551658854E+03  0.20343003524E+04  0.00000000000E+00 0.  1.
<mgrwt>
<rscale>  0 0.41381936E+04</rscale>
<asrwt>0</asrwt>
<pdfrwt beam="1">  1        1 0.29103445E+00 0.41381936E+04</pdfrwt>
<pdfrwt beam="2">  1       -1 0.34816933E+00 0.41381936E+04</pdfrwt>
<totfact> 0.43629604E-02</totfact>
</mgrwt>
</event>
<event>
 6    1  0.2325157E-005  0.8713594E+03  0.7818608E-02  0.9462109E-01
         -2   -1    0    0    0  501 -0.00000000000E+00  0.00000000000E+00  0.89451385660E+02  0.89451385660E+02  0.00000000000E+00 0. -1.
          2   -1    0    0  501    0  0.00000000000E+00 -0.00000000000E+00 -0.21220106241E+04  0.21220106241E+04  0.00000000000E+00 0.  1.
         23    2    1    2    0    0 -0.29848333098E+03 -0.94573457534E+02 -0.28360552092E+03  0.43470216562E+03  0.10245703270E+03 0.  0.
         13    1    3    3    0    0 -0.48330607317E+00 -0.15545735655E+02 -0.36221933920E+02  0.39419943921E+02  0.00000000000E+00 0.  1.
        -13    1    3    3    0    0 -0.29800002491E+03 -0.79027721879E+02 -0.24738358700E+03  0.39528222169E+03  0.00000000000E+00 0. -1.
         22    1    1    2    0    0  0.29848333098E+03  0.94573457534E+02 -0.17489537175E+04  0.17767598441E+04  0.00000000000E+00 0.  1.
<mgrwt>
<rscale>  0 0.87135938E+03</rscale>
<asrwt>0</asrwt>
<pdfrwt beam="1">  1        2 0.32646316E+00 0.87135938E+03</pdfrwt>
<pdfrwt beam="2">  1       -2 0.13761752E-01 0.87135938E+03</pdfrwt>
<totfact> 0.23522637E+02</totfact>
</mgrwt>
</event>
<event>
 6    1  0.2325157E-005  0.1655330E+04  0.7818608E-02  0.8787259E-01
          1   -1    0    0  501    0  0.00000000000E+00  0.00000000000E+00  0.15176100794E+04  0.15176100794E+04  0.00000000000E+00 0.  1.
         -1   -1    0    0    0  501 -0.00000000000E+00 -0.00000000000E+00 -0.45138708239E+03  0.45138708239E+03  0.00000000000E+00 0. -1.
         23    2    1    2    0    0  0.20368981377E+03  0.73449469469E+03  0.91124608524E+03  0.11911862336E+04  0.87081677634E+02 0.  0.
         13    1    3    3    0    0  0.14961433283E+03  0.38791386122E+03  0.47008379276E+03  0.62756703589E+03  0.00000000000E+00 0. -1.
        -13    1    3    3    0    0  0.54075480944E+02  0.34658083346E+03  0.44116229248E+03  0.56361919775E+03  0.00000000000E+00 0.  1.
         22    1    1    2    0    0 -0.20368981377E+03 -0.73449469469E+03  0.15497691174E+03  0.77781092814E+03  0.00000000000E+00 0. -1.
<mgrwt>
<rscale>  0 0.16553303E+04</rscale>
<asrwt>0</asrwt>
<pdfrwt beam="1">  1        1 0.23347847E+00 0.16553303E+04</pdfrwt>
<pdfrwt beam="2">  1       -1 0.69444167E-01 0.16553303E+04</pdfrwt>
<totfact> 0.12740950E+01</totfact>
</mgrwt>
</event>
<event>
 6    1  0.2325157E-005  0.2597244E+04  0.7818608E-02  0.8369138E-01
          2   -1    0    0  501    0  0.00000000000E+00  0.00000000000E+00  0.39739648316E+04  0.39739648316E+04  0.00000000000E+00 0.  1.
         -2   -1    0    0    0  501 -0.00000000000E+00 -0.00000000000E+00 -0.42436684071E+03  0.42436684071E+03  0.00000000000E+00 0. -1.
         23    2    1    2    0    0 -0.43925277049E+03  0.43297400543E+03  0.37092482454E+04  0.37612306681E+04  0.89017454701E+02 0.  0.
         13    1    3    3    0    0 -0.42247982111E+03  0.41206759284E+03  0.34014412029E+04  0.34522588485E+04  0.00000000000E+00 0.  1.
        -13    1    3    3    0    0 -0.16772949380E+02  0.20906412586E+02  0.30780704247E+03  0.30897181961E+03  0.00000000000E+00 0. -1.
         22    1    1    2    0    0  0.43925277049E+03 -0.43297400543E+03 -0.15965025449E+03  0.63710100418E+03  0.00000000000E+00 0. -1.
<mgrwt>
<rscale>  0 0.25972438E+04</rscale>
<asrwt>0</asrwt>
<pdfrwt beam="1">  1        2 0.61137918E+00 0.25972438E+04</pdfrwt>
<pdfrwt beam="2">  1       -2 0.65287209E-01 0.25972438E+04</pdfrwt>
<totfact> 0.68862729E-01</totfact>
</mgrwt>
</event>
<event>
 6    1  0.3010192E-005  0.3627514E+04  0.7818608E-02  0.8084218E-01
          2   -1    0    0  501    0  0.00000000000E+00  0.00000000000E+00  0.18856149239E+04  0.18856149239E+04  0.00000000000E+00 0.  1.
         -2   -1    0    0    0  501 -0.00000000000E+00 -0.00000000000E+00 -0.17446377145E+04  0.17446377145E+04  0.00000000000E+00 0. -1.
         23    2    1    2    0    0 -0.10948592195E+04  0.58568732243E+03  0.13920867414E+04  0.18675781333E+04  0.90533078802E+02 0.  0.
         13    1    3    3    0    0 -0.38361265732E+03  0.16170860909E+03  0.43780328515E+03  0.60413579732E+03  0.00000000000E+00 0. -1.
        -13    1    3    3    0    0 -0.71124656216E+03  0.42397871334E+03  0.95428345620E+03  0.12634423360E+04  0.00000000000E+00 0.  1.
         22    1    1    2    0    0  0.10948592195E+04 -0.58568732243E+03 -0.12511095320E+04  0.17626745052E+04  0.00000000000E+00 0. -1.
<mgrwt>
<rscale>  0 0.36275143E+04</rscale>
<asrwt>0</asrwt>
<pdfrwt beam="1">  1        2 0.29009460E+00 0.36275143E+04</pdfrwt>
<pdfrwt beam="2">  1       -2 0.26840580E+00 0.36275143E+04</pdfrwt>
<totfact> 0.31176635E-01</totfact>
</mgrwt>
</event>
<event>
 6    1  0.2325157E-005  0.2855648E+04  0.7818608E-02  0.8286197E-01
         -2   -1    0    0    0  501 -0.00000000000E+00  0.00000000000E+00  0.76499456306E+03  0.76499456306E+03  0.00000000000E+00 0. -1.
          2   -1    0    0  501    0  0.00000000000E+00 -0.00000000000E+00 -0.26649625451E+04  0.26649625451E+04  0.00000000000E+00 0.  1.
         23    2    1    2    0    0 -0.11343346577E+04  0.69890865186E+03 -0.33929069057E+03  0.13779088564E+04  0.91248147825E+02 0.  0.
         13    1    3    3    0    0 -0.35387941805E+03  0.18144143228E+03 -0.12993141425E+03  0.41837041993E+03  0.00000000000E+00 0. -1.
        -13    1    3    3    0    0 -0.78045523969E+03  0.51746721959E+03 -0.20935927632E+03  0.95953843648E+03  0.00000000000E+00 0.  1.
         22    1    1    2    0    0  0.11343346577E+04 -0.69890865186E+03 -0.15606772915E+04  0.20520482518E+04  0.00000000000E+00 0.  1.
<mgrwt>
<rscale>  0 0.28556483E+04</rscale>
<asrwt>0</asrwt>
<pdfrwt beam="1">  1        2 0.40999424E+00 0.28556483E+04</pdfrwt>
<pdfrwt beam="2">  1       -2 0.11769147E+00 0.28556483E+04</pdfrwt>
<totfact> 0.13441421E+00</totfact>
</mgrwt>
</event>
<event>
 6    1  0.2325157E-005  0.8325996E+03  0.7818608E-02  0.9513993E-01
          2   -1    0    0  501    0  0.00000000000E+00  0.00000000000E+00  0.89850521925E+03  0.89850521925E+03  0.00000000000E+00 0.  1.
         -2   -1    0    0    0  501 -0.00000000000E+00 -0.00000000000E+00 -0.19288204161E+03  0.19288204161E+03  0.00000000000E+00 0. -1.
         23    2    1    2    0    0 -0.40800278141E+03  0.62415851814E+01  0.42490937560E+03  0.59610404321E+03  0.91032004436E+02 0.  0.
         11    1    3    3    0    0 -0.51432125198E+02  0.58062407871E+00  0.10544909019E+03  0.11732481088E+03  0.00000000000E+00 0. -1.
        -11    1    3    3    0    0 -0.35657065621E+03  0.56609611027E+01  0.31946028541E+03  0.47877923233E+03  0.00000000000E+00 0.  1.
         22    1    1    2    0    0  0.40800278141E+03 -0.62415851814E+01  0.28071380204E+03  0.49528321764E+03  0.00000000000E+00 0.  1.
<mgrwt>
<rscale>  0 0.83259959E+03</rscale>
<asrwt>0</asrwt>
<pdfrwt beam="1">  1        2 0.13823157E+00 0.83259959E+03</pdfrwt>
<pdfrwt beam="2">  1       -2 0.29674161E-01 0.83259959E+03</pdfrwt>
<totfact> 0.30861579E+02</totfact>
</mgrwt>
</event>
<event>
 6    1  0.2325157E-005  0.1859594E+04  0.7818608E-02  0.8675235E-01
         -4   -1    0    0    0  501 -0.00000000000E+00  0.00000000000E+00  0.16085856280E+04  0.16085856280E+04  0.00000000000E+00 0. -1.
          4   -1    0    0  501    0  0.00000000000E+00 -0.00000000000E+00 -0.53744263737E+03  0.53744263737E+03  0.00000000000E+00 0.  1.
         23    2    1    2    0    0  0.22217018131E+03  0.18249487914E+03 -0.48047172432E+03  0.56800032075E+03  0.95432259340E+02 0.  0.
         11    1    3    3    0    0  0.84048195085E+02  0.16203205634E+02 -0.15957977347E+03  0.18108657341E+03  0.00000000000E+00 0. -1.
        -11    1    3    3    0    0  0.13812198623E+03  0.16629167350E+03 -0.32089195085E+03  0.38691374733E+03  0.00000000000E+00 0.  1.
         22    1    1    2    0    0 -0.22217018131E+03 -0.18249487914E+03  0.15516147150E+04  0.15780279447E+04  0.00000000000E+00 0. -1.
<mgrwt>
<rscale>  0 0.18595940E+04</rscale>
<asrwt>0</asrwt>
<pdfrwt beam="1">  1        4 0.82683483E-01 0.18595940E+04</pdfrwt>
<pdfrwt beam="2">  1       -4 0.24747471E+00 0.18595940E+04</pdfrwt>
<totfact> 0.15854125E-01</totfact>
</mgrwt>
</event>
<event>
 6    1  0.2325157E-005  0.1456308E+04  0.7818608E-02  0.8914039E-01
          2   -1    0    0  501    0  0.00000000000E+00  0.00000000000E+00  0.26946361637E+04  0.26946361637E+04  0.00000000000E+00 0.  1.
         -2   -1    0    0    0  501 -0.00000000000E+00 -0.00000000000E+00 -0.19676432784E+03  0.19676432784E+03  0.00000000000E+00 0. -1.
         23    2    1    2    0    0 -0.33883147245E+03 -0.54525675228E+03  0.58261886774E+03  0.87142385193E+03  0.88448245003E+02 0.  0.
         11    1    3    3    0    0 -0.52588813315E+02 -0.15516735879E+03  0.15986427361E+03  0.22890845004E+03  0.00000000000E+00 0. -1.
        -11    1    3    3    0    0 -0.28624265914E+03 -0.39008939349E+03  0.42275459413E+03  0.64251540190E+03  0.00000000000E+00 0.  1.
         22    1    1    2    0    0  0.33883147245E+03  0.54525675228E+03  0.19152529681E+04  0.20199766396E+04  0.00000000000E+00 0. -1.
<mgrwt>
<rscale>  0 0.14563080E+04</rscale>
<asrwt>0</asrwt>
<pdfrwt beam="1">  1        2 0.41455938E+00 0.14563080E+04</pdfrwt>
<pdfrwt beam="2">  1       -2 0.30271437E-01 0.14563080E+04</pdfrwt>
<totfact> 0.26272615E+01</totfact>
</mgrwt>
</event>
<event>
 6    1  0.2325157E-005  0.3923112E+04  0.7818608E-02  0.8020239E-01
          2   -1    0    0  501    0  0.00000000000E+00  0.00000000000E+00  0.30813570653E+04  0.30813570653E+04  0.00000000000E+00 0.  1.
         -2   -1    0    0    0  501 -0.00000000000E+00 -0.00000000000E+00 -0.12487039470E+04  0.12487039470E+04  0.00000000000E+00 0. -1.
         23    2    1    2    0    0 -0.10583323785E+04  0.40504699880E+03  0.26825902518E+04  0.29135428778E+04  0.91165491223E+02 0.  0.
         11    1    3    3    0    0 -0.59801000322E+03  0.18831996913E+03  0.15444411374E+04  0.16668469641E+04  0.00000000000E+00 0. -1.
        -11    1    3    3    0    0 -0.46032237531E+03  0.21672702967E+03  0.11381491144E+04  0.12466959137E+04  0.00000000000E+00 0.  1.
         22    1    1    2    0    0  0.10583323785E+04 -0.40504699880E+03 -0.84993713345E+03  0.14165181345E+04  0.00000000000E+00 0. -1.
<mgrwt>
<rscale>  0 0.39231124E+04</rscale>
<asrwt>0</asrwt>
<pdfrwt beam="1">  1        2 0.47405493E+00 0.39231124E+04</pdfrwt>
<pdfrwt beam="2">  1       -2 0.19210830E+00 0.39231124E+04</pdfrwt>
<totfact> 0.18406637E-01</totfact>
</mgrwt>
</event>
<event>
 6    1  0.2325157E-005  0.3228342E+04  0.7818608E-02  0.8181372E-01
          2   -1    0    0  501    0  0.00000000000E+00  0.00000000000E+00  0.25761361712E+04  0.25761361712E+04  0.00000000000E+00 0.  1.
         -2   -1    0    0    0  501 -0.00000000000E+00 -0.00000000000E+00 -0.10114170053E+04  0.10114170053E+04  0.00000000000E+00 0. -1.
         23    2    1    2    0    0  0.95807380882E+03 -0.11893472021E+04  0.13591787196E+04  0.20465473150E+04  0.92395510914E+02 0.  0.
         13    1    3    3    0    0  0.13514574849E+03 -0.16858274046E+03  0.23721549658E+03  0.32086711507E+03  0.00000000000E+00 0.  1.
        -13    1    3    3    0    0  0.82292806033E+03 -0.10207644616E+04  0.11219632230E+04  0.17256801999E+04  0.00000000000E+00 0. -1.
         22    1    1    2    0    0 -0.95807380882E+03  0.11893472021E+04  0.20554044624E+03  0.15410058615E+04  0.00000000000E+00 0. -1.
<mgrwt>
<rscale>  0 0.32283419E+04</rscale>
<asrwt>0</asrwt>
<pdfrwt beam="1">  1        2 0.39632864E+00 0.32283419E+04</pdfrwt>
<pdfrwt beam="2">  1       -2 0.15560262E+00 0.32283419E+04</pdfrwt>
<totfact> 0.71712870E-01</totfact>
</mgrwt>
</event>
<event>
 6    1  0.2325157E-005  0.2453654E+04  0.7818608E-02  0.8419685E-01
          2   -1    0    0  501    0  0.00000000000E+00  0.00000000000E+00  0.99895512099E+03  0.99895512099E+03  0.00000000000E+00 0.  1.
         -2   -1    0    0    0  501 -0.00000000000E+00 -0.00000000000E+00 -0.15066782482E+04  0.15066782482E+04  0.00000000000E+00 0. -1.
         23    2    1    2    0    0 -0.70018920582E+03 -0.28221127621E+03 -0.12395609211E+04  0.14542082958E+04  0.91117299044E+02 0.  0.
         11    1    3    3    0    0 -0.53127222617E+02 -0.16361353859E+02 -0.14397147861E+03  0.15433075629E+03  0.00000000000E+00 0. -1.
        -11    1    3    3    0    0 -0.64706198321E+03 -0.26584992236E+03 -0.10955894425E+04  0.12998775396E+04  0.00000000000E+00 0.  1.
         22    1    1    2    0    0  0.70018920582E+03  0.28221127621E+03  0.73183779388E+03  0.10514250734E+04  0.00000000000E+00 0.  1.
<mgrwt>
<rscale>  0 0.24536536E+04</rscale>
<asrwt>0</asrwt>
<pdfrwt beam="1">  1        2 0.15368540E+00 0.24536536E+04</pdfrwt>
<pdfrwt beam="2">  1       -2 0.23179665E+00 0.24536536E+04</pdfrwt>
<totfact> 0.18813926E+00</totfact>
</mgrwt>
</event>
<event>
 6    1  0.2325157E-005  0.1948833E+04  0.7818608E-02  0.8630924E-01
         -2   -1    0    0    0  501 -0.00000000000E+00  0.00000000000E+00  0.29443733742E+03  0.29443733742E+03  0.00000000000E+00 0. -1.
          2   -1    0    0  501    0  0.00000000000E+00 -0.00000000000E+00 -0.32247514046E+04  0.32247514046E+04  0.00000000000E+00 0.  1.
         23    2    1    2    0    0 -0.87039991366E+03 -0.42574432380E+03 -0.15901675152E+04  0.18654514535E+04  0.11145474286E+03 0.  0.
         11    1    3    3    0    0 -0.28204631392E+03 -0.82160581186E+02 -0.46043009386E+03  0.54616513586E+03  0.00000000000E+00 0. -1.
        -11    1    3    3    0    0 -0.58835359974E+03 -0.34358374261E+03 -0.11297374214E+04  0.13192863176E+04  0.00000000000E+00 0.  1.
         22    1    1    2    0    0  0.87039991366E+03  0.42574432380E+03 -0.13401465519E+04  0.16537372885E+04  0.00000000000E+00 0.  1.
<mgrwt>
<rscale>  0 0.19488327E+04</rscale>
<asrwt>0</asrwt>
<pdfrwt beam="1">  1        2 0.49611561E+00 0.19488327E+04</pdfrwt>
<pdfrwt beam="2">  1       -2 0.45298051E-01 0.19488327E+04</pdfrwt>
<totfact> 0.54084085E+00</totfact>
</mgrwt>
</event>
<event>
 6    1  0.2325157E-005  0.1315137E+04  0.7818608E-02  0.9017647E-01
         -2   -1    0    0    0  501 -0.00000000000E+00  0.00000000000E+00  0.67931479751E+03  0.67931479751E+03  0.00000000000E+00 0. -1.
          2   -1    0    0  501    0  0.00000000000E+00 -0.00000000000E+00 -0.63651845633E+03  0.63651845633E+03  0.00000000000E+00 0.  1.
         23    2    1    2    0    0  0.65382401284E+03  0.22896509713E+02  0.30163123911E+02  0.66148648943E+03  0.92975651315E+02 0.  0.
         13    1    3    3    0    0  0.18246956509E+02 -0.38503066566E+01  0.16963672455E+02  0.25209967599E+02  0.00000000000E+00 0. -1.
        -13    1    3    3    0    0  0.63557705633E+03  0.26746816369E+02  0.13199451456E+02  0.63627652183E+03  0.00000000000E+00 0.  1.
         22    1    1    2    0    0 -0.65382401284E+03 -0.22896509713E+02  0.12633217266E+02  0.65434676441E+03  0.00000000000E+00 0.  1.
<mgrwt>
<rscale>  0 0.13151371E+04</rscale>
<asrwt>0</asrwt>
<pdfrwt beam="1">  1        2 0.97925917E-01 0.13151371E+04</pdfrwt>
<pdfrwt beam="2">  1       -2 0.10450997E+00 0.13151371E+04</pdfrwt>
<totfact> 0.33591680E+01</totfact>
</mgrwt>
</event>
<event>
 6    1  0.2325157E-005  0.4618407E+04  0.7818608E-02  0.7890229E-01
          2   -1    0    0  501    0  0.00000000000E+00  0.00000000000E+00  0.25237375749E+04  0.25237375749E+04  0.00000000000E+00 0.  1.
         -2   -1    0    0    0  501 -0.00000000000E+00 -0.00000000000E+00 -0.21129061656E+04  0.21129061656E+04  0.00000000000E+00 0. -1.
         23    2    1    2    0    0 -0.12794356352E+04  0.19137509059E+04  0.35385798498E+02  0.23041863493E+04  0.92868202936E+02 0.  0.
         11    1    3    3    0    0 -0.67606745119E+03  0.94200455886E+03  0.43798021155E+02  0.11603267015E+04  0.00000000000E+00 0. -1.
        -11    1    3    3    0    0 -0.60336818402E+03  0.97174634707E+03 -0.84122226567E+01  0.11438596479E+04  0.00000000000E+00 0.  1.
         22    1    1    2    0    0  0.12794356352E+04 -0.19137509059E+04  0.37544561081E+03  0.23324573911E+04  0.00000000000E+00 0.  1.
<mgrwt>
<rscale>  0 0.46184069E+04</rscale>
<asrwt>0</asrwt>
<pdfrwt beam="1">  1        2 0.38826732E+00 0.46184069E+04</pdfrwt>
<pdfrwt beam="2">  1       -2 0.32506249E+00 0.46184069E+04</pdfrwt>
<totfact> 0.56381381E-02</totfact>
</mgrwt>
</event>
<event>
 6    1  0.2325157E-005  0.2023048E+04  0.7818608E-02  0.8595920E-01
         -2   -1    0    0    0  501 -0.00000000000E+00  0.00000000000E+00  0.34350223999E+03  0.34350223999E+03  0.00000000000E+00 0. -1.
          2   -1    0    0  501    0  0.00000000000E+00 -0.00000000000E+00 -0.29786726876E+04  0.29786726876E+04  0.00000000000E+00 0.  1.
         23    2    1    2    0    0  0.10024345248E+03 -0.65505752087E+03 -0.25707926844E+04  0.26563719523E+04  0.90486559250E+02 0.  0.
         13    1    3    3    0    0  0.43871514383E+02 -0.52415330914E+03 -0.20556663797E+04  0.21218920014E+04  0.00000000000E+00 0. -1.
        -13    1    3    3    0    0  0.56371938095E+02 -0.13090421174E+03 -0.51512630476E+03  0.53447995090E+03  0.00000000000E+00 0.  1.
         22    1    1    2    0    0 -0.10024345248E+03  0.65505752087E+03 -0.64377763126E+02  0.66580297521E+03  0.00000000000E+00 0. -1.
<mgrwt>
<rscale>  0 0.20230479E+04</rscale>
<asrwt>0</asrwt>
<pdfrwt beam="1">  1        2 0.45825736E+00 0.20230479E+04</pdfrwt>
<pdfrwt beam="2">  1       -2 0.52846496E-01 0.20230479E+04</pdfrwt>
<totfact> 0.56356211E+00</totfact>
</mgrwt>
</event>
<event>
 6    1  0.2325157E-005  0.4716120E+04  0.7818608E-02  0.7873856E-01
         -2   -1    0    0    0  501 -0.00000000000E+00  0.00000000000E+00  0.17117858773E+04  0.17117858773E+04  0.00000000000E+00 0. -1.
          2   -1    0    0  501    0  0.00000000000E+00 -0.00000000000E+00 -0.32483312899E+04  0.32483312899E+04  0.00000000000E+00 0.  1.
         23    2    1    2    0    0 -0.18560950034E+04  0.82024195458E+02  0.75717638141E+03  0.20083420575E+04  0.91132413869E+02 0.  0.
         13    1    3    3    0    0 -0.50171849689E+03  0.27817058086E+02  0.16189706622E+03  0.52792603543E+03  0.00000000000E+00 0. -1.
        -13    1    3    3    0    0 -0.13543765065E+04  0.54207137372E+02  0.59527931520E+03  0.14804160220E+04  0.00000000000E+00 0.  1.
         22    1    1    2    0    0  0.18560950034E+04 -0.82024195458E+02 -0.22937217939E+04  0.29517751097E+04  0.00000000000E+00 0.  1.
<mgrwt>
<rscale>  0 0.47161203E+04</rscale>
<asrwt>0</asrwt>
<pdfrwt beam="1">  1        2 0.49974327E+00 0.47161203E+04</pdfrwt>
<pdfrwt beam="2">  1       -2 0.26335167E+00 0.47161203E+04</pdfrwt>
<totfact> 0.47714724E-02</totfact>
</mgrwt>
</event>
<event>
 6    1  0.2325157E-005  0.3668500E+04  0.7818608E-02  0.8074979E-01
         -2   -1    0    0    0  501 -0.00000000000E+00  0.00000000000E+00  0.18365910273E+04  0.18365910273E+04  0.00000000000E+00 0. -1.
          2   -1    0    0  501    0  0.00000000000E+00 -0.00000000000E+00 -0.18319123099E+04  0.18319123099E+04  0.00000000000E+00 0.  1.
         23    2    1    2    0    0 -0.67104161935E+03 -0.51574200016E+03 -0.16237314831E+04  0.18332904213E+04  0.90350284045E+02 0.  0.
         13    1    3    3    0    0 -0.50017457174E+03 -0.34281097589E+03 -0.12094761196E+04  0.13529694939E+04  0.00000000000E+00 0. -1.
        -13    1    3    3    0    0 -0.17086704761E+03 -0.17293102427E+03 -0.41425536347E+03  0.48032092737E+03  0.00000000000E+00 0.  1.
         22    1    1    2    0    0  0.67104161935E+03  0.51574200016E+03  0.16284102005E+04  0.18352129159E+04  0.00000000000E+00 0. -1.
<mgrwt>
<rscale>  0 0.36685004E+04</rscale>
<asrwt>0</asrwt>
<pdfrwt beam="1">  1        2 0.28183266E+00 0.36685004E+04</pdfrwt>
<pdfrwt beam="2">  1       -2 0.28255247E+00 0.36685004E+04</pdfrwt>
<totfact> 0.27278818E-01</totfact>
</mgrwt>
</event>
<event>
 6    1  0.2325157E-005  0.1784018E+04  0.7818608E-02  0.8714845E-01
         -2   -1    0    0    0  501 -0.00000000000E+00  0.00000000000E+00  0.12838173977E+04  0.12838173977E+04  0.00000000000E+00 0. -1.
          2   -1    0    0  501    0  0.00000000000E+00 -0.00000000000E+00 -0.61977697067E+03  0.61977697067E+03  0.00000000000E+00 0.  1.
         23    2    1    2    0    0 -0.85222343760E+03  0.24676711940E+03  0.40380598716E+03  0.97898593100E+03  0.90417802557E+02 0.  0.
         11    1    3    3    0    0 -0.40506335565E+03  0.11072809722E+03  0.24028192964E+03  0.48381033403E+03  0.00000000000E+00 0. -1.
        -11    1    3    3    0    0 -0.44716008195E+03  0.13603902218E+03  0.16352405752E+03  0.49517559697E+03  0.00000000000E+00 0.  1.
         22    1    1    2    0    0  0.85222343760E+03 -0.24676711940E+03  0.26023443991E+03  0.92460843740E+03  0.00000000000E+00 0.  1.
<mgrwt>
<rscale>  0 0.17840185E+04</rscale>
<asrwt>0</asrwt>
<pdfrwt beam="1">  1        2 0.95350304E-01 0.17840185E+04</pdfrwt>
<pdfrwt beam="2">  1       -2 0.19751037E+00 0.17840185E+04</pdfrwt>
<totfact> 0.62195361E+00</totfact>
</mgrwt>
</event>
<event>
 6    1  0.2325157E-005  0.1961850E+04  0.7818608E-02  0.8624668E-01
         -2   -1    0    0    0  501 -0.00000000000E+00  0.00000000000E+00  0.51513232137E+03  0.51513232137E+03  0.00000000000E+00 0. -1.
          2   -1    0    0  501    0  0.00000000000E+00 -0.00000000000E+00 -0.18678965152E+04  0.18678965152E+04  0.00000000000E+00 0.  1.
         23    2    1    2    0    0 -0.45364519271E+03 -0.28099719767E+03 -0.16745763671E+04  0.17598784046E+04  0.90623417570E+02 0.  0.
         11    1    3    3    0    0 -0.27408192669E+03 -0.18862336157E+03 -0.11702378630E+04  0.12166167560E+04  0.00000000000E+00 0.  1.
        -11    1    3    3    0    0 -0.17956326602E+03 -0.92373836102E+02 -0.50433850413E+03  0.54326164861E+03  0.00000000000E+00 0. -1.
         22    1    1    2    0    0  0.45364519271E+03  0.28099719767E+03  0.32181217328E+03  0.62315043195E+03  0.00000000000E+00 0. -1.
<mgrwt>
<rscale>  0 0.19618500E+04</rscale>
<asrwt>0</asrwt>
<pdfrwt beam="1">  1        2 0.28736869E+00 0.19618500E+04</pdfrwt>
<pdfrwt beam="2">  1       -2 0.79251127E-01 0.19618500E+04</pdfrwt>
<totfact> 0.10408592E+01</totfact>
</mgrwt>
</event>
<event>
 6    1  0.2325157E-005  0.1974628E+04  0.7818608E-02  0.8618576E-01
          2   -1    0    0  501    0  0.00000000000E+00  0.00000000000E+00  0.10198664383E+04  0.10198664383E+04  0.00000000000E+00 0.  1.
         -2   -1    0    0    0  501 -0.00000000000E+00 -0.00000000000E+00 -0.95580074042E+03  0.95580074042E+03  0.00000000000E+00 0. -1.
         23    2    1    2    0    0  0.48209222480E+03  0.79754767120E+03  0.35204435588E+03  0.10002560303E+04  0.89898257418E+02 0.  0.
         11    1    3    3    0    0  0.27091369509E+02  0.88112922553E+02  0.19549569323E+02  0.94233831947E+02  0.00000000000E+00 0. -1.
        -11    1    3    3    0    0  0.45500085529E+03  0.70943474864E+03  0.33249478656E+03  0.90602219839E+03  0.00000000000E+00 0.  1.
         22    1    1    2    0    0 -0.48209222480E+03 -0.79754767120E+03 -0.28797865796E+03  0.97541114843E+03  0.00000000000E+00 0. -1.
<mgrwt>
<rscale>  0 0.19746282E+04</rscale>
<asrwt>0</asrwt>
<pdfrwt beam="1">  1        2 0.15690253E+00 0.19746282E+04</pdfrwt>
<pdfrwt beam="2">  1       -2 0.14704627E+00 0.19746282E+04</pdfrwt>
<totfact> 0.71911408E+00</totfact>
</mgrwt>
</event>
<event>
 6    1  0.2325157E-005  0.4723800E+04  0.7818608E-02  0.7872586E-01
         -2   -1    0    0    0  501 -0.00000000000E+00  0.00000000000E+00  0.15423007678E+04  0.15423007678E+04  0.00000000000E+00 0. -1.
          2   -1    0    0  501    0  0.00000000000E+00 -0.00000000000E+00 -0.36170446236E+04  0.36170446236E+04  0.00000000000E+00 0.  1.
         23    2    1    2    0    0  0.45988791766E+03  0.20488448994E+04 -0.22166762364E+04  0.30547297211E+04  0.91966370788E+02 0.  0.
         13    1    3    3    0    0  0.25604506688E+03  0.11946222516E+04 -0.12256761105E+04  0.17305962349E+04  0.00000000000E+00 0.  1.
        -13    1    3    3    0    0  0.20384285078E+03  0.85422264779E+03 -0.99100012590E+03  0.13241334862E+04  0.00000000000E+00 0. -1.
         22    1    1    2    0    0 -0.45988791766E+03 -0.20488448994E+04  0.14193238064E+03  0.21046156702E+04  0.00000000000E+00 0. -1.
<mgrwt>
<rscale>  0 0.47237996E+04</rscale>
<asrwt>0</asrwt>
<pdfrwt beam="1">  1        2 0.55646840E+00 0.47237996E+04</pdfrwt>
<pdfrwt beam="2">  1       -2 0.23727704E+00 0.47237996E+04</pdfrwt>
<totfact> 0.38369629E-02</totfact>
</mgrwt>
</event>
<event>
 6    1  0.2325157E-005  0.1794360E+04  0.7818608E-02  0.8709305E-01
          2   -1    0    0  501    0  0.00000000000E+00  0.00000000000E+00  0.23171549440E+04  0.23171549440E+04  0.00000000000E+00 0.  1.
         -2   -1    0    0    0  501 -0.00000000000E+00 -0.00000000000E+00 -0.34737926365E+03  0.34737926365E+03  0.00000000000E+00 0. -1.
         23    2    1    2    0    0 -0.81383859033E+03  0.24901583316E+02  0.15377649503E+04  0.17428039809E+04  0.98444571268E+02 0.  0.
         13    1    3    3    0    0 -0.46277384841E+03  0.36946542032E+02  0.78260190961E+03  0.90993979508E+03  0.00000000000E+00 0.  1.
        -13    1    3    3    0    0 -0.35106474192E+03 -0.12044958716E+02  0.75516304071E+03  0.83286418587E+03  0.00000000000E+00 0. -1.
         22    1    1    2    0    0  0.81383859033E+03 -0.24901583316E+02  0.43201073004E+03  0.92173022671E+03  0.00000000000E+00 0. -1.
<mgrwt>
<rscale>  0 0.17943596E+04</rscale>
<asrwt>0</asrwt>
<pdfrwt beam="1">  1        2 0.35648537E+00 0.17943596E+04</pdfrwt>
<pdfrwt beam="2">  1       -2 0.53442965E-01 0.17943596E+04</pdfrwt>
<totfact> 0.13824780E+01</totfact>
</mgrwt>
</event>
<event>
 6    1  0.2325157E-005  0.9179439E+03  0.7818608E-02  0.9403424E-01
          2   -1    0    0  501    0  0.00000000000E+00  0.00000000000E+00  0.12713589266E+04  0.12713589266E+04  0.00000000000E+00 0.  1.
         -2   -1    0    0    0  501 -0.00000000000E+00 -0.00000000000E+00 -0.16569299669E+03  0.16569299669E+03  0.00000000000E+00 0. -1.
         23    2    1    2    0    0  0.35175334139E+03  0.28792891141E+03  0.56414692691E+03  0.73003261533E+03  0.89735127382E+02 0.  0.
         13    1    3    3    0    0  0.26925538587E+03  0.25384666924E+03  0.41330451781E+03  0.55475870317E+03  0.00000000000E+00 0. -1.
        -13    1    3    3    0    0  0.82497955528E+02  0.34082242169E+02  0.15084240911E+03  0.17527391216E+03  0.00000000000E+00 0.  1.
         22    1    1    2    0    0 -0.35175334139E+03 -0.28792891141E+03  0.54151900295E+03  0.70701930792E+03  0.00000000000E+00 0. -1.
<mgrwt>
<rscale>  0 0.91794394E+03</rscale>
<asrwt>0</asrwt>
<pdfrwt beam="1">  1        2 0.19559367E+00 0.91794394E+03</pdfrwt>
<pdfrwt beam="2">  1       -2 0.25491231E-01 0.91794394E+03</pdfrwt>
<totfact> 0.23806175E+02</totfact>
</mgrwt>
</event>
<event>
 6    1  0.2325157E-005  0.2020944E+04  0.7818608E-02  0.8596891E-01
         -2   -1    0    0    0  501 -0.00000000000E+00  0.00000000000E+00  0.37067320009E+04  0.37067320009E+04  0.00000000000E+00 0. -1.
          2   -1    0    0  501    0  0.00000000000E+00 -0.00000000000E+00 -0.27545923733E+03  0.27545923733E+03  0.00000000000E+00 0.  1.
         23    2    1    2    0    0 -0.47549303533E+03  0.88933104169E+03  0.17229675274E+04  0.19984296325E+04  0.90003151698E+02 0.  0.
         13    1    3    3    0    0 -0.24626981249E+03  0.44543186100E+03  0.95713173525E+03  0.10840477489E+04  0.00000000000E+00 0. -1.
        -13    1    3    3    0    0 -0.22922322284E+03  0.44389918069E+03  0.76583579214E+03  0.91438188358E+03  0.00000000000E+00 0.  1.
         22    1    1    2    0    0  0.47549303533E+03 -0.88933104169E+03  0.17083052362E+04  0.19837616057E+04  0.00000000000E+00 0.  1.
<mgrwt>
<rscale>  0 0.20209439E+04</rscale>
<asrwt>0</asrwt>
<pdfrwt beam="1">  1        2 0.42378347E-01 0.20209439E+04</pdfrwt>
<pdfrwt beam="2">  1       -2 0.57026643E+00 0.20209439E+04</pdfrwt>
<totfact> 0.74851468E-02</totfact>
</mgrwt>
</event>
<event>
 6    1  0.2325157E-005  0.1972042E+04  0.7818608E-02  0.8619805E-01
          2   -1    0    0  501    0  0.00000000000E+00  0.00000000000E+00  0.55814633490E+03  0.55814633490E+03  0.00000000000E+00 0.  1.
         -2   -1    0    0    0  501 -0.00000000000E+00 -0.00000000000E+00 -0.17419043755E+04  0.17419043755E+04  0.00000000000E+00 0. -1.
         23    2    1    2    0    0  0.34362067935E+03  0.66943419914E+02 -0.16654407830E+04  0.17045888249E+04  0.96816669370E+02 0.  0.
         13    1    3    3    0    0  0.49218085791E+02  0.19507066614E+02 -0.44992125893E+03  0.45302547926E+03  0.00000000000E+00 0. -1.
        -13    1    3    3    0    0  0.29440259356E+03  0.47436353301E+02 -0.12155195240E+04  0.12515633456E+04  0.00000000000E+00 0.  1.
         22    1    1    2    0    0 -0.34362067935E+03 -0.66943419914E+02  0.48168274242E+03  0.59546188551E+03  0.00000000000E+00 0.  1.
<mgrwt>
<rscale>  0 0.19720421E+04</rscale>
<asrwt>0</asrwt>
<pdfrwt beam="1">  1        2 0.85868666E-01 0.19720421E+04</pdfrwt>
<pdfrwt beam="2">  1       -2 0.26798529E+00 0.19720421E+04</pdfrwt>
<totfact> 0.25121804E+00</totfact>
</mgrwt>
</event>
<event>
 6    1  0.2325157E-005  0.1572075E+04  0.7818608E-02  0.8837890E-01
          2   -1    0    0  501    0  0.00000000000E+00  0.00000000000E+00  0.80872589236E+03  0.80872589236E+03  0.00000000000E+00 0.  1.
         -2   -1    0    0    0  501 -0.00000000000E+00 -0.00000000000E+00 -0.76398547092E+03  0.76398547092E+03  0.00000000000E+00 0. -1.
         23    2    1    2    0    0 -0.69238968642E+03 -0.36589797472E+03  0.91632744541E+01  0.78877862436E+03  0.93824020769E+02 0.  0.
         11    1    3    3    0    0 -0.55987971396E+03 -0.30114824097E+03  0.43944281894E+02  0.63724928957E+03  0.00000000000E+00 0.  1.
        -11    1    3    3    0    0 -0.13250997246E+03 -0.64749733748E+02 -0.34781007440E+02  0.15152933478E+03  0.00000000000E+00 0. -1.
         22    1    1    2    0    0  0.69238968642E+03  0.36589797472E+03  0.35577146984E+02  0.78393273892E+03  0.00000000000E+00 0.  1.
<mgrwt>
<rscale>  0 0.15720748E+04</rscale>
<asrwt>0</asrwt>
<pdfrwt beam="1">  1        2 0.12441937E+00 0.15720748E+04</pdfrwt>
<pdfrwt beam="2">  1       -2 0.11753623E+00 0.15720748E+04</pdfrwt>
<totfact> 0.18236314E+01</totfact>
</mgrwt>
</event>
<event>
 6    1  0.2325157E-005  0.1981045E+04  0.7818608E-02  0.8615534E-01
         -2   -1    0    0    0  501 -0.00000000000E+00  0.00000000000E+00  0.12799660018E+04  0.12799660018E+04  0.00000000000E+00 0. -1.
          2   -1    0    0  501    0  0.00000000000E+00 -0.00000000000E+00 -0.76653179914E+03  0.76653179914E+03  0.00000000000E+00 0.  1.
         23    2    1    2    0    0 -0.80678261767E+03 -0.33240515704E+03 -0.22240692022E+03  0.90507170229E+03  0.91096473712E+02 0.  0.
         11    1    3    3    0    0 -0.59475881079E+03 -0.24041903953E+03 -0.12164975560E+03  0.65294564905E+03  0.00000000000E+00 0. -1.
        -11    1    3    3    0    0 -0.21202380688E+03 -0.91986117510E+02 -0.10075716462E+03  0.25212605323E+03  0.00000000000E+00 0.  1.
         22    1    1    2    0    0  0.80678261767E+03  0.33240515704E+03  0.73584112292E+03  0.11414260987E+04  0.00000000000E+00 0. -1.
<mgrwt>
<rscale>  0 0.19810448E+04</rscale>
<asrwt>0</asrwt>
<pdfrwt beam="1">  1        2 0.11792797E+00 0.19810448E+04</pdfrwt>
<pdfrwt beam="2">  1       -2 0.19691785E+00 0.19810448E+04</pdfrwt>
<totfact> 0.47240671E+00</totfact>
</mgrwt>
</event>
<event>
 6    1  0.2325157E-005  0.1097603E+04  0.7818608E-02  0.9207532E-01
          2   -1    0    0  501    0  0.00000000000E+00  0.00000000000E+00  0.87569473429E+03  0.87569473429E+03  0.00000000000E+00 0.  1.
         -2   -1    0    0    0  501 -0.00000000000E+00 -0.00000000000E+00 -0.34393601790E+03  0.34393601790E+03  0.00000000000E+00 0. -1.
         23    2    1    2    0    0 -0.24317950024E+03 -0.31464923109E+03 -0.14693586789E+03  0.43301347124E+03  0.88148222005E+02 0.  0.
         13    1    3    3    0    0 -0.10949682141E+03 -0.11564854533E+03 -0.10194329955E+03  0.18909409366E+03  0.00000000000E+00 0. -1.
        -13    1    3    3    0    0 -0.13368267883E+03 -0.19900068576E+03 -0.44992568342E+02  0.24391937758E+03  0.00000000000E+00 0.  1.
         22    1    1    2    0    0  0.24317950024E+03  0.31464923109E+03  0.67869458428E+03  0.78661728095E+03  0.00000000000E+00 0.  1.
<mgrwt>
<rscale>  0 0.10976028E+04</rscale>
<asrwt>0</asrwt>
<pdfrwt beam="1">  1        2 0.13472227E+00 0.10976028E+04</pdfrwt>
<pdfrwt beam="2">  1       -2 0.52913234E-01 0.10976028E+04</pdfrwt>
<totfact> 0.10190566E+02</totfact>
</mgrwt>
</event>
<event>
 6    1  0.2325157E-005  0.1781946E+04  0.7818608E-02  0.8715960E-01
          2   -1    0    0  501    0  0.00000000000E+00  0.00000000000E+00  0.25563954490E+04  0.25563954490E+04  0.00000000000E+00 0.  1.
         -2   -1    0    0    0  501 -0.00000000000E+00 -0.00000000000E+00 -0.31052806851E+03  0.31052806851E+03  0.00000000000E+00 0. -1.
         23    2    1    2    0    0  0.76260381489E+03 -0.18592208391E+03  0.17958056446E+04  0.19621101855E+04  0.93951407398E+02 0.  0.
         13    1    3    3    0    0  0.55668212549E+03 -0.92640139443E+02  0.12653249878E+04  0.13854690574E+04  0.00000000000E+00 0.  1.
        -13    1    3    3    0    0  0.20592168940E+03 -0.93281944467E+02  0.53048065685E+03  0.57664112810E+03  0.00000000000E+00 0. -1.
         22    1    1    2    0    0 -0.76260381489E+03  0.18592208391E+03  0.45006173589E+03  0.90481333206E+03  0.00000000000E+00 0. -1.
<mgrwt>
<rscale>  0 0.17819456E+04</rscale>
<asrwt>0</asrwt>
<pdfrwt beam="1">  1        2 0.39329159E+00 0.17819456E+04</pdfrwt>
<pdfrwt beam="2">  1       -2 0.47773551E-01 0.17819456E+04</pdfrwt>
<totfact> 0.12687764E+01</totfact>
</mgrwt>
</event>
<event>
 6    1  0.2325157E-005  0.2114855E+04  0.7818608E-02  0.8554728E-01
         -2   -1    0    0    0  501 -0.00000000000E+00  0.00000000000E+00  0.10238350724E+04  0.10238350724E+04  0.00000000000E+00 0. -1.
          2   -1    0    0  501    0  0.00000000000E+00 -0.00000000000E+00 -0.10921217505E+04  0.10921217505E+04  0.00000000000E+00 0.  1.
         23    2    1    2    0    0 -0.10294642725E+04 -0.58383681655E+02 -0.26010885424E+03  0.10671474551E+04  0.89116397903E+02 0.  0.
         13    1    3    3    0    0 -0.82405581639E+03 -0.80294131267E+02 -0.22040784439E+03  0.85679329708E+03  0.00000000000E+00 0. -1.
        -13    1    3    3    0    0 -0.20540845608E+03  0.21910449612E+02 -0.39701009853E+02  0.21035415806E+03  0.00000000000E+00 0.  1.
         22    1    1    2    0    0  0.10294642725E+04  0.58383681655E+02  0.19182217616E+03  0.10488093677E+04  0.00000000000E+00 0. -1.
<mgrwt>
<rscale>  0 0.21148547E+04</rscale>
<asrwt>0</asrwt>
<pdfrwt beam="1">  1        2 0.16801873E+00 0.21148547E+04</pdfrwt>
<pdfrwt beam="2">  1       -2 0.15751309E+00 0.21148547E+04</pdfrwt>
<totfact> 0.53301580E+00</totfact>
</mgrwt>
</event>
<event>
 6    1  0.2325157E-005  0.2546011E+04  0.7818608E-02  0.8386775E-01
          2   -1    0    0  501    0  0.00000000000E+00  0.00000000000E+00  0.24534601433E+04  0.24534601433E+04  0.00000000000E+00 0.  1.
         -2   -1    0    0    0  501 -0.00000000000E+00 -0.00000000000E+00 -0.66051312314E+03  0.66051312314E+03  0.00000000000E+00 0. -1.
         23    2    1    2    0    0  0.98703530197E+03 -0.74652912060E+03  0.54557325471E+03  0.13568489891E+04  0.10883284319E+03 0.  0.
         11    1    3    3    0    0  0.75456201046E+03 -0.51471874682E+03  0.42030995475E+03  0.10054649044E+04  0.00000000000E+00 0.  1.
        -11    1    3    3    0    0  0.23247329151E+03 -0.23181037377E+03  0.12526329995E+03  0.35138408468E+03  0.00000000000E+00 0. -1.
         22    1    1    2    0    0 -0.98703530197E+03  0.74652912060E+03  0.12473737654E+04  0.17571242773E+04  0.00000000000E+00 0.  1.
<mgrwt>
<rscale>  0 0.25460107E+04</rscale>
<asrwt>0</asrwt>
<pdfrwt beam="1">  1        2 0.37745540E+00 0.25460107E+04</pdfrwt>
<pdfrwt beam="2">  1       -2 0.10161740E+00 0.25460107E+04</pdfrwt>
<totfact> 0.26158421E+00</totfact>
</mgrwt>
</event>
<event>
 6    1  0.2325157E-005  0.2883943E+04  0.7818608E-02  0.8277671E-01
          2   -1    0    0  501    0  0.00000000000E+00  0.00000000000E+00  0.13886306605E+04  0.13886306605E+04  0.00000000000E+00 0.  1.
         -2   -1    0    0    0  501 -0.00000000000E+00 -0.00000000000E+00 -0.14973616492E+04  0.14973616492E+04  0.00000000000E+00 0. -1.
         23    2    1    2    0    0 -0.96379312547E+03  0.97748262294E+03 -0.49172703352E+03  0.14608412871E+04  0.88838751703E+02 0.  0.
         13    1    3    3    0    0 -0.36683694644E+03  0.35073066157E+03 -0.22467250365E+03  0.55503069837E+03  0.00000000000E+00 0.  1.
        -13    1    3    3    0    0 -0.59695617903E+03  0.62675196137E+03 -0.26705452987E+03  0.90581058875E+03  0.00000000000E+00 0. -1.
         22    1    1    2    0    0  0.96379312547E+03 -0.97748262294E+03  0.38299604482E+03  0.14251510226E+04  0.00000000000E+00 0.  1.
<mgrwt>
<rscale>  0 0.28839433E+04</rscale>
<asrwt>0</asrwt>
<pdfrwt beam="1">  1        2 0.21363549E+00 0.28839433E+04</pdfrwt>
<pdfrwt beam="2">  1       -2 0.23036333E+00 0.28839433E+04</pdfrwt>
<totfact> 0.10797526E+00</totfact>
</mgrwt>
</event>
<event>
 6    1  0.2325157E-005  0.3615251E+04  0.7818608E-02  0.8087007E-01
         -2   -1    0    0    0  501 -0.00000000000E+00  0.00000000000E+00  0.17834418640E+04  0.17834418640E+04  0.00000000000E+00 0. -1.
          2   -1    0    0  501    0  0.00000000000E+00 -0.00000000000E+00 -0.18321369597E+04  0.18321369597E+04  0.00000000000E+00 0.  1.
         23    2    1    2    0    0  0.34184029011E+02  0.71326724794E+03  0.16352122874E+04  0.17865181933E+04  0.88370331843E+02 0.  0.
         13    1    3    3    0    0 -0.12472938686E+02  0.39398887835E+03  0.82196047828E+03  0.91159302230E+03  0.00000000000E+00 0.  1.
        -13    1    3    3    0    0  0.46656967697E+02  0.31927836959E+03  0.81325180910E+03  0.87492517104E+03  0.00000000000E+00 0. -1.
         22    1    1    2    0    0 -0.34184029011E+02 -0.71326724794E+03 -0.16839073830E+04  0.18290606304E+04  0.00000000000E+00 0.  1.
<mgrwt>
<rscale>  0 0.36152509E+04</rscale>
<asrwt>0</asrwt>
<pdfrwt beam="1">  1        2 0.28186722E+00 0.36152509E+04</pdfrwt>
<pdfrwt beam="2">  1       -2 0.27437567E+00 0.36152509E+04</pdfrwt>
<totfact> 0.30724353E-01</totfact>
</mgrwt>
</event>
<event>
 6    1  0.2325157E-005  0.4467333E+04  0.7818608E-02  0.7916381E-01
          2   -1    0    0  501    0  0.00000000000E+00  0.00000000000E+00  0.24331351870E+04  0.24331351870E+04  0.00000000000E+00 0.  1.
         -2   -1    0    0    0  501 -0.00000000000E+00 -0.00000000000E+00 -0.20505499953E+04  0.20505499953E+04  0.00000000000E+00 0. -1.
         23    2    1    2    0    0  0.14111275264E+03  0.20747039735E+04  0.10077252889E+04  0.23122548870E+04  0.81871962108E+02 0.  0.
         11    1    3    3    0    0  0.45128066745E+02  0.89953415773E+03  0.47790988195E+03  0.10196058545E+04  0.00000000000E+00 0. -1.
        -11    1    3    3    0    0  0.95984685893E+02  0.11751698157E+04  0.52981540691E+03  0.12926490325E+04  0.00000000000E+00 0.  1.
         22    1    1    2    0    0 -0.14111275264E+03 -0.20747039735E+04 -0.62514009719E+03  0.21714302953E+04  0.00000000000E+00 0. -1.
<mgrwt>
<rscale>  0 0.44673327E+04</rscale>
<asrwt>0</asrwt>
<pdfrwt beam="1">  1        2 0.37432849E+00 0.44673327E+04</pdfrwt>
<pdfrwt beam="2">  1       -2 0.31546923E+00 0.44673327E+04</pdfrwt>
<totfact> 0.73818752E-02</totfact>
</mgrwt>
</event>
<event>
 6    1  0.2325157E-005  0.3142464E+04  0.7818608E-02  0.8204180E-01
         -2   -1    0    0    0  501 -0.00000000000E+00  0.00000000000E+00  0.54948763440E+03  0.54948763440E+03  0.00000000000E+00 0. -1.
          2   -1    0    0  501    0  0.00000000000E+00 -0.00000000000E+00 -0.44928587369E+04  0.44928587369E+04  0.00000000000E+00 0.  1.
         23    2    1    2    0    0 -0.79673457539E+03  0.12317436452E+04 -0.10776992588E+04  0.18230213633E+04  0.99964032302E+02 0.  0.
         13    1    3    3    0    0 -0.35689280736E+03  0.64225101605E+03 -0.52732351056E+03  0.90439423281E+03  0.00000000000E+00 0.  1.
        -13    1    3    3    0    0 -0.43984176804E+03  0.58949262912E+03 -0.55037574823E+03  0.91862713052E+03  0.00000000000E+00 0. -1.
         22    1    1    2    0    0  0.79673457539E+03 -0.12317436452E+04 -0.28656718437E+04  0.32193250079E+04  0.00000000000E+00 0. -1.
<mgrwt>
<rscale>  0 0.31424642E+04</rscale>
<asrwt>0</asrwt>
<pdfrwt beam="1">  1        2 0.69120904E+00 0.31424642E+04</pdfrwt>
<pdfrwt beam="2">  1       -2 0.84536559E-01 0.31424642E+04</pdfrwt>
<totfact> 0.12881710E-01</totfact>
</mgrwt>
</event>
<event>
 6    1  0.2325157E-005  0.1452839E+04  0.7818608E-02  0.8916435E-01
         -1   -1    0    0    0  501 -0.00000000000E+00  0.00000000000E+00  0.36650903778E+03  0.36650903778E+03  0.00000000000E+00 0. -1.
          1   -1    0    0  501    0  0.00000000000E+00 -0.00000000000E+00 -0.14397603014E+04  0.14397603014E+04  0.00000000000E+00 0.  1.
         23    2    1    2    0    0 -0.93457051607E+02 -0.27917147527E+03  0.28295760706E+03  0.41847488969E+03  0.91571244447E+02 0.  0.
         13    1    3    3    0    0 -0.24551010514E+02 -0.20613812759E+03  0.19938512802E+03  0.28783694870E+03  0.00000000000E+00 0. -1.
        -13    1    3    3    0    0 -0.68906041093E+02 -0.73033347675E+02  0.83572479047E+02  0.13063794099E+03  0.00000000000E+00 0.  1.
         22    1    1    2    0    0  0.93457051607E+02  0.27917147527E+03 -0.13562088707E+04  0.13877944495E+04  0.00000000000E+00 0.  1.
<mgrwt>
<rscale>  0 0.14528388E+04</rscale>
<asrwt>0</asrwt>
<pdfrwt beam="1">  1        1 0.22150158E+00 0.14528388E+04</pdfrwt>
<pdfrwt beam="2">  1       -1 0.56386006E-01 0.14528388E+04</pdfrwt>
<totfact> 0.22267021E+01</totfact>
</mgrwt>
</event>
<event>
 6    1  0.2325157E-005  0.3557577E+04  0.7818608E-02  0.8100279E-01
         -2   -1    0    0    0  501 -0.00000000000E+00  0.00000000000E+00  0.16343645185E+04  0.16343645185E+04  0.00000000000E+00 0. -1.
          2   -1    0    0  501    0  0.00000000000E+00 -0.00000000000E+00 -0.19359746681E+04  0.19359746681E+04  0.00000000000E+00 0.  1.
         23    2    1    2    0    0  0.57910537649E+03  0.92788566369E+03  0.12553837627E+04  0.16675609849E+04  0.91849904273E+02 0.  0.
         11    1    3    3    0    0  0.42109496108E+03  0.60663442435E+03  0.80922978803E+03  0.10955268782E+04  0.00000000000E+00 0.  1.
        -11    1    3    3    0    0  0.15801041541E+03  0.32125123934E+03  0.44615397466E+03  0.57203410673E+03  0.00000000000E+00 0. -1.
         22    1    1    2    0    0 -0.57910537649E+03 -0.92788566369E+03 -0.15569939123E+04  0.19027782017E+04  0.00000000000E+00 0.  1.
<mgrwt>
<rscale>  0 0.35575769E+04</rscale>
<asrwt>0</asrwt>
<pdfrwt beam="1">  1        2 0.29784226E+00 0.35575769E+04</pdfrwt>
<pdfrwt beam="2">  1       -2 0.25144070E+00 0.35575769E+04</pdfrwt>
<totfact> 0.37346690E-01</totfact>
</mgrwt>
</event>
<event>
 6    1  0.2325157E-005  0.2819289E+04  0.7818608E-02  0.8297305E-01
         -2   -1    0    0    0  501 -0.00000000000E+00  0.00000000000E+00  0.87713143031E+03  0.87713143031E+03  0.00000000000E+00 0. -1.
          2   -1    0    0  501    0  0.00000000000E+00 -0.00000000000E+00 -0.22654506013E+04  0.22654506013E+04  0.00000000000E+00 0.  1.
         23    2    1    2    0    0  0.10979245279E+04  0.87457162590E+03 -0.82025254541E+03  0.16283120792E+04  0.90951586548E+02 0.  0.
         13    1    3    3    0    0  0.28867791153E+03  0.26246645590E+03 -0.19142872811E+03  0.43459007700E+03  0.00000000000E+00 0. -1.
        -13    1    3    3    0    0  0.80924661639E+03  0.61210517000E+03 -0.62882381730E+03  0.11937220022E+04  0.00000000000E+00 0.  1.
         22    1    1    2    0    0 -0.10979245279E+04 -0.87457162590E+03 -0.56806662560E+03  0.15142699525E+04  0.00000000000E+00 0. -1.
<mgrwt>
<rscale>  0 0.28192892E+04</rscale>
<asrwt>0</asrwt>
<pdfrwt beam="1">  1        2 0.34853086E+00 0.28192892E+04</pdfrwt>
<pdfrwt beam="2">  1       -2 0.13494330E+00 0.28192892E+04</pdfrwt>
<totfact> 0.16271690E+00</totfact>
</mgrwt>
</event>
<event>
 6    1  0.2325157E-005  0.3942686E+04  0.7818608E-02  0.8016209E-01
         -2   -1    0    0    0  501 -0.00000000000E+00  0.00000000000E+00  0.18987668887E+04  0.18987668887E+04  0.00000000000E+00 0.  1.
          2   -1    0    0  501    0  0.00000000000E+00 -0.00000000000E+00 -0.20466933814E+04  0.20466933814E+04  0.00000000000E+00 0. -1.
         23    2    1    2    0    0  0.12586534378E+04  0.34265133853E+03  0.14036922746E+04  0.19183590848E+04  0.90172945610E+02 0.  0.
         11    1    3    3    0    0  0.62341321772E+03  0.13126137100E+03  0.64692198845E+03  0.90795465012E+03  0.00000000000E+00 0. -1.
        -11    1    3    3    0    0  0.63524022013E+03  0.21138996753E+03  0.75677028618E+03  0.10104044347E+04  0.00000000000E+00 0.  1.
         22    1    1    2    0    0 -0.12586534378E+04 -0.34265133853E+03 -0.15516187673E+04  0.20271011853E+04  0.00000000000E+00 0. -1.
<mgrwt>
<rscale>  0 0.39426862E+04</rscale>
<asrwt>0</asrwt>
<pdfrwt beam="1">  1        2 0.31487590E+00 0.39426862E+04</pdfrwt>
<pdfrwt beam="2">  1       -2 0.29211798E+00 0.39426862E+04</pdfrwt>
<totfact> 0.17713102E-01</totfact>
</mgrwt>
</event>
<event>
 6    1  0.2325157E-005  0.8867861E+03  0.7818608E-02  0.9442252E-01
          2   -1    0    0  501    0  0.00000000000E+00  0.00000000000E+00  0.34314000314E+03  0.34314000314E+03  0.00000000000E+00 0.  1.
         -2   -1    0    0    0  501 -0.00000000000E+00 -0.00000000000E+00 -0.57293644307E+03  0.57293644307E+03  0.00000000000E+00 0. -1.
         23    2    1    2    0    0  0.35733724548E+03  0.23497396161E+03 -0.21769073771E+03  0.48823393119E+03  0.89891293446E+02 0.  0.
         11    1    3    3    0    0  0.20851195261E+03  0.18053078465E+03 -0.11159535022E+03  0.29752667238E+03  0.00000000000E+00 0. -1.
        -11    1    3    3    0    0  0.14882529287E+03  0.54443176957E+02 -0.10609538748E+03  0.19070725880E+03  0.00000000000E+00 0.  1.
         22    1    1    2    0    0 -0.35733724548E+03 -0.23497396161E+03 -0.12105702225E+02  0.42784251503E+03  0.00000000000E+00 0.  1.
<mgrwt>
<rscale>  0 0.88678614E+03</rscale>
<asrwt>0</asrwt>
<pdfrwt beam="1">  1        2 0.52790770E-01 0.88678614E+03</pdfrwt>
<pdfrwt beam="2">  1       -2 0.88144068E-01 0.88678614E+03</pdfrwt>
<totfact> 0.10521152E+02</totfact>
</mgrwt>
</event>
<event>
 6    1  0.2325157E-005  0.3251075E+04  0.7818608E-02  0.8175457E-01
         -2   -1    0    0    0  501 -0.00000000000E+00  0.00000000000E+00  0.19400062820E+04  0.19400062820E+04  0.00000000000E+00 0.  1.
          2   -1    0    0  501    0  0.00000000000E+00 -0.00000000000E+00 -0.13620427661E+04  0.13620427661E+04  0.00000000000E+00 0. -1.
         23    2    1    2    0    0 -0.37096485549E+03  0.83287362756E+03 -0.10760894471E+04  0.14133498640E+04  0.91082031963E+02 0.  0.
         11    1    3    3    0    0 -0.17712835616E+03  0.48530650256E+03 -0.65033318515E+03  0.83056011684E+03  0.00000000000E+00 0.  1.
        -11    1    3    3    0    0 -0.19383649934E+03  0.34756712500E+03 -0.42575626190E+03  0.58278974717E+03  0.00000000000E+00 0. -1.
         22    1    1    2    0    0  0.37096485549E+03 -0.83287362756E+03  0.16540529630E+04  0.18886991841E+04  0.00000000000E+00 0.  1.
<mgrwt>
<rscale>  0 0.32510746E+04</rscale>
<asrwt>0</asrwt>
<pdfrwt beam="1">  1        2 0.20954504E+00 0.32510746E+04</pdfrwt>
<pdfrwt beam="2">  1       -2 0.29846250E+00 0.32510746E+04</pdfrwt>
<totfact> 0.41438126E-01</totfact>
</mgrwt>
</event>
<event>
 6    1  0.2325157E-005  0.2630824E+04  0.7818608E-02  0.8357806E-01
          2   -1    0    0  501    0  0.00000000000E+00  0.00000000000E+00  0.30544802636E+04  0.30544802636E+04  0.00000000000E+00 0.  1.
         -2   -1    0    0    0  501 -0.00000000000E+00 -0.00000000000E+00 -0.56648205525E+03  0.56648205525E+03  0.00000000000E+00 0. -1.
         23    2    1    2    0    0  0.10708981216E+04  0.61890519451E+03  0.63534496862E+03  0.13933648567E+04  0.89084051449E+02 0.  0.
         11    1    3    3    0    0  0.86420887862E+03  0.53267788910E+03  0.49931346097E+03  0.11313340142E+04  0.00000000000E+00 0.  1.
        -11    1    3    3    0    0  0.20668924295E+03  0.86227305413E+02  0.13603150765E+03  0.26203084250E+03  0.00000000000E+00 0. -1.
         22    1    1    2    0    0 -0.10708981216E+04 -0.61890519451E+03  0.18526532397E+04  0.22275974621E+04  0.00000000000E+00 0.  1.
<mgrwt>
<rscale>  0 0.26308236E+04</rscale>
<asrwt>0</asrwt>
<pdfrwt beam="1">  1        2 0.46992003E+00 0.26308236E+04</pdfrwt>
<pdfrwt beam="2">  1       -2 0.87151087E-01 0.26308236E+04</pdfrwt>
<totfact> 0.16150903E+00</totfact>
</mgrwt>
</event>
<event>
 6    1  0.2325157E-005  0.1902231E+04  0.7818608E-02  0.8653747E-01
          2   -1    0    0  501    0  0.00000000000E+00  0.00000000000E+00  0.18577267784E+04  0.18577267784E+04  0.00000000000E+00 0.  1.
         -2   -1    0    0    0  501 -0.00000000000E+00 -0.00000000000E+00 -0.48695043995E+03  0.48695043995E+03  0.00000000000E+00 0. -1.
         23    2    1    2    0    0  0.35400652482E+03  0.37220490230E+03  0.16704272909E+04  0.17499942758E+04  0.91079758270E+02 0.  0.
         11    1    3    3    0    0  0.34176699186E+03  0.32267515533E+03  0.14794620507E+04  0.15523311155E+04  0.00000000000E+00 0.  1.
        -11    1    3    3    0    0  0.12239532959E+02  0.49529746970E+02  0.19096524016E+03  0.19766316033E+03  0.00000000000E+00 0. -1.
         22    1    1    2    0    0 -0.35400652482E+03 -0.37220490230E+03 -0.29965095240E+03  0.59468294257E+03  0.00000000000E+00 0. -1.
<mgrwt>
<rscale>  0 0.19022312E+04</rscale>
<asrwt>0</asrwt>
<pdfrwt beam="1">  1        2 0.28580412E+00 0.19022312E+04</pdfrwt>
<pdfrwt beam="2">  1       -2 0.74915453E-01 0.19022312E+04</pdfrwt>
<totfact> 0.12013339E+01</totfact>
</mgrwt>
</event>
<event>
 6    1  0.2325157E-005  0.1599450E+04  0.7818608E-02  0.8820886E-01
          2   -1    0    0  501    0  0.00000000000E+00  0.00000000000E+00  0.82864331831E+03  0.82864331831E+03  0.00000000000E+00 0. -1.
         -2   -1    0    0    0  501 -0.00000000000E+00 -0.00000000000E+00 -0.77181587951E+03  0.77181587951E+03  0.00000000000E+00 0.  1.
         23    2    1    2    0    0  0.43893931080E+03 -0.66356908150E+03 -0.19599717767E+02  0.80118905904E+03  0.92347793089E+02 0.  0.
         13    1    3    3    0    0  0.20461065305E+03 -0.27441120547E+03 -0.49914503504E+02  0.34591687829E+03  0.00000000000E+00 0. -1.
        -13    1    3    3    0    0  0.23432865775E+03 -0.38915787604E+03  0.30314785736E+02  0.45527218074E+03  0.00000000000E+00 0.  1.
         22    1    1    2    0    0 -0.43893931080E+03  0.66356908150E+03  0.76427156561E+02  0.79927013878E+03  0.00000000000E+00 0. -1.
<mgrwt>
<rscale>  0 0.15994500E+04</rscale>
<asrwt>0</asrwt>
<pdfrwt beam="1">  1        2 0.12748359E+00 0.15994500E+04</pdfrwt>
<pdfrwt beam="2">  1       -2 0.11874090E+00 0.15994500E+04</pdfrwt>
<totfact> 0.17174979E+01</totfact>
</mgrwt>
</event>
<event>
 6    1  0.2325157E-005  0.1257059E+04  0.7818608E-02  0.9064329E-01
         -2   -1    0    0    0  501 -0.00000000000E+00  0.00000000000E+00  0.43085105190E+03  0.43085105190E+03  0.00000000000E+00 0. -1.
          2   -1    0    0  501    0  0.00000000000E+00 -0.00000000000E+00 -0.91690393364E+03  0.91690393364E+03  0.00000000000E+00 0.  1.
         23    2    1    2    0    0  0.33576389829E+03  0.22121226103E+03  0.26828319134E+03  0.49294788977E+03  0.96692768324E+02 0.  0.
         13    1    3    3    0    0  0.26744938383E+03  0.13169662170E+03  0.16819298900E+03  0.34228943108E+03  0.00000000000E+00 0. -1.
        -13    1    3    3    0    0  0.68314514458E+02  0.89515639332E+02  0.10009020234E+03  0.15065845869E+03  0.00000000000E+00 0.  1.
         22    1    1    2    0    0 -0.33576389829E+03 -0.22121226103E+03 -0.75433607308E+03  0.85480709577E+03  0.00000000000E+00 0.  1.
<mgrwt>
<rscale>  0 0.12570585E+04</rscale>
<asrwt>0</asrwt>
<pdfrwt beam="1">  1        2 0.14106214E+00 0.12570585E+04</pdfrwt>
<pdfrwt beam="2">  1       -2 0.66284777E-01 0.12570585E+04</pdfrwt>
<totfact> 0.58779996E+01</totfact>
</mgrwt>
</event>
<event>
 6    1  0.2325157E-005  0.1425060E+04  0.7818608E-02  0.8935876E-01
          2   -1    0    0  501    0  0.00000000000E+00  0.00000000000E+00  0.37528313873E+03  0.37528313873E+03  0.00000000000E+00 0.  1.
         -2   -1    0    0    0  501 -0.00000000000E+00 -0.00000000000E+00 -0.13528428618E+04  0.13528428618E+04  0.00000000000E+00 0. -1.
         23    2    1    2    0    0 -0.24769340590E+03  0.66470859521E+03 -0.51513178376E+03  0.88135026933E+03  0.90708338896E+02 0.  0.
         13    1    3    3    0    0 -0.13449173194E+03  0.39794152075E+03 -0.25153519024E+03  0.48960742624E+03  0.00000000000E+00 0.  1.
        -13    1    3    3    0    0 -0.11320167396E+03  0.26676707445E+03 -0.26359659352E+03  0.39174284309E+03  0.00000000000E+00 0. -1.
         22    1    1    2    0    0  0.24769340590E+03 -0.66470859521E+03 -0.46242793929E+03  0.84677573118E+03  0.00000000000E+00 0.  1.
<mgrwt>
<rscale>  0 0.14250602E+04</rscale>
<asrwt>0</asrwt>
<pdfrwt beam="1">  1        2 0.57735869E-01 0.14250602E+04</pdfrwt>
<pdfrwt beam="2">  1       -2 0.20812967E+00 0.14250602E+04</pdfrwt>
<totfact> 0.97657292E+00</totfact>
</mgrwt>
</event>
<event>
 6    1  0.2325157E-005  0.1699142E+04  0.7818608E-02  0.8761854E-01
          2   -1    0    0  501    0  0.00000000000E+00  0.00000000000E+00  0.60196784746E+03  0.60196784746E+03  0.00000000000E+00 0.  1.
         -2   -1    0    0    0  501 -0.00000000000E+00 -0.00000000000E+00 -0.11990192247E+04  0.11990192247E+04  0.00000000000E+00 0. -1.
         23    2    1    2    0    0 -0.48315196261E+03  0.69101509749E+03 -0.38547212716E+03  0.93167500907E+03  0.92151385086E+02 0.  0.
         11    1    3    3    0    0 -0.13284770687E+03  0.25056930617E+03 -0.10065355166E+03  0.30093957513E+03  0.00000000000E+00 0.  1.
        -11    1    3    3    0    0 -0.35030425574E+03  0.44044579132E+03 -0.28481857550E+03  0.63073543394E+03  0.00000000000E+00 0. -1.
         22    1    1    2    0    0  0.48315196261E+03 -0.69101509749E+03 -0.21157925005E+03  0.86931206306E+03  0.00000000000E+00 0.  1.
<mgrwt>
<rscale>  0 0.16991422E+04</rscale>
<asrwt>0</asrwt>
<pdfrwt beam="1">  1        2 0.92610439E-01 0.16991422E+04</pdfrwt>
<pdfrwt beam="2">  1       -2 0.18446450E+00 0.16991422E+04</pdfrwt>
<totfact> 0.79357887E+00</totfact>
</mgrwt>
</event>
<event>
 6    1  0.2325157E-005  0.3803426E+04  0.7818608E-02  0.8045420E-01
         -2   -1    0    0    0  501 -0.00000000000E+00  0.00000000000E+00  0.22423880462E+04  0.22423880462E+04  0.00000000000E+00 0. -1.
          2   -1    0    0  501    0  0.00000000000E+00 -0.00000000000E+00 -0.16127951732E+04  0.16127951732E+04  0.00000000000E+00 0.  1.
         23    2    1    2    0    0 -0.84594814945E+03 -0.46879379382E+00  0.20401370854E+04  0.22104147048E+04  0.90251587466E+02 0.  0.
         13    1    3    3    0    0 -0.17575785462E+03  0.34233199132E+02  0.39667119893E+03  0.43521348261E+03  0.00000000000E+00 0. -1.
        -13    1    3    3    0    0 -0.67019029484E+03 -0.34701992926E+02  0.16434658864E+04  0.17752012222E+04  0.00000000000E+00 0.  1.
         22    1    1    2    0    0  0.84594814945E+03  0.46879379382E+00 -0.14105442124E+04  0.16447685145E+04  0.00000000000E+00 0.  1.
<mgrwt>
<rscale>  0 0.38034261E+04</rscale>
<asrwt>0</asrwt>
<pdfrwt beam="1">  1        2 0.24812233E+00 0.38034261E+04</pdfrwt>
<pdfrwt beam="2">  1       -2 0.34498278E+00 0.38034261E+04</pdfrwt>
<totfact> 0.14708012E-01</totfact>
</mgrwt>
</event>
<event>
 6    1  0.2325157E-005  0.3373707E+04  0.7818608E-02  0.8144390E-01
          2   -1    0    0  501    0  0.00000000000E+00  0.00000000000E+00  0.20387867533E+04  0.20387867533E+04  0.00000000000E+00 0.  1.
         -2   -1    0    0    0  501 -0.00000000000E+00 -0.00000000000E+00 -0.13956708467E+04  0.13956708467E+04  0.00000000000E+00 0. -1.
         23    2    1    2    0    0 -0.66488956682E+03 -0.38699030094E+03 -0.12049996074E+04  0.14326158026E+04  0.92327432968E+02 0.  0.
         13    1    3    3    0    0 -0.56842675500E+03 -0.29037978367E+03 -0.99050393284E+03  0.11783579403E+04  0.00000000000E+00 0.  1.
        -13    1    3    3    0    0 -0.96462811823E+02 -0.96610517273E+02 -0.21449567452E+03  0.25425786222E+03  0.00000000000E+00 0. -1.
         22    1    1    2    0    0  0.66488956682E+03  0.38699030094E+03  0.18481155140E+04  0.20018417975E+04  0.00000000000E+00 0.  1.
<mgrwt>
<rscale>  0 0.33737073E+04</rscale>
<asrwt>0</asrwt>
<pdfrwt beam="1">  1        2 0.31365950E+00 0.33737073E+04</pdfrwt>
<pdfrwt beam="2">  1       -2 0.21471859E+00 0.33737073E+04</pdfrwt>
<totfact> 0.56364695E-01</totfact>
</mgrwt>
</event>
<event>
 6    1  0.2325157E-005  0.1662051E+04  0.7818608E-02  0.8783309E-01
          2   -1    0    0  501    0  0.00000000000E+00  0.00000000000E+00  0.42707741219E+03  0.42707741219E+03  0.00000000000E+00 0. -1.
         -2   -1    0    0    0  501 -0.00000000000E+00 -0.00000000000E+00 -0.16170453273E+04  0.16170453273E+04  0.00000000000E+00 0.  1.
         23    2    1    2    0    0 -0.32450366816E+03 -0.38795026868E+03 -0.14038501565E+04  0.14949837272E+04  0.91504322472E+02 0.  0.
         11    1    3    3    0    0 -0.11481781158E+03 -0.19324152499E+03 -0.53774687700E+03  0.58283541464E+03  0.00000000000E+00 0.  1.
        -11    1    3    3    0    0 -0.20968585659E+03 -0.19470874369E+03 -0.86610327955E+03  0.91214831259E+03  0.00000000000E+00 0. -1.
         22    1    1    2    0    0  0.32450366816E+03  0.38795026868E+03  0.21388224140E+03  0.54913901228E+03  0.00000000000E+00 0. -1.
<mgrwt>
<rscale>  0 0.16620512E+04</rscale>
<asrwt>0</asrwt>
<pdfrwt beam="1">  1        2 0.65704215E-01 0.16620512E+04</pdfrwt>
<pdfrwt beam="2">  1       -2 0.24877621E+00 0.16620512E+04</pdfrwt>
<totfact> 0.46074355E+00</totfact>
</mgrwt>
</event>
<event>
 6    1  0.2325157E-005  0.2686142E+04  0.7818608E-02  0.8339516E-01
         -2   -1    0    0    0  501 -0.00000000000E+00  0.00000000000E+00  0.99752501910E+03  0.99752501910E+03  0.00000000000E+00 0. -1.
          2   -1    0    0  501    0  0.00000000000E+00 -0.00000000000E+00 -0.18083148562E+04  0.18083148562E+04  0.00000000000E+00 0.  1.
         23    2    1    2    0    0 -0.29066559492E+03  0.11918893908E+04 -0.97283768372E+03  0.15683640926E+04  0.90917326205E+02 0.  0.
         13    1    3    3    0    0 -0.20162107670E+03  0.97595875399E+03 -0.79345374716E+03  0.12738584682E+04  0.00000000000E+00 0.  1.
        -13    1    3    3    0    0 -0.89044518221E+02  0.21593063683E+03 -0.17938393655E+03  0.29450562446E+03  0.00000000000E+00 0. -1.
         22    1    1    2    0    0  0.29066559492E+03 -0.11918893908E+04  0.16204784663E+03  0.12374757826E+04  0.00000000000E+00 0. -1.
<mgrwt>
<rscale>  0 0.26861417E+04</rscale>
<asrwt>0</asrwt>
<pdfrwt beam="1">  1        2 0.27820229E+00 0.26861417E+04</pdfrwt>
<pdfrwt beam="2">  1       -2 0.15346539E+00 0.26861417E+04</pdfrwt>
<totfact> 0.21143854E+00</totfact>
</mgrwt>
</event>
<event>
 6    1  0.2325157E-005  0.2168851E+04  0.7818608E-02  0.8531506E-01
         -2   -1    0    0    0  501 -0.00000000000E+00  0.00000000000E+00  0.57318581308E+03  0.57318581308E+03  0.00000000000E+00 0. -1.
          2   -1    0    0  501    0  0.00000000000E+00 -0.00000000000E+00 -0.20516535177E+04  0.20516535177E+04  0.00000000000E+00 0.  1.
         23    2    1    2    0    0 -0.48166261032E+03 -0.89331713865E+03 -0.28468271242E+03  0.10579516552E+04  0.90570842614E+02 0.  0.
         11    1    3    3    0    0 -0.17299478646E+03 -0.35912313644E+03 -0.70066218927E+02  0.40472941369E+03  0.00000000000E+00 0. -1.
        -11    1    3    3    0    0 -0.30866782386E+03 -0.53419400221E+03 -0.21461649349E+03  0.65322224148E+03  0.00000000000E+00 0.  1.
         22    1    1    2    0    0  0.48166261032E+03  0.89331713865E+03 -0.11937849922E+04  0.15668876756E+04  0.00000000000E+00 0.  1.
<mgrwt>
<rscale>  0 0.21688510E+04</rscale>
<asrwt>0</asrwt>
<pdfrwt beam="1">  1        2 0.31563900E+00 0.21688510E+04</pdfrwt>
<pdfrwt beam="2">  1       -2 0.88182432E-01 0.21688510E+04</pdfrwt>
<totfact> 0.63462536E+00</totfact>
</mgrwt>
</event>
<event>
 6    1  0.2325157E-005  0.5632877E+03  0.7818608E-02  0.9984643E-01
         -2   -1    0    0    0  501 -0.00000000000E+00  0.00000000000E+00  0.91377554735E+03  0.91377554735E+03  0.00000000000E+00 0. -1.
          2   -1    0    0  501    0  0.00000000000E+00 -0.00000000000E+00 -0.86808245860E+02  0.86808245860E+02  0.00000000000E+00 0.  1.
         23    2    1    2    0    0  0.23590424605E+03 -0.20672545979E+01  0.67327739016E+03  0.71902442880E+03  0.89658230246E+02 0.  0.
         13    1    3    3    0    0  0.21487384470E+03  0.25908753906E+02  0.55611102849E+03  0.59674241401E+03  0.00000000000E+00 0. -1.
        -13    1    3    3    0    0  0.21030401349E+02 -0.27976008504E+02  0.11716636168E+03  0.12228201479E+03  0.00000000000E+00 0.  1.
         22    1    1    2    0    0 -0.23590424605E+03  0.20672545979E+01  0.15368991133E+03  0.28155936442E+03  0.00000000000E+00 0.  1.
<mgrwt>
<rscale>  0 0.56328768E+03</rscale>
<asrwt>0</asrwt>
<pdfrwt beam="1">  1        2 0.13355115E-01 0.56328768E+03</pdfrwt>
<pdfrwt beam="2">  1       -2 0.14058085E+00 0.56328768E+03</pdfrwt>
<totfact> 0.16693219E+02</totfact>
</mgrwt>
</event>
<event>
 6    1  0.2325157E-005  0.3652400E+04  0.7818608E-02  0.8078593E-01
          2   -1    0    0  501    0  0.00000000000E+00  0.00000000000E+00  0.31659079720E+04  0.31659079720E+04  0.00000000000E+00 0.  1.
         -2   -1    0    0    0  501 -0.00000000000E+00 -0.00000000000E+00 -0.10534120277E+04  0.10534120277E+04  0.00000000000E+00 0. -1.
         23    2    1    2    0    0  0.10306122763E+04  0.31216739192E+03  0.27591588789E+04  0.29632216374E+04  0.90081122246E+02 0.  0.
         11    1    3    3    0    0  0.43575244171E+03  0.86997679555E+02  0.11060786667E+04  0.11919978203E+04  0.00000000000E+00 0. -1.
        -11    1    3    3    0    0  0.59485983461E+03  0.22516971237E+03  0.16530802122E+04  0.17712238171E+04  0.00000000000E+00 0.  1.
         22    1    1    2    0    0 -0.10306122763E+04 -0.31216739192E+03 -0.64666293468E+03  0.12560983623E+04  0.00000000000E+00 0. -1.
<mgrwt>
<rscale>  0 0.36523995E+04</rscale>
<asrwt>0</asrwt>
<pdfrwt beam="1">  1        2 0.48706276E+00 0.36523995E+04</pdfrwt>
<pdfrwt beam="2">  1       -2 0.16206339E+00 0.36523995E+04</pdfrwt>
<totfact> 0.26912033E-01</totfact>
</mgrwt>
</event>
<event>
 6    1  0.2325157E-005  0.1002003E+04  0.7818608E-02  0.9306350E-01
          2   -1    0    0  501    0  0.00000000000E+00  0.00000000000E+00  0.14006416235E+04  0.14006416235E+04  0.00000000000E+00 0.  1.
         -2   -1    0    0    0  501 -0.00000000000E+00 -0.00000000000E+00 -0.17920549451E+03  0.17920549451E+03  0.00000000000E+00 0. -1.
         23    2    1    2    0    0  0.30461600100E+03 -0.89857758924E+02  0.12184566004E+04  0.12622401242E+04  0.88024537825E+02 0.  0.
         13    1    3    3    0    0  0.19102675685E+03 -0.98697777742E+02  0.83244513536E+03  0.85976588473E+03  0.00000000000E+00 0.  1.
        -13    1    3    3    0    0  0.11358924414E+03  0.88400188181E+01  0.38601146500E+03  0.40247423946E+03  0.00000000000E+00 0. -1.
         22    1    1    2    0    0 -0.30461600100E+03  0.89857758924E+02  0.29795285856E+01  0.31760699377E+03  0.00000000000E+00 0. -1.
<mgrwt>
<rscale>  0 0.10020033E+04</rscale>
<asrwt>0</asrwt>
<pdfrwt beam="1">  1        2 0.21548332E+00 0.10020033E+04</pdfrwt>
<pdfrwt beam="2">  1       -2 0.27570077E-01 0.10020033E+04</pdfrwt>
<totfact> 0.17291979E+02</totfact>
</mgrwt>
</event>
<event>
 6    1  0.2325157E-005  0.8688166E+03  0.7818608E-02  0.9465424E-01
         -2   -1    0    0    0  501 -0.00000000000E+00  0.00000000000E+00  0.26168539598E+03  0.26168539598E+03  0.00000000000E+00 0.  1.
          2   -1    0    0  501    0  0.00000000000E+00 -0.00000000000E+00 -0.72113531784E+03  0.72113531784E+03  0.00000000000E+00 0. -1.
         23    2    1    2    0    0  0.34405624292E+03 -0.23835730371E+03 -0.12268825674E+03  0.44560816593E+03  0.91243228095E+02 0.  0.
         11    1    3    3    0    0  0.23851155941E+03 -0.17056410022E+03 -0.41400753660E+02  0.29613155633E+03  0.00000000000E+00 0. -1.
        -11    1    3    3    0    0  0.10554468352E+03 -0.67793203495E+02 -0.81287503081E+02  0.14947660959E+03  0.00000000000E+00 0.  1.
         22    1    1    2    0    0 -0.34405624292E+03  0.23835730371E+03 -0.33676166512E+03  0.53721254790E+03  0.00000000000E+00 0.  1.
<mgrwt>
<rscale>  0 0.86881662E+03</rscale>
<asrwt>0</asrwt>
<pdfrwt beam="1">  1        2 0.11094389E+00 0.86881662E+03</pdfrwt>
<pdfrwt beam="2">  1       -2 0.40259292E-01 0.86881662E+03</pdfrwt>
<totfact> 0.23119533E+02</totfact>
</mgrwt>
</event>
<event>
 6    1  0.2325157E-005  0.3878204E+04  0.7818608E-02  0.8029578E-01
          2   -1    0    0  501    0  0.00000000000E+00  0.00000000000E+00  0.41818853640E+04  0.41818853640E+04  0.00000000000E+00 0.  1.
         -2   -1    0    0    0  501 -0.00000000000E+00 -0.00000000000E+00 -0.89914366045E+03  0.89914366045E+03  0.00000000000E+00 0. -1.
         23    2    1    2    0    0 -0.14383720311E+03 -0.69956008227E+02  0.41727109924E+04  0.41768010006E+04  0.92555866049E+02 0.  0.
         11    1    3    3    0    0 -0.13486910506E+03 -0.55606656911E+02  0.40767645711E+04  0.40793738666E+04  0.00000000000E+00 0.  1.
        -11    1    3    3    0    0 -0.89680980479E+01 -0.14349351316E+02  0.95946421297E+02  0.97427133928E+02  0.00000000000E+00 0. -1.
         22    1    1    2    0    0  0.14383720311E+03  0.69956008227E+02 -0.88996928883E+03  0.90422802387E+03  0.00000000000E+00 0. -1.
<mgrwt>
<rscale>  0 0.38782036E+04</rscale>
<asrwt>0</asrwt>
<pdfrwt beam="1">  1        2 0.64336697E+00 0.38782036E+04</pdfrwt>
<pdfrwt beam="2">  1       -2 0.13832980E+00 0.38782036E+04</pdfrwt>
<totfact> 0.70850324E-02</totfact>
</mgrwt>
</event>
<event>
 6    1  0.2325157E-005  0.2245370E+04  0.7818608E-02  0.8499778E-01
          2   -1    0    0  501    0  0.00000000000E+00  0.00000000000E+00  0.13747357112E+04  0.13747357112E+04  0.00000000000E+00 0.  1.
         -2   -1    0    0    0  501 -0.00000000000E+00 -0.00000000000E+00 -0.91684641841E+03  0.91684641841E+03  0.00000000000E+00 0. -1.
         23    2    1    2    0    0 -0.58421472775E+02 -0.66133020512E+03 -0.69232664276E+03  0.96351307753E+03  0.90942628072E+02 0.  0.
         13    1    3    3    0    0 -0.68221268984E+02 -0.63203885759E+03 -0.67816260900E+03  0.92953309962E+03  0.00000000000E+00 0. -1.
        -13    1    3    3    0    0  0.97997962091E+01 -0.29291347533E+02 -0.14164033756E+02  0.33979977903E+02  0.00000000000E+00 0.  1.
         22    1    1    2    0    0  0.58421472775E+02  0.66133020512E+03  0.11502159355E+04  0.13280690520E+04  0.00000000000E+00 0.  1.
<mgrwt>
<rscale>  0 0.22453699E+04</rscale>
<asrwt>0</asrwt>
<pdfrwt beam="1">  1        2 0.21149780E+00 0.22453699E+04</pdfrwt>
<pdfrwt beam="2">  1       -2 0.14105329E+00 0.22453699E+04</pdfrwt>
<totfact> 0.47999594E+00</totfact>
</mgrwt>
</event>
<event>
 6    1  0.2325157E-005  0.1834798E+04  0.7818608E-02  0.8688010E-01
          2   -1    0    0  501    0  0.00000000000E+00  0.00000000000E+00  0.12480403476E+04  0.12480403476E+04  0.00000000000E+00 0.  1.
         -2   -1    0    0    0  501 -0.00000000000E+00 -0.00000000000E+00 -0.67435415824E+03  0.67435415824E+03  0.00000000000E+00 0. -1.
         23    2    1    2    0    0 -0.39647171577E+03  0.71932466548E+03  0.71025876516E+03  0.10897662189E+04  0.92223113689E+02 0.  0.
         11    1    3    3    0    0 -0.32339340239E+03  0.55530402012E+03  0.59923412492E+03  0.87865088855E+03  0.00000000000E+00 0. -1.
        -11    1    3    3    0    0 -0.73078313378E+02  0.16402064536E+03  0.11102464024E+03  0.21111533040E+03  0.00000000000E+00 0.  1.
         22    1    1    2    0    0  0.39647171577E+03 -0.71932466548E+03 -0.13657257575E+03  0.83262828694E+03  0.00000000000E+00 0. -1.
<mgrwt>
<rscale>  0 0.18347983E+04</rscale>
<asrwt>0</asrwt>
<pdfrwt beam="1">  1        2 0.19200621E+00 0.18347983E+04</pdfrwt>
<pdfrwt beam="2">  1       -2 0.10374679E+00 0.18347983E+04</pdfrwt>
<totfact> 0.12634313E+01</totfact>
</mgrwt>
</event>
<event>
 6    1  0.2325157E-005  0.2410272E+04  0.7818608E-02  0.8435668E-01
         -2   -1    0    0    0  501 -0.00000000000E+00  0.00000000000E+00  0.18083950044E+04  0.18083950044E+04  0.00000000000E+00 0. -1.
          2   -1    0    0  501    0  0.00000000000E+00 -0.00000000000E+00 -0.80311705004E+03  0.80311705004E+03  0.00000000000E+00 0.  1.
         23    2    1    2    0    0  0.74489642088E+03 -0.76077722002E+03 -0.10520708868E+03  0.10730616369E+04  0.82098043683E+02 0.  0.
         11    1    3    3    0    0  0.52866326905E+03 -0.49049517893E+03 -0.54255931447E+02  0.72319712299E+03  0.00000000000E+00 0. -1.
        -11    1    3    3    0    0  0.21623315182E+03 -0.27028204109E+03 -0.50951157236E+02  0.34986451393E+03  0.00000000000E+00 0.  1.
         22    1    1    2    0    0 -0.74489642088E+03  0.76077722002E+03  0.11104850431E+04  0.15384504175E+04  0.00000000000E+00 0. -1.
<mgrwt>
<rscale>  0 0.24102721E+04</rscale>
<asrwt>0</asrwt>
<pdfrwt beam="1">  1        2 0.12355647E+00 0.24102721E+04</pdfrwt>
<pdfrwt beam="2">  1       -2 0.27821462E+00 0.24102721E+04</pdfrwt>
<totfact> 0.13295847E+00</totfact>
</mgrwt>
</event>
<event>
 6    1  0.4081379E-005  0.2441422E+04  0.7818608E-02  0.8424157E-01
          2   -1    0    0  501    0  0.00000000000E+00  0.00000000000E+00  0.23042702917E+04  0.23042702917E+04  0.00000000000E+00 0.  1.
         -2   -1    0    0    0  501 -0.00000000000E+00 -0.00000000000E+00 -0.64668406806E+03  0.64668406806E+03  0.00000000000E+00 0. -1.
         23    2    1    2    0    0 -0.78161318688E+03  0.44476029152E+03 -0.16467448900E+03  0.91887045510E+03  0.92056151947E+02 0.  0.
         13    1    3    3    0    0 -0.53568898849E+03  0.26688965249E+03 -0.13797957167E+03  0.61419145320E+03  0.00000000000E+00 0.  1.
        -13    1    3    3    0    0 -0.24592419839E+03  0.17787063903E+03 -0.26694917329E+02  0.30467900190E+03  0.00000000000E+00 0. -1.
         22    1    1    2    0    0  0.78161318688E+03 -0.44476029152E+03  0.18222607127E+04  0.20320839047E+04  0.00000000000E+00 0.  1.
<mgrwt>
<rscale>  0 0.24414216E+04</rscale>
<asrwt>0</asrwt>
<pdfrwt beam="1">  1        2 0.35450312E+00 0.24414216E+04</pdfrwt>
<pdfrwt beam="2">  1       -2 0.99489858E-01 0.24414216E+04</pdfrwt>
<totfact> 0.33775107E+00</totfact>
</mgrwt>
</event>
<event>
 6    1  0.2325157E-005  0.2213862E+04  0.7818608E-02  0.8512680E-01
          2   -1    0    0  501    0  0.00000000000E+00  0.00000000000E+00  0.18946766061E+04  0.18946766061E+04  0.00000000000E+00 0.  1.
         -2   -1    0    0    0  501 -0.00000000000E+00 -0.00000000000E+00 -0.64670476713E+03  0.64670476713E+03  0.00000000000E+00 0. -1.
         23    2    1    2    0    0  0.77133595386E+02 -0.97982523202E+03  0.45264732500E+02  0.98815522718E+03  0.91623032790E+02 0.  0.
         13    1    3    3    0    0  0.86220346470E+02 -0.68995688991E+03  0.48360577265E+01  0.69534009343E+03  0.00000000000E+00 0. -1.
        -13    1    3    3    0    0 -0.90867510838E+01 -0.28986834211E+03  0.40428674774E+02  0.29281513374E+03  0.00000000000E+00 0.  1.
         22    1    1    2    0    0 -0.77133595386E+02  0.97982523202E+03  0.12027071065E+04  0.15532261461E+04  0.00000000000E+00 0. -1.
<mgrwt>
<rscale>  0 0.22138621E+04</rscale>
<asrwt>0</asrwt>
<pdfrwt beam="1">  1        2 0.29148871E+00 0.22138621E+04</pdfrwt>
<pdfrwt beam="2">  1       -2 0.99493042E-01 0.22138621E+04</pdfrwt>
<totfact> 0.58353411E+00</totfact>
</mgrwt>
</event>
<event>
 6    1  0.2325157E-005  0.2093712E+04  0.7818608E-02  0.8564018E-01
         -2   -1    0    0    0  501 -0.00000000000E+00  0.00000000000E+00  0.62991283942E+03  0.62991283942E+03  0.00000000000E+00 0. -1.
          2   -1    0    0  501    0  0.00000000000E+00 -0.00000000000E+00 -0.17397768333E+04  0.17397768333E+04  0.00000000000E+00 0.  1.
         23    2    1    2    0    0  0.59238092665E+03  0.59522573516E+03  0.14747660852E+03  0.85769951784E+03  0.93221643327E+02 0.  0.
         11    1    3    3    0    0  0.43140266086E+03  0.43915164731E+03  0.65953500269E+02  0.61912219256E+03  0.00000000000E+00 0.  1.
        -11    1    3    3    0    0  0.16097826579E+03  0.15607408785E+03  0.81523108247E+02  0.23857732527E+03  0.00000000000E+00 0. -1.
         22    1    1    2    0    0 -0.59238092665E+03 -0.59522573516E+03 -0.12573406024E+04  0.15119901549E+04  0.00000000000E+00 0.  1.
<mgrwt>
<rscale>  0 0.20937123E+04</rscale>
<asrwt>0</asrwt>
<pdfrwt beam="1">  1        2 0.26765798E+00 0.20937123E+04</pdfrwt>
<pdfrwt beam="2">  1       -2 0.96909667E-01 0.20937123E+04</pdfrwt>
<totfact> 0.76437293E+00</totfact>
</mgrwt>
</event>
<event>
 6    1  0.2325157E-005  0.5938151E+03  0.7818608E-02  0.9918321E-01
         -2   -1    0    0    0  501 -0.00000000000E+00  0.00000000000E+00  0.13499132624E+03  0.13499132624E+03  0.00000000000E+00 0. -1.
          2   -1    0    0  501    0  0.00000000000E+00 -0.00000000000E+00 -0.65303525691E+03  0.65303525691E+03  0.00000000000E+00 0.  1.
         23    2    1    2    0    0  0.74995994113E+02  0.26091630067E+03 -0.40050583578E+03  0.49219399732E+03  0.90267886922E+02 0.  0.
         11    1    3    3    0    0  0.38297317117E+02  0.97067415036E+02 -0.23163447869E+03  0.25405373305E+03  0.00000000000E+00 0.  1.
        -11    1    3    3    0    0  0.36698676996E+02  0.16384888563E+03 -0.16887135709E+03  0.23814026426E+03  0.00000000000E+00 0. -1.
         22    1    1    2    0    0 -0.74995994113E+02 -0.26091630067E+03 -0.11753809489E+03  0.29583258583E+03  0.00000000000E+00 0. -1.
<mgrwt>
<rscale>  0 0.59381511E+03</rscale>
<asrwt>0</asrwt>
<pdfrwt beam="1">  1        2 0.10046696E+00 0.59381511E+03</pdfrwt>
<pdfrwt beam="2">  1       -2 0.20767896E-01 0.59381511E+03</pdfrwt>
<totfact> 0.89675721E+02</totfact>
</mgrwt>
</event>
<event>
 6    1  0.2325157E-005  0.1447703E+04  0.7818608E-02  0.8919994E-01
          2   -1    0    0  501    0  0.00000000000E+00  0.00000000000E+00  0.83252053122E+03  0.83252053122E+03  0.00000000000E+00 0.  1.
         -2   -1    0    0    0  501 -0.00000000000E+00 -0.00000000000E+00 -0.62936710411E+03  0.62936710411E+03  0.00000000000E+00 0. -1.
         23    2    1    2    0    0  0.22519683008E+03 -0.53145400647E+03 -0.33452761897E+03  0.67305439530E+03  0.89087136548E+02 0.  0.
         11    1    3    3    0    0  0.14704195199E+03 -0.40742208948E+03 -0.21326599274E+03  0.48280066104E+03  0.00000000000E+00 0.  1.
        -11    1    3    3    0    0  0.78154878096E+02 -0.12403191699E+03 -0.12126162623E+03  0.19025373426E+03  0.00000000000E+00 0. -1.
         22    1    1    2    0    0 -0.22519683008E+03  0.53145400647E+03  0.53768104608E+03  0.78883324004E+03  0.00000000000E+00 0.  1.
<mgrwt>
<rscale>  0 0.14477031E+04</rscale>
<asrwt>0</asrwt>
<pdfrwt beam="1">  1        2 0.12808008E+00 0.14477031E+04</pdfrwt>
<pdfrwt beam="2">  1       -2 0.96825708E-01 0.14477031E+04</pdfrwt>
<totfact> 0.28233855E+01</totfact>
</mgrwt>
</event>
<event>
 6    1  0.2325157E-005  0.4954180E+04  0.7818608E-02  0.7835614E-01
         -2   -1    0    0    0  501 -0.00000000000E+00  0.00000000000E+00  0.15564616210E+04  0.15564616210E+04  0.00000000000E+00 0. -1.
          2   -1    0    0  501    0  0.00000000000E+00 -0.00000000000E+00 -0.39422591182E+04  0.39422591182E+04  0.00000000000E+00 0.  1.
         23    2    1    2    0    0  0.57655585746E+03 -0.23996383386E+04 -0.96813988154E+03  0.26525946126E+04  0.91008437047E+02 0.  0.
         13    1    3    3    0    0  0.15143728300E+03 -0.81027340232E+03 -0.31395753680E+03  0.88206891574E+03  0.00000000000E+00 0. -1.
        -13    1    3    3    0    0  0.42511857446E+03 -0.15893649363E+04 -0.65418234474E+03  0.17705256969E+04  0.00000000000E+00 0.  1.
         22    1    1    2    0    0 -0.57655585746E+03  0.23996383386E+04 -0.14176576158E+04  0.28461261266E+04  0.00000000000E+00 0.  1.
<mgrwt>
<rscale>  0 0.49541801E+04</rscale>
<asrwt>0</asrwt>
<pdfrwt beam="1">  1        2 0.60650139E+00 0.49541801E+04</pdfrwt>
<pdfrwt beam="2">  1       -2 0.23945564E+00 0.49541801E+04</pdfrwt>
<totfact> 0.20675940E-02</totfact>
</mgrwt>
</event>
<event>
 6    1  0.2325157E-005  0.1388321E+04  0.7818608E-02  0.8962316E-01
         -2   -1    0    0    0  501 -0.00000000000E+00  0.00000000000E+00  0.11314697982E+03  0.11314697982E+03  0.00000000000E+00 0. -1.
          2   -1    0    0  501    0  0.00000000000E+00 -0.00000000000E+00 -0.42586971641E+04  0.42586971641E+04  0.00000000000E+00 0.  1.
         23    2    1    2    0    0 -0.66229559118E+03  0.15488555497E+03 -0.24659182475E+04  0.25597215134E+04  0.93789323308E+02 0.  0.
         11    1    3    3    0    0 -0.42694291163E+03  0.97311382463E+02 -0.14135929418E+04  0.14798630882E+04  0.00000000000E+00 0. -1.
        -11    1    3    3    0    0 -0.23535267956E+03  0.57574172504E+02 -0.10523253058E+04  0.10798584251E+04  0.00000000000E+00 0.  1.
         22    1    1    2    0    0  0.66229559118E+03 -0.15488555497E+03 -0.16796319367E+04  0.18121226305E+04  0.00000000000E+00 0.  1.
<mgrwt>
<rscale>  0 0.13883209E+04</rscale>
<asrwt>0</asrwt>
<pdfrwt beam="1">  1        2 0.65518422E+00 0.13883209E+04</pdfrwt>
<pdfrwt beam="2">  1       -2 0.17407227E-01 0.13883209E+04</pdfrwt>
<totfact> 0.56753213E+00</totfact>
</mgrwt>
</event>
<event>
 6    1  0.2325157E-005  0.8925033E+03  0.7818608E-02  0.9435002E-01
         -2   -1    0    0    0  501 -0.00000000000E+00  0.00000000000E+00  0.64144857001E+03  0.64144857001E+03  0.00000000000E+00 0. -1.
          2   -1    0    0  501    0  0.00000000000E+00 -0.00000000000E+00 -0.31045437854E+03  0.31045437854E+03  0.00000000000E+00 0.  1.
         23    2    1    2    0    0  0.22249256359E+03 -0.37649165204E+03  0.23610490006E+03  0.50440671111E+03  0.86207316809E+02 0.  0.
         13    1    3    3    0    0  0.49359106251E+02 -0.72041572000E+02  0.10879964696E+02  0.88003881153E+02  0.00000000000E+00 0.  1.
        -13    1    3    3    0    0  0.17313345734E+03 -0.30445008004E+03  0.22522493537E+03  0.41640282996E+03  0.00000000000E+00 0. -1.
         22    1    1    2    0    0 -0.22249256359E+03  0.37649165204E+03  0.94889291407E+02  0.44749623745E+03  0.00000000000E+00 0. -1.
<mgrwt>
<rscale>  0 0.89250326E+03</rscale>
<asrwt>0</asrwt>
<pdfrwt beam="1">  1        2 0.47762212E-01 0.89250326E+03</pdfrwt>
<pdfrwt beam="2">  1       -2 0.98684395E-01 0.89250326E+03</pdfrwt>
<totfact> 0.90400261E+01</totfact>
</mgrwt>
</event>
<event>
 6    1  0.2325157E-005  0.1610547E+04  0.7818608E-02  0.8814095E-01
         -2   -1    0    0    0  501 -0.00000000000E+00  0.00000000000E+00  0.30670543992E+03  0.30670543992E+03  0.00000000000E+00 0.  1.
          2   -1    0    0  501    0  0.00000000000E+00 -0.00000000000E+00 -0.21142935975E+04  0.21142935975E+04  0.00000000000E+00 0. -1.
         23    2    1    2    0    0  0.49070430106E+03  0.45226087632E+03 -0.15771438440E+04  0.17149996089E+04  0.92251519028E+02 0.  0.
         13    1    3    3    0    0  0.23378806084E+03  0.17078581706E+03 -0.60103852062E+03  0.66713713431E+03  0.00000000000E+00 0. -1.
        -13    1    3    3    0    0  0.25691624021E+03  0.28147505926E+03 -0.97610532334E+03  0.10478624746E+04  0.00000000000E+00 0.  1.
         22    1    1    2    0    0 -0.49070430106E+03 -0.45226087632E+03 -0.23044431358E+03  0.70599942846E+03  0.00000000000E+00 0.  1.
<mgrwt>
<rscale>  0 0.16105469E+04</rscale>
<asrwt>0</asrwt>
<pdfrwt beam="1">  1        2 0.32527592E+00 0.16105469E+04</pdfrwt>
<pdfrwt beam="2">  1       -2 0.47185455E-01 0.16105469E+04</pdfrwt>
<totfact> 0.23541204E+01</totfact>
</mgrwt>
</event>
<event>
 6    1  0.2325157E-005  0.4446421E+04  0.7818608E-02  0.7920085E-01
          2   -1    0    0  501    0  0.00000000000E+00  0.00000000000E+00  0.25510449877E+04  0.25510449877E+04  0.00000000000E+00 0.  1.
         -2   -1    0    0    0  501 -0.00000000000E+00 -0.00000000000E+00 -0.19375060995E+04  0.19375060995E+04  0.00000000000E+00 0. -1.
         23    2    1    2    0    0 -0.11173749334E+02 -0.20148281071E+04 -0.63867289794E+03  0.21162754896E+04  0.10517472775E+03 0.  0.
         13    1    3    3    0    0  0.10417218631E+02 -0.31670522919E+03 -0.13908125232E+03  0.34605536463E+03  0.00000000000E+00 0. -1.
        -13    1    3    3    0    0 -0.21590967965E+02 -0.16981228779E+04 -0.49959164562E+03  0.17702201249E+04  0.00000000000E+00 0.  1.
         22    1    1    2    0    0  0.11173749334E+02  0.20148281071E+04  0.12522117861E+04  0.23722755976E+04  0.00000000000E+00 0. -1.
<mgrwt>
<rscale>  0 0.44464211E+04</rscale>
<asrwt>0</asrwt>
<pdfrwt beam="1">  1        2 0.39246846E+00 0.44464211E+04</pdfrwt>
<pdfrwt beam="2">  1       -2 0.29807786E+00 0.44464211E+04</pdfrwt>
<totfact> 0.80789384E-02</totfact>
</mgrwt>
</event>
<event>
 6    1  0.2325157E-005  0.3848166E+04  0.7818608E-02  0.8035897E-01
         -1   -1    0    0    0  501 -0.00000000000E+00  0.00000000000E+00  0.13974349770E+04  0.13974349770E+04  0.00000000000E+00 0. -1.
          1   -1    0    0  501    0  0.00000000000E+00 -0.00000000000E+00 -0.26492073496E+04  0.26492073496E+04  0.00000000000E+00 0.  1.
         23    2    1    2    0    0  0.13367922524E+04  0.85610405124E+03 -0.17679535371E+04  0.23773997836E+04  0.80264247184E+02 0.  0.
         13    1    3    3    0    0  0.70549334327E+03  0.47146700484E+03 -0.99921720922E+03  0.13108916909E+04  0.00000000000E+00 0.  1.
        -13    1    3    3    0    0  0.63129890914E+03  0.38463704640E+03 -0.76873632784E+03  0.10665080927E+04  0.00000000000E+00 0. -1.
         22    1    1    2    0    0 -0.13367922524E+04 -0.85610405124E+03  0.51618116443E+03  0.16692425429E+04  0.00000000000E+00 0. -1.
<mgrwt>
<rscale>  0 0.38481658E+04</rscale>
<asrwt>0</asrwt>
<pdfrwt beam="1">  1        1 0.40757036E+00 0.38481658E+04</pdfrwt>
<pdfrwt beam="2">  1       -1 0.21499000E+00 0.38481658E+04</pdfrwt>
<totfact> 0.10042864E-01</totfact>
</mgrwt>
</event>
<event>
 6    1  0.2325157E-005  0.3702599E+04  0.7818608E-02  0.8067386E-01
          1   -1    0    0  501    0  0.00000000000E+00  0.00000000000E+00  0.16872876958E+04  0.16872876958E+04  0.00000000000E+00 0.  1.
         -1   -1    0    0    0  501 -0.00000000000E+00 -0.00000000000E+00 -0.20312540534E+04  0.20312540534E+04  0.00000000000E+00 0. -1.
         23    2    1    2    0    0  0.37410614451E+03 -0.16653866183E+04 -0.88910105240E+03  0.19267159119E+04  0.90914949951E+02 0.  0.
         11    1    3    3    0    0  0.21799636380E+03 -0.90016015702E+03 -0.43425378884E+03  0.10229306311E+04  0.00000000000E+00 0. -1.
        -11    1    3    3    0    0  0.15610978071E+03 -0.76522646126E+03 -0.45484726356E+03  0.90378528081E+03  0.00000000000E+00 0.  1.
         22    1    1    2    0    0 -0.37410614451E+03  0.16653866183E+04  0.54513469475E+03  0.17918258373E+04  0.00000000000E+00 0.  1.
<mgrwt>
<rscale>  0 0.37025991E+04</rscale>
<asrwt>0</asrwt>
<pdfrwt beam="1">  1        1 0.25958272E+00 0.37025991E+04</pdfrwt>
<pdfrwt beam="2">  1       -1 0.31250062E+00 0.37025991E+04</pdfrwt>
<totfact> 0.10681415E-01</totfact>
</mgrwt>
</event>
<event>
 6    1  0.2790433E-005  0.3045610E+04  0.7818608E-02  0.8230825E-01
          2   -1    0    0  501    0  0.00000000000E+00  0.00000000000E+00  0.20575119383E+04  0.20575119383E+04  0.00000000000E+00 0.  1.
         -2   -1    0    0    0  501 -0.00000000000E+00 -0.00000000000E+00 -0.11270576265E+04  0.11270576265E+04  0.00000000000E+00 0. -1.
         23    2    1    2    0    0 -0.32398897455E+03 -0.11785068903E+04  0.14132826909E+04  0.18704270345E+04  0.85334523813E+02 0.  0.
         13    1    3    3    0    0 -0.25566046716E+03 -0.78252742248E+03  0.96302951315E+03  0.12669401267E+04  0.00000000000E+00 0. -1.
        -13    1    3    3    0    0 -0.68328507390E+02 -0.39597946783E+03  0.45025317774E+03  0.60348690783E+03  0.00000000000E+00 0.  1.
         22    1    1    2    0    0  0.32398897455E+03  0.11785068903E+04 -0.48282837911E+03  0.13141425302E+04  0.00000000000E+00 0. -1.
<mgrwt>
<rscale>  0 0.30456096E+04</rscale>
<asrwt>0</asrwt>
<pdfrwt beam="1">  1        2 0.31654030E+00 0.30456096E+04</pdfrwt>
<pdfrwt beam="2">  1       -2 0.17339348E+00 0.30456096E+04</pdfrwt>
<totfact> 0.10673820E+00</totfact>
</mgrwt>
</event>
<event>
 6    1  0.2325157E-005  0.2520996E+04  0.7818608E-02  0.8395544E-01
         -2   -1    0    0    0  501 -0.00000000000E+00  0.00000000000E+00  0.43664741007E+03  0.43664741007E+03  0.00000000000E+00 0. -1.
          2   -1    0    0  501    0  0.00000000000E+00 -0.00000000000E+00 -0.36387591156E+04  0.36387591156E+04  0.00000000000E+00 0.  1.
         23    2    1    2    0    0  0.62415860622E+03 -0.58154894162E+03 -0.10671666378E+03  0.86460544157E+03  0.91547725481E+02 0.  0.
         13    1    3    3    0    0  0.29628040112E+03 -0.25925015305E+03 -0.49818989064E+01  0.39372266541E+03  0.00000000000E+00 0.  1.
        -13    1    3    3    0    0  0.32787820510E+03 -0.32229878857E+03 -0.10173476487E+03  0.47088277616E+03  0.00000000000E+00 0. -1.
         22    1    1    2    0    0 -0.62415860622E+03  0.58154894162E+03 -0.30953950418E+04  0.32108010841E+04  0.00000000000E+00 0.  1.
<mgrwt>
<rscale>  0 0.25209956E+04</rscale>
<asrwt>0</asrwt>
<pdfrwt beam="1">  1        2 0.55980910E+00 0.25209956E+04</pdfrwt>
<pdfrwt beam="2">  1       -2 0.67176524E-01 0.25209956E+04</pdfrwt>
<totfact> 0.11736329E+00</totfact>
</mgrwt>
</event>
<event>
 6    1  0.2325157E-005  0.3374609E+04  0.7818608E-02  0.8144166E-01
         -2   -1    0    0    0  501 -0.00000000000E+00  0.00000000000E+00  0.16711819535E+04  0.16711819535E+04  0.00000000000E+00 0. -1.
          2   -1    0    0  501    0  0.00000000000E+00 -0.00000000000E+00 -0.17035820997E+04  0.17035820997E+04  0.00000000000E+00 0.  1.
         23    2    1    2    0    0 -0.16020033826E+04 -0.81224042132E+01  0.50970685314E+03  0.16835039283E+04  0.88902131633E+02 0.  0.
         13    1    3    3    0    0 -0.10005095021E+04 -0.44824964547E+02  0.33554383055E+03  0.10562282914E+04  0.00000000000E+00 0.  1.
        -13    1    3    3    0    0 -0.60149388049E+03  0.36702560334E+02  0.17416302260E+03  0.62727563690E+03  0.00000000000E+00 0. -1.
         22    1    1    2    0    0  0.16020033826E+04  0.81224042132E+01 -0.54210699940E+03  0.16912601249E+04  0.00000000000E+00 0.  1.
<mgrwt>
<rscale>  0 0.33746085E+04</rscale>
<asrwt>0</asrwt>
<pdfrwt beam="1">  1        2 0.26208955E+00 0.33746085E+04</pdfrwt>
<pdfrwt beam="2">  1       -2 0.25710492E+00 0.33746085E+04</pdfrwt>
<totfact> 0.47100031E-01</totfact>
</mgrwt>
</event>
<event>
 6    1  0.2325157E-005  0.4778220E+03  0.7818608E-02  0.1019735E+00
         -2   -1    0    0    0  501 -0.00000000000E+00  0.00000000000E+00  0.23415101876E+02  0.23415101876E+02  0.00000000000E+00 0. -1.
          2   -1    0    0  501    0  0.00000000000E+00 -0.00000000000E+00 -0.24376777676E+04  0.24376777676E+04  0.00000000000E+00 0.  1.
         23    2    1    2    0    0  0.18728490805E+03 -0.13483568008E+03 -0.12226914669E+04  0.12473802926E+04  0.87902637774E+02 0.  0.
         13    1    3    3    0    0  0.81697819195E+02 -0.10185215229E+03 -0.52610967686E+03  0.54206990939E+03  0.00000000000E+00 0. -1.
        -13    1    3    3    0    0  0.10558708885E+03 -0.32983527794E+02 -0.69658179005E+03  0.70531038322E+03  0.00000000000E+00 0.  1.
         22    1    1    2    0    0 -0.18728490805E+03  0.13483568008E+03 -0.11915711988E+04  0.12137125769E+04  0.00000000000E+00 0. -1.
<mgrwt>
<rscale>  0 0.47782203E+03</rscale>
<asrwt>0</asrwt>
<pdfrwt beam="1">  1        2 0.37502755E+00 0.47782203E+03</pdfrwt>
<pdfrwt beam="2">  1       -2 0.36023215E-02 0.47782203E+03</pdfrwt>
<totfact> 0.13677351E+03</totfact>
</mgrwt>
</event>
<event>
 6    1  0.2325157E-005  0.1407959E+04  0.7818608E-02  0.8948078E-01
         -2   -1    0    0    0  501 -0.00000000000E+00  0.00000000000E+00  0.71442074133E+03  0.71442074133E+03  0.00000000000E+00 0. -1.
          2   -1    0    0  501    0  0.00000000000E+00 -0.00000000000E+00 -0.69369062320E+03  0.69369062320E+03  0.00000000000E+00 0.  1.
         23    2    1    2    0    0 -0.50125162143E+03 -0.47065831375E+03  0.14709038714E+03  0.70901240595E+03  0.91052586554E+02 0.  0.
         11    1    3    3    0    0 -0.80968196310E+02 -0.66231854676E+02 -0.96579817951E+01  0.10505133983E+03  0.00000000000E+00 0. -1.
        -11    1    3    3    0    0 -0.42028342512E+03 -0.40442645907E+03  0.15674836894E+03  0.60396106612E+03  0.00000000000E+00 0.  1.
         22    1    1    2    0    0  0.50125162143E+03  0.47065831375E+03 -0.12636026902E+03  0.69909895857E+03  0.00000000000E+00 0.  1.
<mgrwt>
<rscale>  0 0.14079588E+04</rscale>
<asrwt>0</asrwt>
<pdfrwt beam="1">  1        2 0.10672163E+00 0.14079588E+04</pdfrwt>
<pdfrwt beam="2">  1       -2 0.10991088E+00 0.14079588E+04</pdfrwt>
<totfact> 0.26542258E+01</totfact>
</mgrwt>
</event>
<event>
 6    1  0.2325157E-005  0.5144271E+04  0.7818608E-02  0.7806629E-01
          2   -1    0    0  501    0  0.00000000000E+00  0.00000000000E+00  0.25150450894E+04  0.25150450894E+04  0.00000000000E+00 0.  1.
         -2   -1    0    0    0  501 -0.00000000000E+00 -0.00000000000E+00 -0.26305218911E+04  0.26305218911E+04  0.00000000000E+00 0. -1.
         23    2    1    2    0    0 -0.60068211045E+03  0.69972863684E+03  0.23430991017E+04  0.25197271842E+04  0.92046289145E+02 0.  0.
         11    1    3    3    0    0 -0.45389785604E+02  0.93594717900E+02  0.29589447713E+03  0.31364589182E+03  0.00000000000E+00 0. -1.
        -11    1    3    3    0    0 -0.55529232484E+03  0.60613391894E+03  0.20472046245E+04  0.22060812923E+04  0.00000000000E+00 0.  1.
         22    1    1    2    0    0  0.60068211045E+03 -0.69972863684E+03 -0.24585759034E+04  0.26258397963E+04  0.00000000000E+00 0. -1.
<mgrwt>
<rscale>  0 0.51442711E+04</rscale>
<asrwt>0</asrwt>
<pdfrwt beam="1">  1        2 0.38693001E+00 0.51442711E+04</pdfrwt>
<pdfrwt beam="2">  1       -2 0.40469568E+00 0.51442711E+04</pdfrwt>
<totfact> 0.16996637E-02</totfact>
</mgrwt>
</event>
<event>
 6    1  0.2325157E-005  0.1287920E+04  0.7818608E-02  0.9039200E-01
          2   -1    0    0  501    0  0.00000000000E+00  0.00000000000E+00  0.29687440786E+03  0.29687440786E+03  0.00000000000E+00 0.  1.
         -2   -1    0    0    0  501 -0.00000000000E+00 -0.00000000000E+00 -0.13968340190E+04  0.13968340190E+04  0.00000000000E+00 0. -1.
         23    2    1    2    0    0 -0.42471358417E+03 -0.41586352846E+03 -0.23806124083E+03  0.64671611379E+03  0.90799088993E+02 0.  0.
         11    1    3    3    0    0 -0.18889386044E+03 -0.16051387915E+03 -0.55151529980E+02  0.25394347239E+03  0.00000000000E+00 0. -1.
        -11    1    3    3    0    0 -0.23581972373E+03 -0.25534964932E+03 -0.18290971085E+03  0.39277264139E+03  0.00000000000E+00 0.  1.
         22    1    1    2    0    0  0.42471358417E+03  0.41586352846E+03 -0.86189837027E+03  0.10469923130E+04  0.00000000000E+00 0.  1.
<mgrwt>
<rscale>  0 0.12879197E+04</rscale>
<asrwt>0</asrwt>
<pdfrwt beam="1">  1        2 0.45672987E-01 0.12879197E+04</pdfrwt>
<pdfrwt beam="2">  1       -2 0.21489754E+00 0.12879197E+04</pdfrwt>
<totfact> 0.11603429E+01</totfact>
</mgrwt>
</event>
<event>
 6    1  0.2325157E-005  0.3221253E+04  0.7818608E-02  0.8183227E-01
         -2   -1    0    0    0  501 -0.00000000000E+00  0.00000000000E+00  0.11485244474E+04  0.11485244474E+04  0.00000000000E+00 0. -1.
          2   -1    0    0  501    0  0.00000000000E+00 -0.00000000000E+00 -0.22586526553E+04  0.22586526553E+04  0.00000000000E+00 0.  1.
         23    2    1    2    0    0  0.99798465273E+03  0.11550589835E+04 -0.15950060818E+02  0.15290502593E+04  0.87210484833E+02 0.  0.
         11    1    3    3    0    0  0.89642063394E+03  0.10226743558E+04 -0.39667997778E+02  0.13605169389E+04  0.00000000000E+00 0.  1.
        -11    1    3    3    0    0  0.10156401879E+03  0.13238462768E+03  0.23717936959E+02  0.16853332043E+03  0.00000000000E+00 0. -1.
         22    1    1    2    0    0 -0.99798465273E+03 -0.11550589835E+04 -0.10941781471E+04  0.18781268434E+04  0.00000000000E+00 0. -1.
<mgrwt>
<rscale>  0 0.32212530E+04</rscale>
<asrwt>0</asrwt>
<pdfrwt beam="1">  1        2 0.34748502E+00 0.32212530E+04</pdfrwt>
<pdfrwt beam="2">  1       -2 0.17669607E+00 0.32212530E+04</pdfrwt>
<totfact> 0.76891576E-01</totfact>
</mgrwt>
</event>
<event>
 6    1  0.2325157E-005  0.2330156E+04  0.7818608E-02  0.8466125E-01
         -2   -1    0    0    0  501 -0.00000000000E+00  0.00000000000E+00  0.10730187557E+04  0.10730187557E+04  0.00000000000E+00 0. -1.
          2   -1    0    0  501    0  0.00000000000E+00 -0.00000000000E+00 -0.12650353092E+04  0.12650353092E+04  0.00000000000E+00 0.  1.
         23    2    1    2    0    0  0.71021115552E+03  0.87101264719E+03 -0.39823757521E+03  0.11954298805E+04  0.86002999256E+02 0.  0.
         11    1    3    3    0    0  0.52720989800E+03  0.58621673995E+03 -0.28907681423E+03  0.83974147645E+03  0.00000000000E+00 0.  1.
        -11    1    3    3    0    0  0.18300125753E+03  0.28479590723E+03 -0.10916076098E+03  0.35568840404E+03  0.00000000000E+00 0. -1.
         22    1    1    2    0    0 -0.71021115552E+03 -0.87101264719E+03  0.20622102164E+03  0.11426241844E+04  0.00000000000E+00 0. -1.
<mgrwt>
<rscale>  0 0.23301559E+04</rscale>
<asrwt>0</asrwt>
<pdfrwt beam="1">  1        2 0.19462082E+00 0.23301559E+04</pdfrwt>
<pdfrwt beam="2">  1       -2 0.16507981E+00 0.23301559E+04</pdfrwt>
<totfact> 0.36240959E+00</totfact>
</mgrwt>
</event>
<event>
 6    1  0.2325157E-005  0.1628970E+04  0.7818608E-02  0.8802946E-01
          2   -1    0    0  501    0  0.00000000000E+00  0.00000000000E+00  0.33389647526E+04  0.33389647526E+04  0.00000000000E+00 0.  1.
         -2   -1    0    0    0  501 -0.00000000000E+00 -0.00000000000E+00 -0.19867998437E+03  0.19867998437E+03  0.00000000000E+00 0. -1.
         23    2    1    2    0    0 -0.66507619337E+03  0.20967579955E+03  0.24778210043E+04  0.25757983238E+04  0.94073332213E+02 0.  0.
         13    1    3    3    0    0 -0.20850185868E+03  0.23185545587E+02  0.68850678810E+03  0.71975842604E+03  0.00000000000E+00 0. -1.
        -13    1    3    3    0    0 -0.45657433470E+03  0.18649025396E+03  0.17893142162E+04  0.18560398978E+04  0.00000000000E+00 0.  1.
         22    1    1    2    0    0  0.66507619337E+03 -0.20967579955E+03  0.66246376389E+03  0.96184641309E+03  0.00000000000E+00 0. -1.
<mgrwt>
<rscale>  0 0.16289696E+04</rscale>
<asrwt>0</asrwt>
<pdfrwt beam="1">  1        2 0.51368684E+00 0.16289696E+04</pdfrwt>
<pdfrwt beam="2">  1       -2 0.30566154E-01 0.16289696E+04</pdfrwt>
<totfact> 0.10028829E+01</totfact>
</mgrwt>
</event>
<event>
 6    1  0.2325157E-005  0.1785143E+04  0.7818608E-02  0.8714240E-01
          2   -1    0    0  501    0  0.00000000000E+00  0.00000000000E+00  0.61976083294E+03  0.61976083294E+03  0.00000000000E+00 0.  1.
         -2   -1    0    0    0  501 -0.00000000000E+00 -0.00000000000E+00 -0.12854705386E+04  0.12854705386E+04  0.00000000000E+00 0. -1.
         23    2    1    2    0    0 -0.26396499273E+03  0.68187635686E+03  0.20828131244E+03  0.76571692093E+03  0.91150504397E+02 0.  0.
         11    1    3    3    0    0 -0.72446671562E+02  0.29519044539E+03  0.10921167022E+03  0.32297539872E+03  0.00000000000E+00 0.  1.
        -11    1    3    3    0    0 -0.19151832117E+03  0.38668591148E+03  0.99069642218E+02  0.44274152221E+03  0.00000000000E+00 0. -1.
         22    1    1    2    0    0  0.26396499273E+03 -0.68187635686E+03 -0.87399101808E+03  0.11395144506E+04  0.00000000000E+00 0. -1.
<mgrwt>
<rscale>  0 0.17851435E+04</rscale>
<asrwt>0</asrwt>
<pdfrwt beam="1">  1        2 0.95347822E-01 0.17851435E+04</pdfrwt>
<pdfrwt beam="2">  1       -2 0.19776470E+00 0.17851435E+04</pdfrwt>
<totfact> 0.61951644E+00</totfact>
</mgrwt>
</event>
<event>
 6    1  0.2325157E-005  0.4958360E+04  0.7818608E-02  0.7834963E-01
          2   -1    0    0  501    0  0.00000000000E+00  0.00000000000E+00  0.30367421385E+04  0.30367421385E+04  0.00000000000E+00 0.  1.
         -2   -1    0    0    0  501 -0.00000000000E+00 -0.00000000000E+00 -0.20239895905E+04  0.20239895905E+04  0.00000000000E+00 0. -1.
         23    2    1    2    0    0 -0.40653955317E+03  0.16488895002E+04 -0.13356500260E+04  0.21626106753E+04  0.93877306960E+02 0.  0.
         11    1    3    3    0    0 -0.37259385095E+03  0.14305819274E+04 -0.11292561309E+04  0.18602715495E+04  0.00000000000E+00 0. -1.
        -11    1    3    3    0    0 -0.33945702218E+02  0.21830757283E+03 -0.20639389504E+03  0.30233912576E+03  0.00000000000E+00 0.  1.
         22    1    1    2    0    0  0.40653955317E+03 -0.16488895002E+04  0.23484025740E+04  0.28981210537E+04  0.00000000000E+00 0.  1.
<mgrwt>
<rscale>  0 0.49583604E+04</rscale>
<asrwt>0</asrwt>
<pdfrwt beam="1">  1        2 0.46719110E+00 0.49583604E+04</pdfrwt>
<pdfrwt beam="2">  1       -2 0.31138301E+00 0.49583604E+04</pdfrwt>
<totfact> 0.32611054E-02</totfact>
</mgrwt>
</event>
<event>
 6    1  0.2325157E-005  0.1105636E+04  0.7818608E-02  0.9199716E-01
         -1   -1    0    0    0  501 -0.00000000000E+00  0.00000000000E+00  0.46304929068E+03  0.46304929068E+03  0.00000000000E+00 0. -1.
          1   -1    0    0  501    0  0.00000000000E+00 -0.00000000000E+00 -0.65998938629E+03  0.65998938629E+03  0.00000000000E+00 0.  1.
         23    2    1    2    0    0 -0.36683062432E+03  0.29230608786E+03  0.19117696905E+03  0.51423459368E+03  0.88775153595E+02 0.  0.
         11    1    3    3    0    0 -0.16001710104E+03  0.13415619794E+03  0.38242157065E+02  0.21228711842E+03  0.00000000000E+00 0. -1.
        -11    1    3    3    0    0 -0.20681352328E+03  0.15814988992E+03  0.15293481199E+03  0.30194747526E+03  0.00000000000E+00 0.  1.
         22    1    1    2    0    0  0.36683062432E+03 -0.29230608786E+03 -0.38811706467E+03  0.60880408329E+03  0.00000000000E+00 0.  1.
<mgrwt>
<rscale>  0 0.11056358E+04</rscale>
<asrwt>0</asrwt>
<pdfrwt beam="1">  1        1 0.10153683E+00 0.11056358E+04</pdfrwt>
<pdfrwt beam="2">  1       -1 0.71238353E-01 0.11056358E+04</pdfrwt>
<totfact> 0.59040713E+01</totfact>
</mgrwt>
</event>
<event>
 6    1  0.2325157E-005  0.2715383E+04  0.7818608E-02  0.8330031E-01
          1   -1    0    0  501    0  0.00000000000E+00  0.00000000000E+00  0.11205816543E+04  0.11205816543E+04  0.00000000000E+00 0.  1.
         -1   -1    0    0    0  501 -0.00000000000E+00 -0.00000000000E+00 -0.16449731373E+04  0.16449731373E+04  0.00000000000E+00 0. -1.
         23    2    1    2    0    0 -0.79123789055E+03  0.17264935539E+03  0.84540491195E+03  0.11742636922E+04  0.91217072909E+02 0.  0.
         11    1    3    3    0    0 -0.59588243439E+03  0.14351534387E+03  0.69019676570E+03  0.92306235159E+03  0.00000000000E+00 0.  1.
        -11    1    3    3    0    0 -0.19535545616E+03  0.29134011519E+02  0.15520814626E+03  0.25120134065E+03  0.00000000000E+00 0. -1.
         22    1    1    2    0    0  0.79123789055E+03 -0.17264935539E+03 -0.13697963950E+04  0.15912910994E+04  0.00000000000E+00 0. -1.
<mgrwt>
<rscale>  0 0.27153834E+04</rscale>
<asrwt>0</asrwt>
<pdfrwt beam="1">  1        1 0.17239718E+00 0.27153834E+04</pdfrwt>
<pdfrwt beam="2">  1       -1 0.25307279E+00 0.27153834E+04</pdfrwt>
<totfact> 0.71021282E-01</totfact>
</mgrwt>
</event>
<event>
 6    1  0.2325157E-005  0.2082849E+04  0.7818608E-02  0.8568836E-01
         -2   -1    0    0    0  501 -0.00000000000E+00  0.00000000000E+00  0.45497849913E+03  0.45497849913E+03  0.00000000000E+00 0. -1.
          2   -1    0    0  501    0  0.00000000000E+00 -0.00000000000E+00 -0.23837715950E+04  0.23837715950E+04  0.00000000000E+00 0.  1.
         23    2    1    2    0    0  0.95534216417E+03 -0.40913561828E+03 -0.94879970284E+03  0.14103042061E+04  0.93093892070E+02 0.  0.
         11    1    3    3    0    0  0.40951927294E+03 -0.12760695145E+03 -0.37263781798E+03  0.56819759974E+03  0.00000000000E+00 0. -1.
        -11    1    3    3    0    0  0.54582289124E+03 -0.28152866683E+03 -0.57616188486E+03  0.84210660632E+03  0.00000000000E+00 0.  1.
         22    1    1    2    0    0 -0.95534216417E+03  0.40913561828E+03 -0.97999339307E+03  0.14284458881E+04  0.00000000000E+00 0.  1.
<mgrwt>
<rscale>  0 0.20828488E+04</rscale>
<asrwt>0</asrwt>
<pdfrwt beam="1">  1        2 0.36673409E+00 0.20828488E+04</pdfrwt>
<pdfrwt beam="2">  1       -2 0.69996693E-01 0.20828488E+04</pdfrwt>
<totfact> 0.69692250E+00</totfact>
</mgrwt>
</event>
<event>
 6    1  0.2325157E-005  0.2286450E+04  0.7818608E-02  0.8483283E-01
         -2   -1    0    0    0  501 -0.00000000000E+00  0.00000000000E+00  0.39102267616E+03  0.39102267616E+03  0.00000000000E+00 0. -1.
          2   -1    0    0  501    0  0.00000000000E+00 -0.00000000000E+00 -0.33424224968E+04  0.33424224968E+04  0.00000000000E+00 0.  1.
         23    2    1    2    0    0 -0.34407385574E+02 -0.61886195728E+03 -0.30430476281E+04  0.31068884629E+04  0.91886146215E+02 0.  0.
         13    1    3    3    0    0 -0.11600035295E+02 -0.46474932682E+03 -0.20799315611E+04  0.21312535739E+04  0.00000000000E+00 0. -1.
        -13    1    3    3    0    0 -0.22807350279E+02 -0.15411263046E+03 -0.96311606698E+03  0.97563488896E+03  0.00000000000E+00 0.  1.
         22    1    1    2    0    0  0.34407385574E+02  0.61886195728E+03  0.91647807407E+02  0.62655671009E+03  0.00000000000E+00 0. -1.
<mgrwt>
<rscale>  0 0.22864496E+04</rscale>
<asrwt>0</asrwt>
<pdfrwt beam="1">  1        2 0.51421883E+00 0.22864496E+04</pdfrwt>
<pdfrwt beam="2">  1       -2 0.60157336E-01 0.22864496E+04</pdfrwt>
<totfact> 0.24436650E+00</totfact>
</mgrwt>
</event>
<event>
 6    1  0.2325157E-005  0.1081454E+04  0.7818608E-02  0.9223459E-01
         -2   -1    0    0    0  501 -0.00000000000E+00  0.00000000000E+00  0.32785551086E+03  0.32785551086E+03  0.00000000000E+00 0. -1.
          2   -1    0    0  501    0  0.00000000000E+00 -0.00000000000E+00 -0.89181286659E+03  0.89181286659E+03  0.00000000000E+00 0.  1.
         23    2    1    2    0    0 -0.39560064698E+03 -0.35545949781E+03 -0.38302644445E+03  0.65789678584E+03  0.57162900524E+02 0.  0.
         11    1    3    3    0    0 -0.23486056165E+03 -0.18768930183E+03 -0.18831897200E+03  0.35475455269E+03  0.00000000000E+00 0. -1.
        -11    1    3    3    0    0 -0.16074008533E+03 -0.16777019598E+03 -0.19470747244E+03  0.30314223315E+03  0.00000000000E+00 0.  1.
         22    1    1    2    0    0  0.39560064698E+03  0.35545949781E+03 -0.18093091128E+03  0.56177159160E+03  0.00000000000E+00 0. -1.
<mgrwt>
<rscale>  0 0.10814541E+04</rscale>
<asrwt>0</asrwt>
<pdfrwt beam="1">  1        2 0.13720198E+00 0.10814541E+04</pdfrwt>
<pdfrwt beam="2">  1       -2 0.50439310E-01 0.10814541E+04</pdfrwt>
<totfact> 0.10971905E+02</totfact>
</mgrwt>
</event>
<event>
 6    1  0.2325157E-005  0.3963341E+04  0.7818608E-02  0.8011983E-01
         -2   -1    0    0    0  501 -0.00000000000E+00  0.00000000000E+00  0.12510854642E+04  0.12510854642E+04  0.00000000000E+00 0. -1.
          2   -1    0    0  501    0  0.00000000000E+00 -0.00000000000E+00 -0.31388893883E+04  0.31388893883E+04  0.00000000000E+00 0.  1.
         23    2    1    2    0    0  0.78468099418E+03 -0.75949413037E+03  0.88581368445E+03  0.14091175538E+04  0.91601310403E+02 0.  0.
         13    1    3    3    0    0  0.55326533675E+03 -0.48860201389E+03  0.56286115072E+03  0.92824950085E+03  0.00000000000E+00 0.  1.
        -13    1    3    3    0    0  0.23141565743E+03 -0.27089211648E+03  0.32295253373E+03  0.48086805291E+03  0.00000000000E+00 0. -1.
         22    1    1    2    0    0 -0.78468099418E+03  0.75949413037E+03 -0.27736176086E+04  0.29808572987E+04  0.00000000000E+00 0.  1.
<mgrwt>
<rscale>  0 0.39633415E+04</rscale>
<asrwt>0</asrwt>
<pdfrwt beam="1">  1        2 0.48290606E+00 0.39633415E+04</pdfrwt>
<pdfrwt beam="2">  1       -2 0.19247469E+00 0.39633415E+04</pdfrwt>
<totfact> 0.16756554E-01</totfact>
</mgrwt>
</event>
<event>
 6    1  0.2325157E-005  0.4159817E+04  0.7818608E-02  0.7973060E-01
          2   -1    0    0  501    0  0.00000000000E+00  0.00000000000E+00  0.45030392536E+04  0.45030392536E+04  0.00000000000E+00 0.  1.
         -2   -1    0    0    0  501 -0.00000000000E+00 -0.00000000000E+00 -0.96068860105E+03  0.96068860105E+03  0.00000000000E+00 0. -1.
         23    2    1    2    0    0 -0.13874196004E+04 -0.59348304228E+03 -0.10613445759E+03  0.15154878837E+04  0.91015018599E+02 0.  0.
         13    1    3    3    0    0 -0.12304375352E+04 -0.51905991036E+03 -0.65367876750E+02  0.13370387720E+04  0.00000000000E+00 0. -1.
        -13    1    3    3    0    0 -0.15698206524E+03 -0.74423131923E+02 -0.40766580840E+02  0.17844911176E+03  0.00000000000E+00 0.  1.
         22    1    1    2    0    0  0.13874196004E+04  0.59348304228E+03  0.36484851101E+04  0.39482399709E+04  0.00000000000E+00 0.  1.
<mgrwt>
<rscale>  0 0.41598166E+04</rscale>
<asrwt>0</asrwt>
<pdfrwt beam="1">  1        2 0.69277526E+00 0.41598166E+04</pdfrwt>
<pdfrwt beam="2">  1       -2 0.14779825E+00 0.41598166E+04</pdfrwt>
<totfact> 0.29433866E-02</totfact>
</mgrwt>
</event>
<event>
 6    1  0.2325157E-005  0.4207668E+04  0.7818608E-02  0.7963915E-01
         -2   -1    0    0    0  501 -0.00000000000E+00  0.00000000000E+00  0.11758394414E+04  0.11758394414E+04  0.00000000000E+00 0. -1.
          2   -1    0    0  501    0  0.00000000000E+00 -0.00000000000E+00 -0.37642200628E+04  0.37642200628E+04  0.00000000000E+00 0.  1.
         23    2    1    2    0    0  0.15401723139E+04 -0.55492213654E+03  0.25484401931E+03  0.16592066134E+04  0.89172740710E+02 0.  0.
         11    1    3    3    0    0  0.53443680765E+03 -0.22714813800E+03  0.11826927124E+03  0.59262686278E+03  0.00000000000E+00 0. -1.
        -11    1    3    3    0    0  0.10057355062E+04 -0.32777399854E+03  0.13657474807E+03  0.10665797506E+04  0.00000000000E+00 0.  1.
         22    1    1    2    0    0 -0.15401723139E+04  0.55492213654E+03 -0.28432246407E+04  0.32808528909E+04  0.00000000000E+00 0.  1.
<mgrwt>
<rscale>  0 0.42076684E+04</rscale>
<asrwt>0</asrwt>
<pdfrwt beam="1">  1        2 0.57911077E+00 0.42076684E+04</pdfrwt>
<pdfrwt beam="2">  1       -2 0.18089838E+00 0.42076684E+04</pdfrwt>
<totfact> 0.72285158E-02</totfact>
</mgrwt>
</event>
<event>
 6    1  0.2325157E-005  0.3255329E+04  0.7818608E-02  0.8174356E-01
         -2   -1    0    0    0  501 -0.00000000000E+00  0.00000000000E+00  0.18496037783E+04  0.18496037783E+04  0.00000000000E+00 0. -1.
          2   -1    0    0  501    0  0.00000000000E+00 -0.00000000000E+00 -0.14323566710E+04  0.14323566710E+04  0.00000000000E+00 0.  1.
         23    2    1    2    0    0  0.36572444813E+02  0.86656390815E+03  0.15958398226E+04  0.18186247601E+04  0.91764524012E+02 0.  0.
         11    1    3    3    0    0  0.34863452207E+02  0.26164125309E+03  0.41445051489E+03  0.49136629403E+03  0.00000000000E+00 0.  1.
        -11    1    3    3    0    0  0.17089926056E+01  0.60492265506E+03  0.11813893077E+04  0.13272584661E+04  0.00000000000E+00 0. -1.
         22    1    1    2    0    0 -0.36572444813E+02 -0.86656390815E+03 -0.11785927154E+04  0.14633356892E+04  0.00000000000E+00 0.  1.
<mgrwt>
<rscale>  0 0.32553294E+04</rscale>
<asrwt>0</asrwt>
<pdfrwt beam="1">  1        2 0.22036256E+00 0.32553294E+04</pdfrwt>
<pdfrwt beam="2">  1       -2 0.28455443E+00 0.32553294E+04</pdfrwt>
<totfact> 0.45915797E-01</totfact>
</mgrwt>
</event>
<event>
 6    1  0.2325157E-005  0.2862358E+04  0.7818608E-02  0.8284166E-01
         -2   -1    0    0    0  501 -0.00000000000E+00  0.00000000000E+00  0.65312059887E+03  0.65312059887E+03  0.00000000000E+00 0. -1.
          2   -1    0    0  501    0  0.00000000000E+00 -0.00000000000E+00 -0.31361326631E+04  0.31361326631E+04  0.00000000000E+00 0.  1.
         23    2    1    2    0    0  0.11742529243E+04  0.55859227235E+02 -0.23202813836E+04  0.26024628601E+04  0.84362642514E+02 0.  0.
         13    1    3    3    0    0  0.76486896838E+03 -0.20243055892E+01 -0.15328705014E+04  0.17131026270E+04  0.00000000000E+00 0. -1.
        -13    1    3    3    0    0  0.40938395596E+03  0.57883532824E+02 -0.78741088224E+03  0.88936023311E+03  0.00000000000E+00 0.  1.
         22    1    1    2    0    0 -0.11742529243E+04 -0.55859227235E+02 -0.16273068062E+03  0.11867904019E+04  0.00000000000E+00 0. -1.
<mgrwt>
<rscale>  0 0.28623577E+04</rscale>
<asrwt>0</asrwt>
<pdfrwt beam="1">  1        2 0.48248195E+00 0.28623577E+04</pdfrwt>
<pdfrwt beam="2">  1       -2 0.10048009E+00 0.28623577E+04</pdfrwt>
<totfact> 0.10080958E+00</totfact>
</mgrwt>
</event>
<event>
 6    1  0.2325157E-005  0.1148056E+04  0.7818608E-02  0.9159579E-01
          2   -1    0    0  501    0  0.00000000000E+00  0.00000000000E+00  0.90659402387E+03  0.90659402387E+03  0.00000000000E+00 0.  1.
         -2   -1    0    0    0  501 -0.00000000000E+00 -0.00000000000E+00 -0.36345741475E+03  0.36345741475E+03  0.00000000000E+00 0. -1.
         23    2    1    2    0    0 -0.20568200294E+03 -0.51260734519E+03  0.11585399009E+03  0.57173788928E+03  0.91600711453E+02 0.  0.
         13    1    3    3    0    0 -0.19148205095E+03 -0.44411791057E+03  0.71450063028E+02  0.48888772313E+03  0.00000000000E+00 0. -1.
        -13    1    3    3    0    0 -0.14199951989E+02 -0.68489434623E+02  0.44403927065E+02  0.82850166146E+02  0.00000000000E+00 0.  1.
         22    1    1    2    0    0  0.20568200294E+03  0.51260734519E+03  0.42728261902E+03  0.69831354934E+03  0.00000000000E+00 0. -1.
<mgrwt>
<rscale>  0 0.11480563E+04</rscale>
<asrwt>0</asrwt>
<pdfrwt beam="1">  1        2 0.13947600E+00 0.11480563E+04</pdfrwt>
<pdfrwt beam="2">  1       -2 0.55916525E-01 0.11480563E+04</pdfrwt>
<totfact> 0.86308826E+01</totfact>
</mgrwt>
</event>
<event>
 6    1  0.2325157E-005  0.2040192E+04  0.7818608E-02  0.8588057E-01
          2   -1    0    0  501    0  0.00000000000E+00  0.00000000000E+00  0.22014903555E+04  0.22014903555E+04  0.00000000000E+00 0.  1.
         -2   -1    0    0    0  501 -0.00000000000E+00 -0.00000000000E+00 -0.47267776490E+03  0.47267776490E+03  0.00000000000E+00 0. -1.
         23    2    1    2    0    0 -0.33622872907E+03  0.96043638053E+03  0.90804043788E+03  0.13668216759E+04  0.90422660748E+02 0.  0.
         11    1    3    3    0    0 -0.16683970075E+03  0.49095354993E+03  0.40247456503E+03  0.65639671650E+03  0.00000000000E+00 0. -1.
        -11    1    3    3    0    0 -0.16938902832E+03  0.46948283060E+03  0.50556587285E+03  0.71042495939E+03  0.00000000000E+00 0.  1.
         22    1    1    2    0    0  0.33622872907E+03 -0.96043638053E+03  0.82077215270E+03  0.13073464445E+04  0.00000000000E+00 0.  1.
<mgrwt>
<rscale>  0 0.20401917E+04</rscale>
<asrwt>0</asrwt>
<pdfrwt beam="1">  1        2 0.33869082E+00 0.20401917E+04</pdfrwt>
<pdfrwt beam="2">  1       -2 0.72719657E-01 0.20401917E+04</pdfrwt>
<totfact> 0.81596917E+00</totfact>
</mgrwt>
</event>
<event>
 6    1  0.2325157E-005  0.1468320E+04  0.7818608E-02  0.8905798E-01
         -2   -1    0    0    0  501 -0.00000000000E+00  0.00000000000E+00  0.25693050218E+03  0.25693050218E+03  0.00000000000E+00 0. -1.
          2   -1    0    0  501    0  0.00000000000E+00 -0.00000000000E+00 -0.20978070837E+04  0.20978070837E+04  0.00000000000E+00 0.  1.
         23    2    1    2    0    0 -0.67704838830E+03  0.23790305777E+03 -0.11480700358E+04  0.13572541049E+04  0.95296973836E+02 0.  0.
         11    1    3    3    0    0 -0.15186351879E+03  0.12398975101E+02 -0.24441599259E+03  0.28801986104E+03  0.00000000000E+00 0. -1.
        -11    1    3    3    0    0 -0.52518486951E+03  0.22550408267E+03 -0.90365404324E+03  0.10692342439E+04  0.00000000000E+00 0.  1.
         22    1    1    2    0    0  0.67704838830E+03 -0.23790305777E+03 -0.69280654568E+03  0.99748348093E+03  0.00000000000E+00 0.  1.
<mgrwt>
<rscale>  0 0.14683196E+04</rscale>
<asrwt>0</asrwt>
<pdfrwt beam="1">  1        2 0.32273954E+00 0.14683196E+04</pdfrwt>
<pdfrwt beam="2">  1       -2 0.39527771E-01 0.14683196E+04</pdfrwt>
<totfact> 0.34572222E+01</totfact>
</mgrwt>
</event>
<event>
 6    1  0.2325157E-005  0.2274302E+04  0.7818608E-02  0.8488123E-01
         -2   -1    0    0    0  501 -0.00000000000E+00  0.00000000000E+00  0.53879042965E+03  0.53879042965E+03  0.00000000000E+00 0. -1.
          2   -1    0    0  501    0  0.00000000000E+00 -0.00000000000E+00 -0.24000294542E+04  0.24000294542E+04  0.00000000000E+00 0.  1.
         23    2    1    2    0    0  0.67884619535E+03 -0.90571071952E+03 -0.81239672957E+03  0.13957015397E+04  0.82766401550E+02 0.  0.
         13    1    3    3    0    0  0.59741238125E+02 -0.65809743794E+02 -0.90858279856E+02  0.12710296979E+03  0.00000000000E+00 0. -1.
        -13    1    3    3    0    0  0.61910495723E+03 -0.83990097573E+03 -0.72153844972E+03  0.12685985699E+04  0.00000000000E+00 0.  1.
         22    1    1    2    0    0 -0.67884619535E+03  0.90571071952E+03 -0.10488422949E+04  0.15431183441E+04  0.00000000000E+00 0. -1.
<mgrwt>
<rscale>  0 0.22743024E+04</rscale>
<asrwt>0</asrwt>
<pdfrwt beam="1">  1        2 0.36923530E+00 0.22743024E+04</pdfrwt>
<pdfrwt beam="2">  1       -2 0.82890835E-01 0.22743024E+04</pdfrwt>
<totfact> 0.46071756E+00</totfact>
</mgrwt>
</event>
<event>
 6    1  0.2325157E-005  0.2213723E+04  0.7818608E-02  0.8512738E-01
          2   -1    0    0  501    0  0.00000000000E+00  0.00000000000E+00  0.27918768168E+04  0.27918768168E+04  0.00000000000E+00 0.  1.
         -2   -1    0    0    0  501 -0.00000000000E+00 -0.00000000000E+00 -0.43882383384E+03  0.43882383384E+03  0.00000000000E+00 0. -1.
         23    2    1    2    0    0 -0.85924810555E+02 -0.27074874563E+03  0.27369860839E+04  0.27531102589E+04  0.88517330803E+02 0.  0.
         13    1    3    3    0    0 -0.75371024954E+01 -0.56848210100E+02  0.93898515742E+03  0.94073463461E+03  0.00000000000E+00 0.  1.
        -13    1    3    3    0    0 -0.78387708059E+02 -0.21390053553E+03  0.17980009264E+04  0.18123756242E+04  0.00000000000E+00 0. -1.
         22    1    1    2    0    0  0.85924810555E+02  0.27074874563E+03 -0.38393310092E+03  0.47759039177E+03  0.00000000000E+00 0. -1.
<mgrwt>
<rscale>  0 0.22137227E+04</rscale>
<asrwt>0</asrwt>
<pdfrwt beam="1">  1        2 0.42951950E+00 0.22137227E+04</pdfrwt>
<pdfrwt beam="2">  1       -2 0.67511361E-01 0.22137227E+04</pdfrwt>
<totfact> 0.42974977E+00</totfact>
</mgrwt>
</event>
<event>
 6    1  0.2325157E-005  0.1996726E+04  0.7818608E-02  0.8608153E-01
          2   -1    0    0  501    0  0.00000000000E+00  0.00000000000E+00  0.23390001243E+04  0.23390001243E+04  0.00000000000E+00 0.  1.
         -2   -1    0    0    0  501 -0.00000000000E+00 -0.00000000000E+00 -0.42613463919E+03  0.42613463919E+03  0.00000000000E+00 0. -1.
         23    2    1    2    0    0  0.26754115010E+03 -0.95804782527E+03  0.91398059451E+03  0.13554522009E+04  0.11160752387E+03 0.  0.
         11    1    3    3    0    0  0.17147129753E+03 -0.75029085830E+03  0.74287124851E+03  0.10696711970E+04  0.00000000000E+00 0.  1.
        -11    1    3    3    0    0  0.96069852568E+02 -0.20775696697E+03  0.17110934600E+03  0.28578100389E+03  0.00000000000E+00 0. -1.
         22    1    1    2    0    0 -0.26754115010E+03  0.95804782527E+03  0.99888489060E+03  0.14096825626E+04  0.00000000000E+00 0.  1.
<mgrwt>
<rscale>  0 0.19967263E+04</rscale>
<asrwt>0</asrwt>
<pdfrwt beam="1">  1        2 0.35984616E+00 0.19967263E+04</pdfrwt>
<pdfrwt beam="2">  1       -2 0.65559177E-01 0.19967263E+04</pdfrwt>
<totfact> 0.85819207E+00</totfact>
</mgrwt>
</event>
<event>
 6    1  0.2325157E-005  0.3337846E+04  0.7818608E-02  0.8153332E-01
         -2   -1    0    0    0  501 -0.00000000000E+00  0.00000000000E+00  0.16100234148E+04  0.16100234148E+04  0.00000000000E+00 0. -1.
          2   -1    0    0  501    0  0.00000000000E+00 -0.00000000000E+00 -0.17299772765E+04  0.17299772765E+04  0.00000000000E+00 0.  1.
         23    2    1    2    0    0  0.55844640653E+03 -0.10359035920E+04 -0.12423527162E+04  0.17137356977E+04  0.92147323510E+02 0.  0.
         13    1    3    3    0    0  0.32064236542E+03 -0.61948066275E+03 -0.79906570539E+03  0.10606949701E+04  0.00000000000E+00 0. -1.
        -13    1    3    3    0    0  0.23780404111E+03 -0.41642292925E+03 -0.44328701079E+03  0.65304072760E+03  0.00000000000E+00 0.  1.
         22    1    1    2    0    0 -0.55844640653E+03  0.10359035920E+04  0.11223988545E+04  0.16262649936E+04  0.00000000000E+00 0. -1.
<mgrwt>
<rscale>  0 0.33378460E+04</rscale>
<asrwt>0</asrwt>
<pdfrwt beam="1">  1        2 0.26615035E+00 0.33378460E+04</pdfrwt>
<pdfrwt beam="2">  1       -2 0.24769591E+00 0.33378460E+04</pdfrwt>
<totfact> 0.52176860E-01</totfact>
</mgrwt>
</event>
<event>
 6    1  0.2325157E-005  0.1264274E+04  0.7818608E-02  0.9058386E-01
          2   -1    0    0  501    0  0.00000000000E+00  0.00000000000E+00  0.11642602870E+04  0.11642602870E+04  0.00000000000E+00 0.  1.
         -2   -1    0    0    0  501 -0.00000000000E+00 -0.00000000000E+00 -0.34321957504E+03  0.34321957504E+03  0.00000000000E+00 0. -1.
         23    2    1    2    0    0 -0.33155876419E+03 -0.52531372210E+03  0.52851418949E+03  0.82085224312E+03  0.92657626829E+02 0.  0.
         11    1    3    3    0    0 -0.11814377173E+03 -0.26463623325E+03  0.21754171430E+03  0.36237368035E+03  0.00000000000E+00 0.  1.
        -11    1    3    3    0    0 -0.21341499245E+03 -0.26067748884E+03  0.31097247519E+03  0.45847856277E+03  0.00000000000E+00 0. -1.
         22    1    1    2    0    0  0.33155876419E+03  0.52531372210E+03  0.29252652249E+03  0.68662761894E+03  0.00000000000E+00 0. -1.
<mgrwt>
<rscale>  0 0.12642736E+04</rscale>
<asrwt>0</asrwt>
<pdfrwt beam="1">  1        2 0.17911697E+00 0.12642736E+04</pdfrwt>
<pdfrwt beam="2">  1       -2 0.52803012E-01 0.12642736E+04</pdfrwt>
<totfact> 0.66147414E+01</totfact>
</mgrwt>
</event>
<event>
 6    1  0.2325157E-005  0.2555515E+04  0.7818608E-02  0.8383471E-01
         -2   -1    0    0    0  501 -0.00000000000E+00  0.00000000000E+00  0.84815418113E+03  0.84815418113E+03  0.00000000000E+00 0. -1.
          2   -1    0    0  501    0  0.00000000000E+00 -0.00000000000E+00 -0.19249618289E+04  0.19249618289E+04  0.00000000000E+00 0.  1.
         23    2    1    2    0    0  0.10265882052E+04  0.15752015269E+03 -0.13435595789E+04  0.17008042389E+04  0.94269696129E+02 0.  0.
         13    1    3    3    0    0  0.75377513058E+03  0.12028439859E+03 -0.10523664163E+04  0.13000462908E+04  0.00000000000E+00 0.  1.
        -13    1    3    3    0    0  0.27281307465E+03  0.37235754103E+02 -0.29119316256E+03  0.40075794815E+03  0.00000000000E+00 0. -1.
         22    1    1    2    0    0 -0.10265882052E+04 -0.15752015269E+03  0.26675193111E+03  0.10723117711E+04  0.00000000000E+00 0. -1.
<mgrwt>
<rscale>  0 0.25555152E+04</rscale>
<asrwt>0</asrwt>
<pdfrwt beam="1">  1        2 0.29614797E+00 0.25555152E+04</pdfrwt>
<pdfrwt beam="2">  1       -2 0.13048526E+00 0.25555152E+04</pdfrwt>
<totfact> 0.28093960E+00</totfact>
</mgrwt>
</event>
<event>
 6    1  0.2325157E-005  0.2219754E+04  0.7818608E-02  0.8510251E-01
         -2   -1    0    0    0  501 -0.00000000000E+00  0.00000000000E+00  0.12137137931E+04  0.12137137931E+04  0.00000000000E+00 0. -1.
          2   -1    0    0  501    0  0.00000000000E+00 -0.00000000000E+00 -0.10149240053E+04  0.10149240053E+04  0.00000000000E+00 0.  1.
         23    2    1    2    0    0  0.24080169217E+03 -0.94086160340E+03  0.63512064588E+03  0.11639356667E+04  0.90343730099E+02 0.  0.
         11    1    3    3    0    0  0.16051832889E+03 -0.72002767207E+03  0.44367934802E+03  0.86084687739E+03  0.00000000000E+00 0. -1.
        -11    1    3    3    0    0  0.80283363282E+02 -0.22083393133E+03  0.19144129786E+03  0.30308878926E+03  0.00000000000E+00 0.  1.
         22    1    1    2    0    0 -0.24080169217E+03  0.94086160340E+03 -0.43633085800E+03  0.10647021317E+04  0.00000000000E+00 0. -1.
<mgrwt>
<rscale>  0 0.22197543E+04</rscale>
<asrwt>0</asrwt>
<pdfrwt beam="1">  1        2 0.15614215E+00 0.22197543E+04</pdfrwt>
<pdfrwt beam="2">  1       -2 0.18672520E+00 0.22197543E+04</pdfrwt>
<totfact> 0.36663255E+00</totfact>
</mgrwt>
</event>
<event>
 6    1  0.2325157E-005  0.1694497E+04  0.7818608E-02  0.8764509E-01
         -2   -1    0    0    0  501 -0.00000000000E+00  0.00000000000E+00  0.87736225536E+03  0.87736225536E+03  0.00000000000E+00 0. -1.
          2   -1    0    0  501    0  0.00000000000E+00 -0.00000000000E+00 -0.81816852990E+03  0.81816852990E+03  0.00000000000E+00 0.  1.
         23    2    1    2    0    0  0.47086367059E+03 -0.49189032387E+03 -0.47062078819E+03  0.83276076616E+03  0.91311994698E+02 0.  0.
         13    1    3    3    0    0  0.30119199864E+03 -0.37457408573E+03 -0.33575420398E+03  0.58630474264E+03  0.00000000000E+00 0. -1.
        -13    1    3    3    0    0  0.16967167195E+03 -0.11731623813E+03 -0.13486658422E+03  0.24645602352E+03  0.00000000000E+00 0.  1.
         22    1    1    2    0    0 -0.47086367059E+03  0.49189032387E+03  0.52981451365E+03  0.86277001910E+03  0.00000000000E+00 0. -1.
<mgrwt>
<rscale>  0 0.16944972E+04</rscale>
<asrwt>0</asrwt>
<pdfrwt beam="1">  1        2 0.12587208E+00 0.16944972E+04</pdfrwt>
<pdfrwt beam="2">  1       -2 0.13497881E+00 0.16944972E+04</pdfrwt>
<totfact> 0.12555516E+01</totfact>
</mgrwt>
</event>
<event>
 6    1  0.2325157E-005  0.4167844E+04  0.7818608E-02  0.7971517E-01
         -2   -1    0    0    0  501 -0.00000000000E+00  0.00000000000E+00  0.17183599470E+04  0.17183599470E+04  0.00000000000E+00 0. -1.
          2   -1    0    0  501    0  0.00000000000E+00 -0.00000000000E+00 -0.25272530103E+04  0.25272530103E+04  0.00000000000E+00 0.  1.
         23    2    1    2    0    0  0.71536340535E+03  0.24576772279E+03 -0.23815953341E+04  0.25004656834E+04  0.90474986263E+02 0.  0.
         13    1    3    3    0    0  0.44717713495E+03  0.16994251922E+03 -0.13669585817E+04  0.14482484641E+04  0.00000000000E+00 0.  1.
        -13    1    3    3    0    0  0.26818627040E+03  0.75825203562E+02 -0.10146367524E+04  0.10522172192E+04  0.00000000000E+00 0. -1.
         22    1    1    2    0    0 -0.71536340535E+03 -0.24576772279E+03  0.15727022708E+04  0.17451472739E+04  0.00000000000E+00 0. -1.
<mgrwt>
<rscale>  0 0.41678437E+04</rscale>
<asrwt>0</asrwt>
<pdfrwt beam="1">  1        2 0.38880816E+00 0.41678437E+04</pdfrwt>
<pdfrwt beam="2">  1       -2 0.26436307E+00 0.41678437E+04</pdfrwt>
<totfact> 0.13706098E-01</totfact>
</mgrwt>
</event>
<event>
 6    1  0.2325157E-005  0.2634624E+04  0.7818608E-02  0.8356535E-01
         -2   -1    0    0    0  501 -0.00000000000E+00  0.00000000000E+00  0.75662148020E+03  0.75662148020E+03  0.00000000000E+00 0. -1.
          2   -1    0    0  501    0  0.00000000000E+00 -0.00000000000E+00 -0.22934991304E+04  0.22934991304E+04  0.00000000000E+00 0.  1.
         23    2    1    2    0    0 -0.64471511482E+03 -0.99907349145E+02  0.55345087803E+03  0.86034609854E+03  0.90821127490E+02 0.  0.
         13    1    3    3    0    0 -0.47964181923E+03 -0.38312599671E+02  0.42890875495E+03  0.64458269455E+03  0.00000000000E+00 0. -1.
        -13    1    3    3    0    0 -0.16507329559E+03 -0.61594749474E+02  0.12454212308E+03  0.21576340399E+03  0.00000000000E+00 0.  1.
         22    1    1    2    0    0  0.64471511482E+03  0.99907349145E+02 -0.20903285283E+04  0.21897745121E+04  0.00000000000E+00 0.  1.
<mgrwt>
<rscale>  0 0.26346238E+04</rscale>
<asrwt>0</asrwt>
<pdfrwt beam="1">  1        2 0.35284602E+00 0.26346238E+04</pdfrwt>
<pdfrwt beam="2">  1       -2 0.11640330E+00 0.26346238E+04</pdfrwt>
<totfact> 0.23081466E+00</totfact>
</mgrwt>
</event>
<event>
 6    1  0.2325157E-005  0.3131500E+04  0.7818608E-02  0.8207146E-01
          2   -1    0    0  501    0  0.00000000000E+00  0.00000000000E+00  0.16327398551E+04  0.16327398551E+04  0.00000000000E+00 0. -1.
         -2   -1    0    0    0  501 -0.00000000000E+00 -0.00000000000E+00 -0.15015086039E+04  0.15015086039E+04  0.00000000000E+00 0.  1.
         23    2    1    2    0    0 -0.13659217145E+02  0.79064960563E+03  0.14166794313E+04  0.16250465517E+04  0.92099462517E+02 0.  0.
         13    1    3    3    0    0  0.25606921266E+02  0.49264766379E+03  0.93821122696E+03  0.10599989346E+04  0.00000000000E+00 0.  1.
        -13    1    3    3    0    0 -0.39266138410E+02  0.29800194183E+03  0.47846820438E+03  0.56504761708E+03  0.00000000000E+00 0. -1.
         22    1    1    2    0    0  0.13659217145E+02 -0.79064960563E+03 -0.12854481801E+04  0.15092019073E+04  0.00000000000E+00 0.  1.
<mgrwt>
<rscale>  0 0.31314999E+04</rscale>
<asrwt>0</asrwt>
<pdfrwt beam="1">  1        2 0.25119075E+00 0.31314999E+04</pdfrwt>
<pdfrwt beam="2">  1       -2 0.23100132E+00 0.31314999E+04</pdfrwt>
<totfact> 0.76304561E-01</totfact>
</mgrwt>
</event>
<event>
 6    1  0.2325157E-005  0.2633673E+04  0.7818608E-02  0.8356853E-01
          2   -1    0    0  501    0  0.00000000000E+00  0.00000000000E+00  0.18770866095E+04  0.18770866095E+04  0.00000000000E+00 0.  1.
         -2   -1    0    0    0  501 -0.00000000000E+00 -0.00000000000E+00 -0.92380279116E+03  0.92380279116E+03  0.00000000000E+00 0. -1.
         23    2    1    2    0    0 -0.99863021901E+01 -0.88041281931E+03 -0.56189381281E+03  0.10484654472E+04  0.91261593844E+02 0.  0.
         11    1    3    3    0    0  0.35591623919E+02 -0.20641406111E+03 -0.12385772459E+03  0.24333981231E+03  0.00000000000E+00 0. -1.
        -11    1    3    3    0    0 -0.45577926109E+02 -0.67399875821E+03 -0.43803608822E+03  0.80512563491E+03  0.00000000000E+00 0.  1.
         22    1    1    2    0    0  0.99863021901E+01  0.88041281931E+03  0.15151776312E+04  0.17524239535E+04  0.00000000000E+00 0.  1.
<mgrwt>
<rscale>  0 0.26336726E+04</rscale>
<asrwt>0</asrwt>
<pdfrwt beam="1">  1        2 0.28878256E+00 0.26336726E+04</pdfrwt>
<pdfrwt beam="2">  1       -2 0.14212351E+00 0.26336726E+04</pdfrwt>
<totfact> 0.23821688E+00</totfact>
</mgrwt>
</event>
<event>
 6    1  0.2325157E-005  0.2582552E+04  0.7818608E-02  0.8374152E-01
         -1   -1    0    0    0  501 -0.00000000000E+00  0.00000000000E+00  0.11425746565E+04  0.11425746565E+04  0.00000000000E+00 0. -1.
          1   -1    0    0  501    0  0.00000000000E+00 -0.00000000000E+00 -0.14593298762E+04  0.14593298762E+04  0.00000000000E+00 0.  1.
         23    2    1    2    0    0  0.69354738009E+03 -0.20958556799E+03 -0.12334207651E+04  0.14334826052E+04  0.92798258975E+02 0.  0.
         11    1    3    3    0    0  0.11945596398E+03 -0.34059176615E+01 -0.17612189526E+03  0.21283855289E+03  0.00000000000E+00 0.  1.
        -11    1    3    3    0    0  0.57409141611E+03 -0.20617965032E+03 -0.10572988698E+04  0.12206440523E+04  0.00000000000E+00 0. -1.
         22    1    1    2    0    0 -0.69354738009E+03  0.20958556799E+03  0.91666554537E+03  0.11684219276E+04  0.00000000000E+00 0. -1.
<mgrwt>
<rscale>  0 0.25825517E+04</rscale>
<asrwt>0</asrwt>
<pdfrwt beam="1">  1        1 0.22451229E+00 0.25825517E+04</pdfrwt>
<pdfrwt beam="2">  1       -1 0.17578072E+00 0.25825517E+04</pdfrwt>
<totfact> 0.13749955E+00</totfact>
</mgrwt>
</event>
<event>
 6    1  0.2925134E-005  0.1998243E+04  0.7818608E-02  0.8607442E-01
         -2   -1    0    0    0  501 -0.00000000000E+00  0.00000000000E+00  0.11724919377E+04  0.11724919377E+04  0.00000000000E+00 0. -1.
          2   -1    0    0  501    0  0.00000000000E+00 -0.00000000000E+00 -0.85138681982E+03  0.85138681982E+03  0.00000000000E+00 0.  1.
         23    2    1    2    0    0 -0.99356359307E+03  0.87113679911E+02  0.16504842343E+03  0.10143684314E+04  0.83336221326E+02 0.  0.
         13    1    3    3    0    0 -0.23171739351E+03  0.47398713609E+02  0.62435440014E+02  0.24461760500E+03  0.00000000000E+00 0. -1.
        -13    1    3    3    0    0 -0.76184619956E+03  0.39714966303E+02  0.10261298342E+03  0.76975082638E+03  0.00000000000E+00 0.  1.
         22    1    1    2    0    0  0.99356359307E+03 -0.87113679911E+02  0.15605669444E+03  0.10095103261E+04  0.00000000000E+00 0.  1.
<mgrwt>
<rscale>  0 0.19982434E+04</rscale>
<asrwt>0</asrwt>
<pdfrwt beam="1">  1        2 0.13098259E+00 0.19982434E+04</pdfrwt>
<pdfrwt beam="2">  1       -2 0.18038338E+00 0.19982434E+04</pdfrwt>
<totfact> 0.53009427E+00</totfact>
</mgrwt>
</event>
<event>
 6    1  0.2325157E-005  0.2478628E+04  0.7818608E-02  0.8410639E-01
         -2   -1    0    0    0  501 -0.00000000000E+00  0.00000000000E+00  0.35212133130E+03  0.35212133130E+03  0.00000000000E+00 0. -1.
          2   -1    0    0  501    0  0.00000000000E+00 -0.00000000000E+00 -0.43618473932E+04  0.43618473932E+04  0.00000000000E+00 0.  1.
         23    2    1    2    0    0 -0.86124363758E+03  0.88881098539E+03 -0.20135689136E+04  0.23652735694E+04  0.91289194934E+02 0.  0.
         11    1    3    3    0    0 -0.43261641546E+03  0.50928951878E+03 -0.11085099547E+04  0.12943442728E+04  0.00000000000E+00 0.  1.
        -11    1    3    3    0    0 -0.42862722212E+03  0.37952146661E+03 -0.90505895895E+03  0.10709292966E+04  0.00000000000E+00 0. -1.
         22    1    1    2    0    0  0.86124363758E+03 -0.88881098539E+03 -0.19961571483E+04  0.23486951551E+04  0.00000000000E+00 0. -1.
<mgrwt>
<rscale>  0 0.24786283E+04</rscale>
<asrwt>0</asrwt>
<pdfrwt beam="1">  1        2 0.67105342E+00 0.24786283E+04</pdfrwt>
<pdfrwt beam="2">  1       -2 0.54172514E-01 0.24786283E+04</pdfrwt>
<totfact> 0.48011276E-01</totfact>
</mgrwt>
</event>
<event>
 6    1  0.2325157E-005  0.1435329E+04  0.7818608E-02  0.8928635E-01
          2   -1    0    0  501    0  0.00000000000E+00  0.00000000000E+00  0.12532521561E+04  0.12532521561E+04  0.00000000000E+00 0.  1.
         -2   -1    0    0    0  501 -0.00000000000E+00 -0.00000000000E+00 -0.41096458286E+03  0.41096458286E+03  0.00000000000E+00 0. -1.
         23    2    1    2    0    0  0.43331825274E+03  0.13919359071E+03 -0.21547368978E+03  0.51269667688E+03  0.96381573120E+02 0.  0.
         11    1    3    3    0    0  0.92196001696E+02  0.57374993423E+02 -0.17804808937E+02  0.11004091885E+03  0.00000000000E+00 0. -1.
        -11    1    3    3    0    0  0.34112225105E+03  0.81818597288E+02 -0.19766888084E+03  0.40265575803E+03  0.00000000000E+00 0.  1.
         22    1    1    2    0    0 -0.43331825274E+03 -0.13919359071E+03  0.10577612630E+04  0.11515200621E+04  0.00000000000E+00 0.  1.
<mgrwt>
<rscale>  0 0.14353289E+04</rscale>
<asrwt>0</asrwt>
<pdfrwt beam="1">  1        2 0.19280802E+00 0.14353289E+04</pdfrwt>
<pdfrwt beam="2">  1       -2 0.63225321E-01 0.14353289E+04</pdfrwt>
<totfact> 0.39607254E+01</totfact>
</mgrwt>
</event>
<event>
 6    1  0.2325157E-005  0.1054486E+04  0.7818608E-02  0.9250725E-01
         -2   -1    0    0    0  501 -0.00000000000E+00  0.00000000000E+00  0.86744123191E+02  0.86744123191E+02  0.00000000000E+00 0. -1.
          2   -1    0    0  501    0  0.00000000000E+00 -0.00000000000E+00 -0.32046584634E+04  0.32046584634E+04  0.00000000000E+00 0.  1.
         23    2    1    2    0    0 -0.51553416898E+03  0.91330444583E+02 -0.15255711832E+04  0.16151945269E+04  0.85844017941E+02 0.  0.
         13    1    3    3    0    0 -0.31835075102E+03  0.93246353277E+02 -0.10168718004E+04  0.10696122388E+04  0.00000000000E+00 0. -1.
        -13    1    3    3    0    0 -0.19718341796E+03 -0.19159086937E+01 -0.50869938278E+03  0.54558228808E+03  0.00000000000E+00 0.  1.
         22    1    1    2    0    0  0.51553416898E+03 -0.91330444583E+02 -0.15923431570E+04  0.16762080597E+04  0.00000000000E+00 0.  1.
<mgrwt>
<rscale>  0 0.10544862E+04</rscale>
<asrwt>0</asrwt>
<pdfrwt beam="1">  1        2 0.49302429E+00 0.10544862E+04</pdfrwt>
<pdfrwt beam="2">  1       -2 0.13345252E-01 0.10544862E+04</pdfrwt>
<totfact> 0.56268122E+01</totfact>
</mgrwt>
</event>
<event>
 6    1  0.2325157E-005  0.2760158E+04  0.7818608E-02  0.8315745E-01
          2   -1    0    0  501    0  0.00000000000E+00  0.00000000000E+00  0.27213961692E+04  0.27213961692E+04  0.00000000000E+00 0.  1.
         -2   -1    0    0    0  501 -0.00000000000E+00 -0.00000000000E+00 -0.69986815652E+03  0.69986815652E+03  0.00000000000E+00 0. -1.
         23    2    1    2    0    0 -0.25787556137E+03  0.38017919534E+03 -0.59923235870E+03  0.76054619898E+03  0.91187034971E+02 0.  0.
         13    1    3    3    0    0 -0.66927654319E+02  0.39375249992E+02 -0.95403882116E+02  0.12301065786E+03  0.00000000000E+00 0.  1.
        -13    1    3    3    0    0 -0.19094790706E+03  0.34080394535E+03 -0.50382847659E+03  0.63753554112E+03  0.00000000000E+00 0. -1.
         22    1    1    2    0    0  0.25787556137E+03 -0.38017919534E+03  0.26207603714E+04  0.26607181268E+04  0.00000000000E+00 0.  1.
<mgrwt>
<rscale>  0 0.27601583E+04</rscale>
<asrwt>0</asrwt>
<pdfrwt beam="1">  1        2 0.41867633E+00 0.27601583E+04</pdfrwt>
<pdfrwt beam="2">  1       -2 0.10767203E+00 0.27601583E+04</pdfrwt>
<totfact> 0.15569974E+00</totfact>
</mgrwt>
</event>
<event>
 6    1  0.2325157E-005  0.9662806E+03  0.7818608E-02  0.9346321E-01
         -4   -1    0    0    0  501 -0.00000000000E+00  0.00000000000E+00  0.17426005340E+04  0.17426005340E+04  0.00000000000E+00 0. -1.
          4   -1    0    0  501    0  0.00000000000E+00 -0.00000000000E+00 -0.13395183240E+03  0.13395183240E+03  0.00000000000E+00 0.  1.
         23    2    1    2    0    0 -0.10254997499E+03 -0.27762462462E+03  0.81092425846E+02  0.32058960811E+03  0.92788931101E+02 0.  0.
         11    1    3    3    0    0 -0.30682096287E+02 -0.70662682551E+02 -0.19573447878E+02  0.79484121683E+02  0.00000000000E+00 0. -1.
        -11    1    3    3    0    0 -0.71867878700E+02 -0.20696194207E+03  0.10066587372E+03  0.24110548643E+03  0.00000000000E+00 0.  1.
         22    1    1    2    0    0  0.10254997499E+03  0.27762462462E+03  0.15275562758E+04  0.15559627583E+04  0.00000000000E+00 0. -1.
<mgrwt>
<rscale>  0 0.96628057E+03</rscale>
<asrwt>0</asrwt>
<pdfrwt beam="1">  1        4 0.20607975E-01 0.96628057E+03</pdfrwt>
<pdfrwt beam="2">  1       -4 0.26809237E+00 0.96628057E+03</pdfrwt>
<totfact> 0.21529254E+00</totfact>
</mgrwt>
</event>
<event>
 6    1  0.2325157E-005  0.1693929E+04  0.7818608E-02  0.8764835E-01
         -2   -1    0    0    0  501 -0.00000000000E+00  0.00000000000E+00  0.29132190060E+03  0.29132190060E+03  0.00000000000E+00 0. -1.
          2   -1    0    0  501    0  0.00000000000E+00 -0.00000000000E+00 -0.24623920765E+04  0.24623920765E+04  0.00000000000E+00 0.  1.
         23    2    1    2    0    0 -0.38301465937E+03 -0.56668887222E+03 -0.28315584034E+03  0.74571570879E+03  0.89878702829E+02 0.  0.
         11    1    3    3    0    0 -0.23733331908E+03 -0.41465503642E+03 -0.17341595803E+03  0.50827059532E+03  0.00000000000E+00 0.  1.
        -11    1    3    3    0    0 -0.14568134030E+03 -0.15203383580E+03 -0.10973988231E+03  0.23744511347E+03  0.00000000000E+00 0. -1.
         22    1    1    2    0    0  0.38301465937E+03  0.56668887222E+03 -0.18879143356E+04  0.20079982684E+04  0.00000000000E+00 0.  1.
<mgrwt>
<rscale>  0 0.16939289E+04</rscale>
<asrwt>0</asrwt>
<pdfrwt beam="1">  1        2 0.37882956E+00 0.16939289E+04</pdfrwt>
<pdfrwt beam="2">  1       -2 0.44818753E-01 0.16939289E+04</pdfrwt>
<totfact> 0.16474820E+01</totfact>
</mgrwt>
</event>
<event>
 6    1  0.2325157E-005  0.1715533E+04  0.7818608E-02  0.8752555E-01
         -2   -1    0    0    0  501 -0.00000000000E+00  0.00000000000E+00  0.41685845733E+03  0.41685845733E+03  0.00000000000E+00 0. -1.
          2   -1    0    0  501    0  0.00000000000E+00 -0.00000000000E+00 -0.17650186502E+04  0.17650186502E+04  0.00000000000E+00 0.  1.
         23    2    1    2    0    0  0.28691206676E+03 -0.56541769931E+03 -0.14061435048E+04  0.15451842670E+04  0.91318969209E+02 0.  0.
         13    1    3    3    0    0  0.24026911558E+03 -0.51501591938E+03 -0.12996193099E+04  0.14184431592E+04  0.00000000000E+00 0.  1.
        -13    1    3    3    0    0  0.46642951183E+02 -0.50401779929E+02 -0.10652419488E+03  0.12674110781E+03  0.00000000000E+00 0. -1.
         22    1    1    2    0    0 -0.28691206676E+03  0.56541769931E+03  0.57983311914E+02  0.63669284055E+03  0.00000000000E+00 0. -1.
<mgrwt>
<rscale>  0 0.17155325E+04</rscale>
<asrwt>0</asrwt>
<pdfrwt beam="1">  1        2 0.27154133E+00 0.17155325E+04</pdfrwt>
<pdfrwt beam="2">  1       -2 0.64132070E-01 0.17155325E+04</pdfrwt>
<totfact> 0.19269444E+01</totfact>
</mgrwt>
</event>
<event>
 6    1  0.2325157E-005  0.1805877E+04  0.7818608E-02  0.8703180E-01
          2   -1    0    0  501    0  0.00000000000E+00  0.00000000000E+00  0.28280446680E+04  0.28280446680E+04  0.00000000000E+00 0.  1.
         -2   -1    0    0    0  501 -0.00000000000E+00 -0.00000000000E+00 -0.28829040978E+03  0.28829040978E+03  0.00000000000E+00 0. -1.
         23    2    1    2    0    0 -0.40444731500E+03  0.62470128234E+03  0.21485078225E+04  0.22755597830E+04  0.90868806645E+02 0.  0.
         11    1    3    3    0    0 -0.23833023264E+03  0.43777241914E+03  0.13686909549E+04  0.14566265550E+04  0.00000000000E+00 0. -1.
        -11    1    3    3    0    0 -0.16611708237E+03  0.18692886320E+03  0.77981686763E+03  0.81893322804E+03  0.00000000000E+00 0.  1.
         22    1    1    2    0    0  0.40444731500E+03 -0.62470128234E+03  0.39124643567E+03  0.84077529471E+03  0.00000000000E+00 0. -1.
<mgrwt>
<rscale>  0 0.18058772E+04</rscale>
<asrwt>0</asrwt>
<pdfrwt beam="1">  1        2 0.43508378E+00 0.18058772E+04</pdfrwt>
<pdfrwt beam="2">  1       -2 0.44352373E-01 0.18058772E+04</pdfrwt>
<totfact> 0.10142772E+01</totfact>
</mgrwt>
</event>
<event>
 6    1  0.2325157E-005  0.1473152E+04  0.7818608E-02  0.8902506E-01
         -1   -1    0    0    0  501 -0.00000000000E+00  0.00000000000E+00  0.89791654339E+03  0.89791654339E+03  0.00000000000E+00 0. -1.
          1   -1    0    0  501    0  0.00000000000E+00 -0.00000000000E+00 -0.60422526745E+03  0.60422526745E+03  0.00000000000E+00 0.  1.
         23    2    1    2    0    0 -0.43392857317E+03  0.58970407643E+03  0.96655270752E+02  0.74394124918E+03  0.89785502742E+02 0.  0.
         11    1    3    3    0    0 -0.34749233078E+02  0.68331026829E+02  0.35442130055E+02  0.84455805068E+02  0.00000000000E+00 0. -1.
        -11    1    3    3    0    0 -0.39917934009E+03  0.52137304960E+03  0.61213140698E+02  0.65948544411E+03  0.00000000000E+00 0.  1.
         22    1    1    2    0    0  0.43392857317E+03 -0.58970407643E+03  0.19703600519E+03  0.75820056166E+03  0.00000000000E+00 0. -1.
<mgrwt>
<rscale>  0 0.14731515E+04</rscale>
<asrwt>0</asrwt>
<pdfrwt beam="1">  1        1 0.92957733E-01 0.14731515E+04</pdfrwt>
<pdfrwt beam="2">  1       -1 0.13814101E+00 0.14731515E+04</pdfrwt>
<totfact> 0.14268032E+01</totfact>
</mgrwt>
</event>
<event>
 6    1  0.3384078E-005  0.4768158E+04  0.7818608E-02  0.7865301E-01
         -2   -1    0    0    0  501 -0.00000000000E+00  0.00000000000E+00  0.24876477192E+04  0.24876477192E+04  0.00000000000E+00 0. -1.
          2   -1    0    0  501    0  0.00000000000E+00 -0.00000000000E+00 -0.22848221816E+04  0.22848221816E+04  0.00000000000E+00 0.  1.
         23    2    1    2    0    0 -0.90193434208E+03 -0.21984072826E+04 -0.80449858261E+02  0.23794122150E+04  0.93006298890E+02 0.  0.
         11    1    3    3    0    0 -0.42414070915E+03 -0.11333804375E+04 -0.13847859918E+02  0.12102224260E+04  0.00000000000E+00 0. -1.
        -11    1    3    3    0    0 -0.47779363293E+03 -0.10650268452E+04 -0.66601998344E+02  0.11691897890E+04  0.00000000000E+00 0.  1.
         22    1    1    2    0    0  0.90193434208E+03  0.21984072826E+04  0.28327539584E+03  0.23930576858E+04  0.00000000000E+00 0.  1.
<mgrwt>
<rscale>  0 0.47681580E+04</rscale>
<asrwt>0</asrwt>
<pdfrwt beam="1">  1        2 0.35151111E+00 0.47681580E+04</pdfrwt>
<pdfrwt beam="2">  1       -2 0.38271503E+00 0.47681580E+04</pdfrwt>
<totfact> 0.32982331E-02</totfact>
</mgrwt>
</event>
<event>
 6    1  0.2325157E-005  0.9978738E+03  0.7818608E-02  0.9310880E-01
          2   -1    0    0  501    0  0.00000000000E+00  0.00000000000E+00  0.51800622986E+03  0.51800622986E+03  0.00000000000E+00 0.  1.
         -2   -1    0    0    0  501 -0.00000000000E+00 -0.00000000000E+00 -0.48056959249E+03  0.48056959249E+03  0.00000000000E+00 0. -1.
         23    2    1    2    0    0 -0.14451599482E+03  0.21121947404E+03 -0.40526733957E+03  0.48721943961E+03  0.87422118730E+02 0.  0.
         13    1    3    3    0    0 -0.54856974174E+02  0.14569803734E+03 -0.19593158770E+03  0.25025265785E+03  0.00000000000E+00 0.  1.
        -13    1    3    3    0    0 -0.89659020646E+02  0.65521436697E+02 -0.20933575187E+03  0.23696678177E+03  0.00000000000E+00 0. -1.
         22    1    1    2    0    0  0.14451599482E+03 -0.21121947404E+03  0.44270397694E+03  0.51135638274E+03  0.00000000000E+00 0.  1.
<mgrwt>
<rscale>  0 0.99787383E+03</rscale>
<asrwt>0</asrwt>
<pdfrwt beam="1">  1        2 0.79693267E-01 0.99787383E+03</pdfrwt>
<pdfrwt beam="2">  1       -2 0.73933783E-01 0.99787383E+03</pdfrwt>
<totfact> 0.97320149E+01</totfact>
</mgrwt>
</event>
<event>
 6    1  0.2325157E-005  0.4751118E+04  0.7818608E-02  0.7868090E-01
          2   -1    0    0  501    0  0.00000000000E+00  0.00000000000E+00  0.48929622450E+04  0.48929622450E+04  0.00000000000E+00 0.  1.
         -2   -1    0    0    0  501 -0.00000000000E+00 -0.00000000000E+00 -0.11533465191E+04  0.11533465191E+04  0.00000000000E+00 0. -1.
         23    2    1    2    0    0  0.18725556827E+04 -0.13549469676E+04  0.25639583254E+04  0.34531415128E+04  0.89207306086E+02 0.  0.
         11    1    3    3    0    0  0.16631886574E+04 -0.12037740836E+04  0.22340150746E+04  0.30341542327E+04  0.00000000000E+00 0. -1.
        -11    1    3    3    0    0  0.20936702527E+03 -0.15117288399E+03  0.32994325082E+03  0.41898728010E+03  0.00000000000E+00 0.  1.
         22    1    1    2    0    0 -0.18725556827E+04  0.13549469676E+04  0.11756574004E+04  0.25931672512E+04  0.00000000000E+00 0. -1.
<mgrwt>
<rscale>  0 0.47511182E+04</rscale>
<asrwt>0</asrwt>
<pdfrwt beam="1">  1        2 0.75276341E+00 0.47511182E+04</pdfrwt>
<pdfrwt beam="2">  1       -2 0.17743793E+00 0.47511182E+04</pdfrwt>
<totfact> 0.64203515E-03</totfact>
</mgrwt>
</event>
<event>
 6    1  0.2325157E-005  0.2251773E+04  0.7818608E-02  0.8497183E-01
          2   -1    0    0  501    0  0.00000000000E+00  0.00000000000E+00  0.69963455121E+03  0.69963455121E+03  0.00000000000E+00 0.  1.
         -2   -1    0    0    0  501 -0.00000000000E+00 -0.00000000000E+00 -0.18118318596E+04  0.18118318596E+04  0.00000000000E+00 0. -1.
         23    2    1    2    0    0 -0.20259597761E+03 -0.97432777111E+02 -0.17852725751E+04  0.18018407413E+04  0.94305957130E+02 0.  0.
         13    1    3    3    0    0 -0.91880061710E+02 -0.13309881753E+02 -0.45871551857E+03  0.46801605279E+03  0.00000000000E+00 0. -1.
        -13    1    3    3    0    0 -0.11071591590E+03 -0.84122895358E+02 -0.13265570565E+04  0.13338246886E+04  0.00000000000E+00 0.  1.
         22    1    1    2    0    0  0.20259597761E+03  0.97432777111E+02  0.67307526668E+03  0.70962566950E+03  0.00000000000E+00 0.  1.
<mgrwt>
<rscale>  0 0.22517728E+04</rscale>
<asrwt>0</asrwt>
<pdfrwt beam="1">  1        2 0.10763609E+00 0.22517728E+04</pdfrwt>
<pdfrwt beam="2">  1       -2 0.27874336E+00 0.22517728E+04</pdfrwt>
<totfact> 0.15997441E+00</totfact>
</mgrwt>
</event>
<event>
 6    1  0.2325157E-005  0.4528664E+04  0.7818608E-02  0.7905638E-01
          2   -1    0    0  501    0  0.00000000000E+00  0.00000000000E+00  0.14169571899E+04  0.14169571899E+04  0.00000000000E+00 0.  1.
         -2   -1    0    0    0  501 -0.00000000000E+00 -0.00000000000E+00 -0.36184581185E+04  0.36184581185E+04  0.00000000000E+00 0. -1.
         23    2    1    2    0    0 -0.78237843432E+03  0.66242511034E+03  0.11431462314E+04  0.15371889482E+04  0.72412118277E+02 0.  0.
         13    1    3    3    0    0 -0.56981662324E+03  0.44046296778E+03  0.81380087876E+03  0.10867246571E+04  0.00000000000E+00 0. -1.
        -13    1    3    3    0    0 -0.21256181108E+03  0.22196214256E+03  0.32934535266E+03  0.45046429112E+03  0.00000000000E+00 0.  1.
         22    1    1    2    0    0  0.78237843432E+03 -0.66242511034E+03 -0.33446471601E+04  0.34982263601E+04  0.00000000000E+00 0. -1.
<mgrwt>
<rscale>  0 0.45286644E+04</rscale>
<asrwt>0</asrwt>
<pdfrwt beam="1">  1        2 0.21799342E+00 0.45286644E+04</pdfrwt>
<pdfrwt beam="2">  1       -2 0.55668585E+00 0.45286644E+04</pdfrwt>
<totfact> 0.84968934E-03</totfact>
</mgrwt>
</event>
<event>
 6    1  0.2325157E-005  0.7151381E+03  0.7818608E-02  0.9691689E-01
         -2   -1    0    0    0  501 -0.00000000000E+00  0.00000000000E+00  0.45516267330E+03  0.45516267330E+03  0.00000000000E+00 0. -1.
          2   -1    0    0  501    0  0.00000000000E+00 -0.00000000000E+00 -0.28090098180E+03  0.28090098180E+03  0.00000000000E+00 0.  1.
         23    2    1    2    0    0  0.18358219640E+03 -0.19089300955E+03  0.32679580625E+03  0.43043443514E+03  0.91300274055E+02 0.  0.
         13    1    3    3    0    0  0.55812608313E+02 -0.10670849777E+03  0.19133781090E+03  0.22607942990E+03  0.00000000000E+00 0. -1.
        -13    1    3    3    0    0  0.12776958809E+03 -0.84184511778E+02  0.13545799535E+03  0.20435500524E+03  0.00000000000E+00 0.  1.
         22    1    1    2    0    0 -0.18358219640E+03  0.19089300955E+03 -0.15253411475E+03  0.30562921996E+03  0.00000000000E+00 0.  1.
<mgrwt>
<rscale>  0 0.71513815E+03</rscale>
<asrwt>0</asrwt>
<pdfrwt beam="1">  1        2 0.43215536E-01 0.71513815E+03</pdfrwt>
<pdfrwt beam="2">  1       -2 0.70025027E-01 0.71513815E+03</pdfrwt>
<totfact> 0.22158570E+02</totfact>
</mgrwt>
</event>
<event>
 6    1  0.2325157E-005  0.1785281E+04  0.7818608E-02  0.8714166E-01
         -2   -1    0    0    0  501 -0.00000000000E+00  0.00000000000E+00  0.92777392293E+03  0.92777392293E+03  0.00000000000E+00 0. -1.
          2   -1    0    0  501    0  0.00000000000E+00 -0.00000000000E+00 -0.85883759179E+03  0.85883759179E+03  0.00000000000E+00 0.  1.
         23    2    1    2    0    0  0.75540021229E+02  0.72951506516E+03  0.53942619591E+03  0.91525668576E+03  0.93891718921E+02 0.  0.
         13    1    3    3    0    0  0.88130485499E+02  0.48152421317E+03  0.32935471847E+03  0.59000600075E+03  0.00000000000E+00 0. -1.
        -13    1    3    3    0    0 -0.12590464271E+02  0.24799085199E+03  0.21007147745E+03  0.32525068501E+03  0.00000000000E+00 0.  1.
         22    1    1    2    0    0 -0.75540021229E+02 -0.72951506516E+03 -0.47048986477E+03  0.87135482896E+03  0.00000000000E+00 0.  1.
<mgrwt>
<rscale>  0 0.17852811E+04</rscale>
<asrwt>0</asrwt>
<pdfrwt beam="1">  1        2 0.13212886E+00 0.17852811E+04</pdfrwt>
<pdfrwt beam="2">  1       -2 0.14273445E+00 0.17852811E+04</pdfrwt>
<totfact> 0.10097482E+01</totfact>
</mgrwt>
</event>
<event>
 6    1  0.2325157E-005  0.2182975E+04  0.7818608E-02  0.8525548E-01
         -2   -1    0    0    0  501 -0.00000000000E+00  0.00000000000E+00  0.42191145011E+03  0.42191145011E+03  0.00000000000E+00 0. -1.
          2   -1    0    0  501    0  0.00000000000E+00 -0.00000000000E+00 -0.28236835750E+04  0.28236835750E+04  0.00000000000E+00 0.  1.
         23    2    1    2    0    0  0.89658681925E+03  0.11128091207E+03 -0.29751365576E+03  0.95558300096E+03  0.91504811508E+02 0.  0.
         13    1    3    3    0    0  0.60973547742E+03  0.36109303951E+02 -0.18201497014E+03  0.63734659614E+03  0.00000000000E+00 0.  1.
        -13    1    3    3    0    0  0.28685134183E+03  0.75171608121E+02 -0.11549868562E+03  0.31823640483E+03  0.00000000000E+00 0. -1.
         22    1    1    2    0    0 -0.89658681925E+03 -0.11128091207E+03 -0.21042584691E+04  0.22900120241E+04  0.00000000000E+00 0.  1.
<mgrwt>
<rscale>  0 0.21829745E+04</rscale>
<asrwt>0</asrwt>
<pdfrwt beam="1">  1        2 0.43441285E+00 0.21829745E+04</pdfrwt>
<pdfrwt beam="2">  1       -2 0.64909455E-01 0.21829745E+04</pdfrwt>
<totfact> 0.44873768E+00</totfact>
</mgrwt>
</event>
<event>
 6    1  0.2325157E-005  0.1428511E+04  0.7818608E-02  0.8933435E-01
         -2   -1    0    0    0  501 -0.00000000000E+00  0.00000000000E+00  0.47393120711E+03  0.47393120711E+03  0.00000000000E+00 0. -1.
          2   -1    0    0  501    0  0.00000000000E+00 -0.00000000000E+00 -0.10764453389E+04  0.10764453389E+04  0.00000000000E+00 0.  1.
         23    2    1    2    0    0  0.56361126895E+03 -0.40734637077E+03 -0.13796115879E+03  0.71407624527E+03  0.85339759013E+02 0.  0.
         13    1    3    3    0    0  0.25866450306E+03 -0.23510446781E+03 -0.86489735606E+02  0.36008597625E+03  0.00000000000E+00 0.  1.
        -13    1    3    3    0    0  0.30494676588E+03 -0.17224190296E+03 -0.51471423186E+02  0.35399026902E+03  0.00000000000E+00 0. -1.
         22    1    1    2    0    0 -0.56361126895E+03  0.40734637077E+03 -0.46455297296E+03  0.83630030070E+03  0.00000000000E+00 0. -1.
<mgrwt>
<rscale>  0 0.14285112E+04</rscale>
<asrwt>0</asrwt>
<pdfrwt beam="1">  1        2 0.16560698E+00 0.14285112E+04</pdfrwt>
<pdfrwt beam="2">  1       -2 0.72912493E-01 0.14285112E+04</pdfrwt>
<totfact> 0.37206214E+01</totfact>
</mgrwt>
</event>
<event>
 6    1  0.2325157E-005  0.4572265E+04  0.7818608E-02  0.7898106E-01
          2   -1    0    0  501    0  0.00000000000E+00  0.00000000000E+00  0.26770770032E+04  0.26770770032E+04  0.00000000000E+00 0.  1.
         -2   -1    0    0    0  501 -0.00000000000E+00 -0.00000000000E+00 -0.19522789946E+04  0.19522789946E+04  0.00000000000E+00 0. -1.
         23    2    1    2    0    0 -0.22074400569E+04  0.59066291166E+03  0.39231415678E+03  0.23201960224E+04  0.87891436522E+02 0.  0.
         11    1    3    3    0    0 -0.83240817869E+03  0.23115844428E+03  0.19083061004E+03  0.88473381536E+03  0.00000000000E+00 0.  1.
        -11    1    3    3    0    0 -0.13750318783E+04  0.35950446738E+03  0.20148354674E+03  0.14354622071E+04  0.00000000000E+00 0. -1.
         22    1    1    2    0    0  0.22074400569E+04 -0.59066291166E+03  0.33248385177E+03  0.23091599754E+04  0.00000000000E+00 0.  1.
<mgrwt>
<rscale>  0 0.45722647E+04</rscale>
<asrwt>0</asrwt>
<pdfrwt beam="1">  1        2 0.41185800E+00 0.45722647E+04</pdfrwt>
<pdfrwt beam="2">  1       -2 0.30035061E+00 0.45722647E+04</pdfrwt>
<totfact> 0.65279833E-02</totfact>
</mgrwt>
</event>
<event>
 6    1  0.2325157E-005  0.2698429E+04  0.7818608E-02  0.8335515E-01
          2   -1    0    0  501    0  0.00000000000E+00  0.00000000000E+00  0.12035467975E+04  0.12035467975E+04  0.00000000000E+00 0.  1.
         -2   -1    0    0    0  501 -0.00000000000E+00 -0.00000000000E+00 -0.15125121589E+04  0.15125121589E+04  0.00000000000E+00 0. -1.
         23    2    1    2    0    0  0.70972378808E+03  0.70085229589E+03  0.75724362884E+03  0.12560235434E+04  0.96309045542E+02 0.  0.
         11    1    3    3    0    0  0.14518275474E+03  0.17159563282E+03  0.12815059919E+03  0.25873861240E+03  0.00000000000E+00 0. -1.
        -11    1    3    3    0    0  0.56454103334E+03  0.52925666307E+03  0.62909302965E+03  0.99728493104E+03  0.00000000000E+00 0.  1.
         22    1    1    2    0    0 -0.70972378808E+03 -0.70085229589E+03 -0.10662089903E+04  0.14600354129E+04  0.00000000000E+00 0. -1.
<mgrwt>
<rscale>  0 0.26984286E+04</rscale>
<asrwt>0</asrwt>
<pdfrwt beam="1">  1        2 0.18516105E+00 0.26984286E+04</pdfrwt>
<pdfrwt beam="2">  1       -2 0.23269418E+00 0.26984286E+04</pdfrwt>
<totfact> 0.13601317E+00</totfact>
</mgrwt>
</event>
<event>
 6    1  0.2325157E-005  0.3915700E+04  0.7818608E-02  0.8021772E-01
          2   -1    0    0  501    0  0.00000000000E+00  0.00000000000E+00  0.16242469291E+04  0.16242469291E+04  0.00000000000E+00 0.  1.
         -2   -1    0    0    0  501 -0.00000000000E+00 -0.00000000000E+00 -0.23599720312E+04  0.23599720312E+04  0.00000000000E+00 0. -1.
         23    2    1    2    0    0 -0.61605194907E+03  0.91002668893E+03 -0.20155021556E+04  0.22973585971E+04  0.89101097613E+02 0.  0.
         11    1    3    3    0    0 -0.39561944321E+03  0.55654278067E+03 -0.11664188051E+04  0.13515870078E+04  0.00000000000E+00 0. -1.
        -11    1    3    3    0    0 -0.22043250586E+03  0.35348390826E+03 -0.84908335050E+03  0.94577158930E+03  0.00000000000E+00 0.  1.
         22    1    1    2    0    0  0.61605194907E+03 -0.91002668893E+03  0.12797770535E+04  0.16868603633E+04  0.00000000000E+00 0.  1.
<mgrwt>
<rscale>  0 0.39157004E+04</rscale>
<asrwt>0</asrwt>
<pdfrwt beam="1">  1        2 0.24988415E+00 0.39157004E+04</pdfrwt>
<pdfrwt beam="2">  1       -2 0.36307262E+00 0.39157004E+04</pdfrwt>
<totfact> 0.11032263E-01</totfact>
</mgrwt>
</event>
<event>
 6    1  0.2325157E-005  0.3171327E+04  0.7818608E-02  0.8196431E-01
          2   -1    0    0  501    0  0.00000000000E+00  0.00000000000E+00  0.24275006287E+04  0.24275006287E+04  0.00000000000E+00 0.  1.
         -2   -1    0    0    0  501 -0.00000000000E+00 -0.00000000000E+00 -0.10357682182E+04  0.10357682182E+04  0.00000000000E+00 0. -1.
         23    2    1    2    0    0  0.31990646521E+02 -0.15839766076E+04  0.66795354721E+03  0.17214705987E+04  0.85403665782E+02 0.  0.
         11    1    3    3    0    0 -0.19763879048E+01 -0.27048407076E+03  0.80680986966E+02  0.28226753321E+03  0.00000000000E+00 0. -1.
        -11    1    3    3    0    0  0.33967034426E+02 -0.13134925368E+04  0.58727256024E+03  0.14392030655E+04  0.00000000000E+00 0.  1.
         22    1    1    2    0    0 -0.31990646521E+02  0.15839766076E+04  0.72377886327E+03  0.17417982483E+04  0.00000000000E+00 0.  1.
<mgrwt>
<rscale>  0 0.31713265E+04</rscale>
<asrwt>0</asrwt>
<pdfrwt beam="1">  1        2 0.37346164E+00 0.31713265E+04</pdfrwt>
<pdfrwt beam="2">  1       -2 0.15934896E+00 0.31713265E+04</pdfrwt>
<totfact> 0.82402735E-01</totfact>
</mgrwt>
</event>
<event>
 6    1  0.2818332E-005  0.4860171E+04  0.7818608E-02  0.7850447E-01
         -1   -1    0    0    0  501 -0.00000000000E+00  0.00000000000E+00  0.16201268912E+04  0.16201268912E+04  0.00000000000E+00 0. -1.
          1   -1    0    0  501    0  0.00000000000E+00 -0.00000000000E+00 -0.36449711794E+04  0.36449711794E+04  0.00000000000E+00 0.  1.
         23    2    1    2    0    0  0.71142937880E+02 -0.16256722325E+04 -0.29667261285E+04  0.33849350653E+04  0.91923609510E+02 0.  0.
         13    1    3    3    0    0  0.49297086237E+02 -0.53204467990E+03 -0.10462161169E+04  0.11747637666E+04  0.00000000000E+00 0.  1.
        -13    1    3    3    0    0  0.21845851643E+02 -0.10936275526E+04 -0.19205100116E+04  0.22101712987E+04  0.00000000000E+00 0. -1.
         22    1    1    2    0    0 -0.71142937880E+02  0.16256722325E+04  0.94188184031E+03  0.18801630052E+04  0.00000000000E+00 0. -1.
<mgrwt>
<rscale>  0 0.48601711E+04</rscale>
<asrwt>0</asrwt>
<pdfrwt beam="1">  1        1 0.56076479E+00 0.48601711E+04</pdfrwt>
<pdfrwt beam="2">  1       -1 0.24925029E+00 0.48601711E+04</pdfrwt>
<totfact> 0.98311121E-03</totfact>
</mgrwt>
</event>
<event>
 6    1  0.2325157E-005  0.4754303E+04  0.7818608E-02  0.7867568E-01
         -2   -1    0    0    0  501 -0.00000000000E+00  0.00000000000E+00  0.15667510787E+04  0.15667510787E+04  0.00000000000E+00 0. -1.
          2   -1    0    0  501    0  0.00000000000E+00 -0.00000000000E+00 -0.36067307839E+04  0.36067307839E+04  0.00000000000E+00 0.  1.
         23    2    1    2    0    0 -0.19182153805E+04  0.30867178362E+03 -0.25091536703E+04  0.31747440795E+04  0.91210270356E+02 0.  0.
         13    1    3    3    0    0 -0.11105903619E+04  0.13436721453E+03 -0.14256408422E+04  0.18121581916E+04  0.00000000000E+00 0. -1.
        -13    1    3    3    0    0 -0.80762501857E+03  0.17430456908E+03 -0.10835128281E+04  0.13625858880E+04  0.00000000000E+00 0.  1.
         22    1    1    2    0    0  0.19182153805E+04 -0.30867178362E+03  0.46917396514E+03  0.19987377830E+04  0.00000000000E+00 0. -1.
<mgrwt>
<rscale>  0 0.47543030E+04</rscale>
<asrwt>0</asrwt>
<pdfrwt beam="1">  1        2 0.55488166E+00 0.47543030E+04</pdfrwt>
<pdfrwt beam="2">  1       -2 0.24103863E+00 0.47543030E+04</pdfrwt>
<totfact> 0.36903535E-02</totfact>
</mgrwt>
</event>
<event>
 6    1  0.2325157E-005  0.1068168E+04  0.7818608E-02  0.9236785E-01
         -4   -1    0    0    0  501 -0.00000000000E+00  0.00000000000E+00  0.40559035309E+03  0.40559035309E+03  0.00000000000E+00 0. -1.
          4   -1    0    0  501    0  0.00000000000E+00 -0.00000000000E+00 -0.70328496370E+03  0.70328496370E+03  0.00000000000E+00 0.  1.
         23    2    1    2    0    0 -0.33778992272E+03  0.40684519194E+03 -0.18175414233E+03  0.56751847118E+03  0.97044344385E+02 0.  0.
         13    1    3    3    0    0 -0.24767809964E+03  0.27438623103E+03 -0.81454206237E+02  0.37850631770E+03  0.00000000000E+00 0. -1.
        -13    1    3    3    0    0 -0.90111823075E+02  0.13245896091E+03 -0.10029993609E+03  0.18901215348E+03  0.00000000000E+00 0.  1.
         22    1    1    2    0    0  0.33778992272E+03 -0.40684519194E+03 -0.11594046829E+03  0.54135684561E+03  0.00000000000E+00 0. -1.
<mgrwt>
<rscale>  0 0.10681678E+04</rscale>
<asrwt>0</asrwt>
<pdfrwt beam="1">  1        4 0.10819769E+00 0.10681678E+04</pdfrwt>
<pdfrwt beam="2">  1       -4 0.62398517E-01 0.10681678E+04</pdfrwt>
<totfact> 0.32552494E+00</totfact>
</mgrwt>
</event>
<event>
 6    1  0.2325157E-005  0.1493114E+04  0.7818608E-02  0.8889045E-01
          2   -1    0    0  501    0  0.00000000000E+00  0.00000000000E+00  0.22921489704E+04  0.22921489704E+04  0.00000000000E+00 0.  1.
         -2   -1    0    0    0  501 -0.00000000000E+00 -0.00000000000E+00 -0.24315483127E+03  0.24315483127E+03  0.00000000000E+00 0. -1.
         23    2    1    2    0    0  0.63278226440E+03 -0.55967511767E+01  0.16897568693E+04  0.18076389517E+04  0.10879147395E+03 0.  0.
         13    1    3    3    0    0  0.43165479464E+03 -0.19933755099E+02  0.10087006698E+04  0.10973605869E+04  0.00000000000E+00 0. -1.
        -13    1    3    3    0    0  0.20112746976E+03  0.14337003922E+02  0.68105619946E+03  0.71027836486E+03  0.00000000000E+00 0.  1.
         22    1    1    2    0    0 -0.63278226440E+03  0.55967511767E+01  0.35923726984E+03  0.72766484992E+03  0.00000000000E+00 0. -1.
<mgrwt>
<rscale>  0 0.14931137E+04</rscale>
<asrwt>0</asrwt>
<pdfrwt beam="1">  1        2 0.35263829E+00 0.14931137E+04</pdfrwt>
<pdfrwt beam="2">  1       -2 0.37408437E-01 0.14931137E+04</pdfrwt>
<totfact> 0.29885577E+01</totfact>
</mgrwt>
</event>
<event>
 6    1  0.2325157E-005  0.5634885E+03  0.7818608E-02  0.9984192E-01
         -2   -1    0    0    0  501 -0.00000000000E+00  0.00000000000E+00  0.42993811455E+03  0.42993811455E+03  0.00000000000E+00 0. -1.
          2   -1    0    0  501    0  0.00000000000E+00 -0.00000000000E+00 -0.18463082146E+03  0.18463082146E+03  0.00000000000E+00 0.  1.
         23    2    1    2    0    0 -0.14175141089E+02  0.26850104587E+03  0.65354033417E+02  0.29103080545E+03  0.90188878350E+02 0.  0.
         11    1    3    3    0    0 -0.47353093215E+02  0.15264994379E+03  0.15355007076E+02  0.16056181682E+03  0.00000000000E+00 0. -1.
        -11    1    3    3    0    0  0.33177952126E+02  0.11585110207E+03  0.49999026341E+02  0.13046898863E+03  0.00000000000E+00 0.  1.
         22    1    1    2    0    0  0.14175141089E+02 -0.26850104587E+03  0.17995325968E+03  0.32353813056E+03  0.00000000000E+00 0. -1.
<mgrwt>
<rscale>  0 0.56348852E+03</rscale>
<asrwt>0</asrwt>
<pdfrwt beam="1">  1        2 0.28404742E-01 0.56348852E+03</pdfrwt>
<pdfrwt beam="2">  1       -2 0.66144325E-01 0.56348852E+03</pdfrwt>
<totfact> 0.40201240E+02</totfact>
</mgrwt>
</event>
<event>
 6    1  0.2325157E-005  0.5636477E+04  0.7818608E-02  0.7737184E-01
          2   -1    0    0  501    0  0.00000000000E+00  0.00000000000E+00  0.33141661441E+04  0.33141661441E+04  0.00000000000E+00 0.  1.
         -2   -1    0    0    0  501 -0.00000000000E+00 -0.00000000000E+00 -0.23965211027E+04  0.23965211027E+04  0.00000000000E+00 0. -1.
         23    2    1    2    0    0 -0.27829710052E+04  0.32288548931E+03  0.76150649249E+03  0.29047004504E+04  0.90608572217E+02 0.  0.
         13    1    3    3    0    0 -0.19982049682E+04  0.24755977102E+03  0.50808992713E+03  0.20765992173E+04  0.00000000000E+00 0.  1.
        -13    1    3    3    0    0 -0.78476603703E+03  0.75325718288E+02  0.25341656536E+03  0.82810123313E+03  0.00000000000E+00 0. -1.
         22    1    1    2    0    0  0.27829710052E+04 -0.32288548931E+03  0.15613854896E+03  0.28059867964E+04  0.00000000000E+00 0.  1.
<mgrwt>
<rscale>  0 0.56364773E+04</rscale>
<asrwt>0</asrwt>
<pdfrwt beam="1">  1        2 0.50987171E+00 0.56364773E+04</pdfrwt>
<pdfrwt beam="2">  1       -2 0.36869555E+00 0.56364773E+04</pdfrwt>
<totfact> 0.89210111E-03</totfact>
</mgrwt>
</event>
<event>
 6    1  0.2325157E-005  0.1447559E+04  0.7818608E-02  0.8920094E-01
         -2   -1    0    0    0  501 -0.00000000000E+00  0.00000000000E+00  0.44931516083E+03  0.44931516083E+03  0.00000000000E+00 0. -1.
          2   -1    0    0  501    0  0.00000000000E+00 -0.00000000000E+00 -0.11659007133E+04  0.11659007133E+04  0.00000000000E+00 0.  1.
         23    2    1    2    0    0 -0.93674424050E+02  0.39870233523E+03  0.30077062478E+03  0.51851534927E+03  0.10323153032E+03 0.  0.
         11    1    3    3    0    0 -0.47917858135E+02  0.21416612470E+03  0.97367388405E+02  0.24009093781E+03  0.00000000000E+00 0. -1.
        -11    1    3    3    0    0 -0.45756565915E+02  0.18453621054E+03  0.20340323638E+03  0.27842441145E+03  0.00000000000E+00 0.  1.
         22    1    1    2    0    0  0.93674424050E+02 -0.39870233523E+03 -0.10173561773E+04  0.10967005249E+04  0.00000000000E+00 0.  1.
<mgrwt>
<rscale>  0 0.14475591E+04</rscale>
<asrwt>0</asrwt>
<pdfrwt beam="1">  1        2 0.17936934E+00 0.14475591E+04</pdfrwt>
<pdfrwt beam="2">  1       -2 0.69125409E-01 0.14475591E+04</pdfrwt>
<totfact> 0.36803579E+01</totfact>
</mgrwt>
</event>
<event>
 6    1  0.2325157E-005  0.1388003E+04  0.7818608E-02  0.8962549E-01
          1   -1    0    0  501    0  0.00000000000E+00  0.00000000000E+00  0.70848426371E+03  0.70848426371E+03  0.00000000000E+00 0. -1.
         -1   -1    0    0    0  501 -0.00000000000E+00 -0.00000000000E+00 -0.67981446505E+03  0.67981446505E+03  0.00000000000E+00 0.  1.
         23    2    1    2    0    0  0.33191217875E+03  0.44531044322E+03 -0.39686791553E+03  0.68862063746E+03  0.90703664288E+02 0.  0.
         13    1    3    3    0    0  0.53849746641E+02  0.98591932571E+02 -0.12295298334E+03  0.16654609120E+03  0.00000000000E+00 0. -1.
        -13    1    3    3    0    0  0.27806243211E+03  0.34671851065E+03 -0.27391493219E+03  0.52207454626E+03  0.00000000000E+00 0.  1.
         22    1    1    2    0    0 -0.33191217875E+03 -0.44531044322E+03  0.42553771419E+03  0.69967809130E+03  0.00000000000E+00 0. -1.
<mgrwt>
<rscale>  0 0.13880027E+04</rscale>
<asrwt>0</asrwt>
<pdfrwt beam="1">  1        1 0.10899758E+00 0.13880027E+04</pdfrwt>
<pdfrwt beam="2">  1       -1 0.10458684E+00 0.13880027E+04</pdfrwt>
<totfact> 0.22439790E+01</totfact>
</mgrwt>
</event>
<event>
 6    1  0.2325157E-005  0.8338814E+03  0.7818608E-02  0.9512230E-01
         -2   -1    0    0    0  501 -0.00000000000E+00  0.00000000000E+00  0.91130883820E+03  0.91130883820E+03  0.00000000000E+00 0. -1.
          2   -1    0    0  501    0  0.00000000000E+00 -0.00000000000E+00 -0.19075812156E+03  0.19075812156E+03  0.00000000000E+00 0.  1.
         23    2    1    2    0    0  0.95243658687E+01  0.41032521065E+03  0.31721312865E+03  0.52662043581E+03  0.90815320185E+02 0.  0.
         13    1    3    3    0    0 -0.21964085937E+01  0.17726399313E+03  0.82117688275E+02  0.19537313582E+03  0.00000000000E+00 0. -1.
        -13    1    3    3    0    0  0.11720774462E+02  0.23306121753E+03  0.23509544037E+03  0.33124729999E+03  0.00000000000E+00 0.  1.
         22    1    1    2    0    0 -0.95243658687E+01 -0.41032521065E+03  0.40333758799E+03  0.57544652395E+03  0.00000000000E+00 0. -1.
<mgrwt>
<rscale>  0 0.83388144E+03</rscale>
<asrwt>0</asrwt>
<pdfrwt beam="1">  1        2 0.29347404E-01 0.83388144E+03</pdfrwt>
<pdfrwt beam="2">  1       -2 0.14020136E+00 0.83388144E+03</pdfrwt>
<totfact> 0.65696064E+01</totfact>
</mgrwt>
</event>
<event>
 6    1  0.2325157E-005  0.1337242E+04  0.7818608E-02  0.9000542E-01
         -2   -1    0    0    0  501 -0.00000000000E+00  0.00000000000E+00  0.29211346792E+03  0.29211346792E+03  0.00000000000E+00 0. -1.
          2   -1    0    0  501    0  0.00000000000E+00 -0.00000000000E+00 -0.15304126827E+04  0.15304126827E+04  0.00000000000E+00 0.  1.
         23    2    1    2    0    0  0.31189464518E+03  0.52469510294E+03 -0.26041322390E+03  0.66977108908E+03  0.90526481469E+02 0.  0.
         11    1    3    3    0    0  0.11102451153E+02  0.70628691643E+02 -0.18790777506E+02  0.73924081490E+02  0.00000000000E+00 0. -1.
        -11    1    3    3    0    0  0.30079219402E+03  0.45406641129E+03 -0.24162244639E+03  0.59584700759E+03  0.00000000000E+00 0.  1.
         22    1    1    2    0    0 -0.31189464518E+03 -0.52469510294E+03 -0.97788599088E+03  0.11527550615E+04  0.00000000000E+00 0.  1.
<mgrwt>
<rscale>  0 0.13372422E+04</rscale>
<asrwt>0</asrwt>
<pdfrwt beam="1">  1        2 0.23544811E+00 0.13372422E+04</pdfrwt>
<pdfrwt beam="2">  1       -2 0.44940533E-01 0.13372422E+04</pdfrwt>
<totfact> 0.55997927E+01</totfact>
</mgrwt>
</event>
<event>
 6    1  0.2325157E-005  0.4917186E+04  0.7818608E-02  0.7841411E-01
         -2   -1    0    0    0  501 -0.00000000000E+00  0.00000000000E+00  0.23804828983E+04  0.23804828983E+04  0.00000000000E+00 0. -1.
          2   -1    0    0  501    0  0.00000000000E+00 -0.00000000000E+00 -0.25392662716E+04  0.25392662716E+04  0.00000000000E+00 0.  1.
         23    2    1    2    0    0 -0.13292088937E+04  0.10470150031E+04  0.17040551708E+04  0.24031633593E+04  0.91396972300E+02 0.  0.
         11    1    3    3    0    0 -0.89703035047E+03  0.71460947085E+03  0.10941920529E+04  0.15851140004E+04  0.00000000000E+00 0.  1.
        -11    1    3    3    0    0 -0.43217854324E+03  0.33240553227E+03  0.60986311789E+03  0.81804935896E+03  0.00000000000E+00 0. -1.
         22    1    1    2    0    0  0.13292088937E+04 -0.10470150031E+04 -0.18628385442E+04  0.25165858105E+04  0.00000000000E+00 0.  1.
<mgrwt>
<rscale>  0 0.49171862E+04</rscale>
<asrwt>0</asrwt>
<pdfrwt beam="1">  1        2 0.39065635E+00 0.49171862E+04</pdfrwt>
<pdfrwt beam="2">  1       -2 0.36622814E+00 0.49171862E+04</pdfrwt>
<totfact> 0.29710231E-02</totfact>
</mgrwt>
</event>
<event>
 6    1  0.2325157E-005  0.2175317E+04  0.7818608E-02  0.8528773E-01
         -2   -1    0    0    0  501 -0.00000000000E+00  0.00000000000E+00  0.37714586971E+03  0.37714586971E+03  0.00000000000E+00 0. -1.
          2   -1    0    0  501    0  0.00000000000E+00 -0.00000000000E+00 -0.31367193696E+04  0.31367193696E+04  0.00000000000E+00 0.  1.
         23    2    1    2    0    0 -0.44414747711E+03  0.95792308270E+03 -0.97320117393E+03  0.14387725424E+04  0.89790255904E+02 0.  0.
         11    1    3    3    0    0 -0.11645712944E+03  0.34896562536E+03 -0.32230362194E+03  0.48910008730E+03  0.00000000000E+00 0.  1.
        -11    1    3    3    0    0 -0.32769034766E+03  0.60895745734E+03 -0.65089755200E+03  0.94967245511E+03  0.00000000000E+00 0. -1.
         22    1    1    2    0    0  0.44414747711E+03 -0.95792308270E+03 -0.17863723260E+04  0.20750926969E+04  0.00000000000E+00 0. -1.
<mgrwt>
<rscale>  0 0.21753168E+04</rscale>
<asrwt>0</asrwt>
<pdfrwt beam="1">  1        2 0.48257220E+00 0.21753168E+04</pdfrwt>
<pdfrwt beam="2">  1       -2 0.58022443E-01 0.21753168E+04</pdfrwt>
<totfact> 0.36356842E+00</totfact>
</mgrwt>
</event>
<event>
 6    1  0.2325157E-005  0.3239172E+04  0.7818608E-02  0.8178548E-01
         -2   -1    0    0    0  501 -0.00000000000E+00  0.00000000000E+00  0.12044962853E+04  0.12044962853E+04  0.00000000000E+00 0. -1.
          2   -1    0    0  501    0  0.00000000000E+00 -0.00000000000E+00 -0.21777222865E+04  0.21777222865E+04  0.00000000000E+00 0.  1.
         23    2    1    2    0    0  0.19206310747E+03 -0.16056205077E+04 -0.55337407250E+03  0.17115357491E+04  0.90698975554E+02 0.  0.
         13    1    3    3    0    0  0.87810272284E+02 -0.10805189610E+04 -0.35852375751E+03  0.11418279878E+04  0.00000000000E+00 0.  1.
        -13    1    3    3    0    0  0.10425283518E+03 -0.52510154671E+03 -0.19485031499E+03  0.56970776127E+03  0.00000000000E+00 0. -1.
         22    1    1    2    0    0 -0.19206310747E+03  0.16056205077E+04 -0.41985192872E+03  0.16706828227E+04  0.00000000000E+00 0.  1.
<mgrwt>
<rscale>  0 0.32391717E+04</rscale>
<asrwt>0</asrwt>
<pdfrwt beam="1">  1        2 0.33503420E+00 0.32391717E+04</pdfrwt>
<pdfrwt beam="2">  1       -2 0.18530712E+00 0.32391717E+04</pdfrwt>
<totfact> 0.74389392E-01</totfact>
</mgrwt>
</event>
<event>
 6    1  0.2325157E-005  0.2139159E+04  0.7818608E-02  0.8544187E-01
          2   -1    0    0  501    0  0.00000000000E+00  0.00000000000E+00  0.26416027190E+04  0.26416027190E+04  0.00000000000E+00 0.  1.
         -2   -1    0    0    0  501 -0.00000000000E+00 -0.00000000000E+00 -0.43307061600E+03  0.43307061600E+03  0.00000000000E+00 0. -1.
         23    2    1    2    0    0  0.36713233889E+03 -0.77378980229E+03  0.20225054015E+04  0.21982358038E+04  0.90419785434E+02 0.  0.
         11    1    3    3    0    0  0.17767728797E+03 -0.30580359674E+03  0.74906847260E+03  0.82836503734E+03  0.00000000000E+00 0. -1.
        -11    1    3    3    0    0  0.18945505092E+03 -0.46798620555E+03  0.12734369289E+04  0.13698707665E+04  0.00000000000E+00 0.  1.
         22    1    1    2    0    0 -0.36713233889E+03  0.77378980229E+03  0.18602670146E+03  0.87643753117E+03  0.00000000000E+00 0. -1.
<mgrwt>
<rscale>  0 0.21391592E+04</rscale>
<asrwt>0</asrwt>
<pdfrwt beam="1">  1        2 0.40640041E+00 0.21391592E+04</pdfrwt>
<pdfrwt beam="2">  1       -2 0.66626250E-01 0.21391592E+04</pdfrwt>
<totfact> 0.54711724E+00</totfact>
</mgrwt>
</event>
<event>
 6    1  0.2325157E-005  0.5422583E+04  0.7818608E-02  0.7766433E-01
         -2   -1    0    0    0  501 -0.00000000000E+00  0.00000000000E+00  0.20365631155E+04  0.20365631155E+04  0.00000000000E+00 0. -1.
          2   -1    0    0  501    0  0.00000000000E+00 -0.00000000000E+00 -0.36095620005E+04  0.36095620005E+04  0.00000000000E+00 0.  1.
         23    2    1    2    0    0 -0.51618238871E+03 -0.66237224839E+03  0.18966832544E+04  0.20762686201E+04  0.91119490193E+02 0.  0.
         11    1    3    3    0    0 -0.46396830117E+03 -0.58365295791E+03  0.16063258235E+04  0.17709319612E+04  0.00000000000E+00 0. -1.
        -11    1    3    3    0    0 -0.52214087535E+02 -0.78719290474E+02  0.29035743082E+03  0.30533665889E+03  0.00000000000E+00 0.  1.
         22    1    1    2    0    0  0.51618238871E+03  0.66237224839E+03 -0.34696821394E+04  0.35698564960E+04  0.00000000000E+00 0.  1.
<mgrwt>
<rscale>  0 0.54225827E+04</rscale>
<asrwt>0</asrwt>
<pdfrwt beam="1">  1        2 0.55531723E+00 0.54225827E+04</pdfrwt>
<pdfrwt beam="2">  1       -2 0.31331740E+00 0.54225827E+04</pdfrwt>
<totfact> 0.12564434E-02</totfact>
</mgrwt>
</event>
<event>
 6    1  0.2325157E-005  0.1241448E+04  0.7818608E-02  0.9077331E-01
          4   -1    0    0  501    0  0.00000000000E+00  0.00000000000E+00  0.65576780122E+03  0.65576780122E+03  0.00000000000E+00 0.  1.
         -4   -1    0    0    0  501 -0.00000000000E+00 -0.00000000000E+00 -0.58755304326E+03  0.58755304326E+03  0.00000000000E+00 0. -1.
         23    2    1    2    0    0  0.59321133492E+03  0.99925824278E+02  0.17292386465E+03  0.63270733721E+03  0.92363701486E+02 0.  0.
         11    1    3    3    0    0  0.19908918264E+03  0.65303426524E+02  0.92207785124E+02  0.22891770529E+03  0.00000000000E+00 0. -1.
        -11    1    3    3    0    0  0.39412215228E+03  0.34622397754E+02  0.80716079529E+02  0.40378963191E+03  0.00000000000E+00 0.  1.
         22    1    1    2    0    0 -0.59321133492E+03 -0.99925824278E+02 -0.10470910670E+03  0.61061350727E+03  0.00000000000E+00 0.  1.
<mgrwt>
<rscale>  0 0.12414481E+04</rscale>
<asrwt>0</asrwt>
<pdfrwt beam="1">  1        4 0.10088735E+00 0.12414481E+04</pdfrwt>
<pdfrwt beam="2">  1       -4 0.90392776E-01 0.12414481E+04</pdfrwt>
<totfact> 0.16628703E+00</totfact>
</mgrwt>
</event>
<event>
 6    1  0.2325157E-005  0.2412846E+04  0.7818608E-02  0.8434710E-01
         -4   -1    0    0    0  501 -0.00000000000E+00  0.00000000000E+00  0.27980574732E+04  0.27980574732E+04  0.00000000000E+00 0.  1.
          4   -1    0    0  501    0  0.00000000000E+00 -0.00000000000E+00 -0.52016669180E+03  0.52016669180E+03  0.00000000000E+00 0. -1.
         23    2    1    2    0    0 -0.59646201797E+03  0.10131411675E+04  0.77851531609E+03  0.14128767557E+04  0.88953163540E+02 0.  0.
         11    1    3    3    0    0 -0.27163317558E+03  0.53201266702E+03  0.42637933197E+03  0.73390830127E+03  0.00000000000E+00 0. -1.
        -11    1    3    3    0    0 -0.32482884240E+03  0.48112850046E+03  0.35213598412E+03  0.67896845444E+03  0.00000000000E+00 0.  1.
         22    1    1    2    0    0  0.59646201797E+03 -0.10131411675E+04  0.14993754653E+04  0.19053474093E+04  0.00000000000E+00 0.  1.
<mgrwt>
<rscale>  0 0.24128459E+04</rscale>
<asrwt>0</asrwt>
<pdfrwt beam="1">  1        4 0.80025647E-01 0.24128459E+04</pdfrwt>
<pdfrwt beam="2">  1       -4 0.43047037E+00 0.24128459E+04</pdfrwt>
<totfact> 0.10286161E-02</totfact>
</mgrwt>
</event>
<event>
 6    1  0.2325157E-005  0.1521320E+04  0.7818608E-02  0.8870398E-01
          2   -1    0    0  501    0  0.00000000000E+00  0.00000000000E+00  0.24387696832E+04  0.24387696832E+04  0.00000000000E+00 0.  1.
         -2   -1    0    0    0  501 -0.00000000000E+00 -0.00000000000E+00 -0.23725225120E+03  0.23725225120E+03  0.00000000000E+00 0. -1.
         23    2    1    2    0    0  0.18405870404E+03  0.73462911807E+03  0.11587316692E+04  0.13872396817E+04  0.90649356286E+02 0.  0.
         13    1    3    3    0    0  0.70962033240E+02  0.17357792200E+03  0.23616191003E+03  0.30155820817E+03  0.00000000000E+00 0.  1.
        -13    1    3    3    0    0  0.11309667080E+03  0.56105119607E+03  0.92256975915E+03  0.10856814736E+04  0.00000000000E+00 0. -1.
         22    1    1    2    0    0 -0.18405870404E+03 -0.73462911807E+03  0.10427857628E+04  0.12887822527E+04  0.00000000000E+00 0. -1.
<mgrwt>
<rscale>  0 0.15213199E+04</rscale>
<asrwt>0</asrwt>
<pdfrwt beam="1">  1        2 0.37519532E+00 0.15213199E+04</pdfrwt>
<pdfrwt beam="2">  1       -2 0.36500348E-01 0.15213199E+04</pdfrwt>
<totfact> 0.25803560E+01</totfact>
</mgrwt>
</event>
<event>
 6    1  0.2325157E-005  0.2783355E+04  0.7818608E-02  0.8308455E-01
         -2   -1    0    0    0  501 -0.00000000000E+00  0.00000000000E+00  0.10731842909E+04  0.10731842909E+04  0.00000000000E+00 0. -1.
          2   -1    0    0  501    0  0.00000000000E+00 -0.00000000000E+00 -0.18046915877E+04  0.18046915877E+04  0.00000000000E+00 0.  1.
         23    2    1    2    0    0  0.13497750014E+04  0.30334574092E+03 -0.50761681662E+03  0.14764344278E+04  0.90953801292E+02 0.  0.
         13    1    3    3    0    0  0.83252365236E+03  0.15387960834E+03 -0.27795907321E+03  0.89108687118E+03  0.00000000000E+00 0.  1.
        -13    1    3    3    0    0  0.51725134907E+03  0.14946613259E+03 -0.22965774340E+03  0.58534755659E+03  0.00000000000E+00 0. -1.
         22    1    1    2    0    0 -0.13497750014E+04 -0.30334574092E+03 -0.22389048012E+03  0.14014414508E+04  0.00000000000E+00 0. -1.
<mgrwt>
<rscale>  0 0.27833553E+04</rscale>
<asrwt>0</asrwt>
<pdfrwt beam="1">  1        2 0.27764486E+00 0.27833553E+04</pdfrwt>
<pdfrwt beam="2">  1       -2 0.16510528E+00 0.27833553E+04</pdfrwt>
<totfact> 0.17274956E+00</totfact>
</mgrwt>
</event>
<event>
 6    1  0.2325157E-005  0.3699887E+04  0.7818608E-02  0.8067987E-01
          2   -1    0    0  501    0  0.00000000000E+00  0.00000000000E+00  0.24010432513E+04  0.24010432513E+04  0.00000000000E+00 0.  1.
         -2   -1    0    0    0  501 -0.00000000000E+00 -0.00000000000E+00 -0.14253347985E+04  0.14253347985E+04  0.00000000000E+00 0. -1.
         23    2    1    2    0    0  0.14980660109E+04 -0.50196872438E+03 -0.50492582421E+03  0.16610946421E+04  0.90060806363E+02 0.  0.
         13    1    3    3    0    0  0.10291785109E+04 -0.38775727031E+03 -0.35928764809E+03  0.11570011764E+04  0.00000000000E+00 0. -1.
        -13    1    3    3    0    0  0.46888749999E+03 -0.11421145407E+03 -0.14563817612E+03  0.50409346577E+03  0.00000000000E+00 0.  1.
         22    1    1    2    0    0 -0.14980660109E+04  0.50196872438E+03  0.14806342770E+04  0.21652834077E+04  0.00000000000E+00 0.  1.
<mgrwt>
<rscale>  0 0.36998868E+04</rscale>
<asrwt>0</asrwt>
<pdfrwt beam="1">  1        2 0.36939127E+00 0.36998868E+04</pdfrwt>
<pdfrwt beam="2">  1       -2 0.21928228E+00 0.36998868E+04</pdfrwt>
<totfact> 0.32054209E-01</totfact>
</mgrwt>
</event>
<event>
 6    1  0.2325157E-005  0.2626220E+04  0.7818608E-02  0.8359349E-01
         -2   -1    0    0    0  501 -0.00000000000E+00  0.00000000000E+00  0.76909291725E+03  0.76909291725E+03  0.00000000000E+00 0. -1.
          2   -1    0    0  501    0  0.00000000000E+00 -0.00000000000E+00 -0.22419375386E+04  0.22419375386E+04  0.00000000000E+00 0.  1.
         23    2    1    2    0    0  0.53889094634E+03 -0.82542803595E+03 -0.17291600013E+04  0.19924861669E+04  0.90950098175E+02 0.  0.
         11    1    3    3    0    0  0.35973842918E+03 -0.60543842928E+03 -0.11739079225E+04  0.13689511458E+04  0.00000000000E+00 0. -1.
        -11    1    3    3    0    0  0.17915251716E+03 -0.21998960667E+03 -0.55525207880E+03  0.62353502103E+03  0.00000000000E+00 0.  1.
         22    1    1    2    0    0 -0.53889094634E+03  0.82542803595E+03  0.25631537999E+03  0.10185442890E+04  0.00000000000E+00 0. -1.
<mgrwt>
<rscale>  0 0.26262203E+04</rscale>
<asrwt>0</asrwt>
<pdfrwt beam="1">  1        2 0.34491346E+00 0.26262203E+04</pdfrwt>
<pdfrwt beam="2">  1       -2 0.11832199E+00 0.26262203E+04</pdfrwt>
<totfact> 0.23732527E+00</totfact>
</mgrwt>
</event>
<event>
 6    1  0.2325157E-005  0.1041594E+04  0.7818608E-02  0.9264066E-01
         -2   -1    0    0    0  501 -0.00000000000E+00  0.00000000000E+00  0.43902275368E+03  0.43902275368E+03  0.00000000000E+00 0. -1.
          2   -1    0    0  501    0  0.00000000000E+00 -0.00000000000E+00 -0.61780254253E+03  0.61780254253E+03  0.00000000000E+00 0.  1.
         23    2    1    2    0    0 -0.16413317219E+03  0.41771118874E+02  0.40531012728E+03  0.44867600968E+03  0.91374710938E+02 0.  0.
         11    1    3    3    0    0 -0.84508996356E+02 -0.24957158797E+02  0.20114277107E+03  0.21959746036E+03  0.00000000000E+00 0. -1.
        -11    1    3    3    0    0 -0.79624175838E+02  0.66728277671E+02  0.20416735621E+03  0.22907854932E+03  0.00000000000E+00 0.  1.
         22    1    1    2    0    0  0.16413317219E+03 -0.41771118874E+02 -0.58408991613E+03  0.60814928653E+03  0.00000000000E+00 0.  1.
<mgrwt>
<rscale>  0 0.10415937E+04</rscale>
<asrwt>0</asrwt>
<pdfrwt beam="1">  1        2 0.95046545E-01 0.10415937E+04</pdfrwt>
<pdfrwt beam="2">  1       -2 0.67541962E-01 0.10415937E+04</pdfrwt>
<totfact> 0.95875749E+01</totfact>
</mgrwt>
</event>
<event>
 6    1  0.2325157E-005  0.2379287E+04  0.7818608E-02  0.8447299E-01
          2   -1    0    0  501    0  0.00000000000E+00  0.00000000000E+00  0.19717169202E+04  0.19717169202E+04  0.00000000000E+00 0.  1.
         -2   -1    0    0    0  501 -0.00000000000E+00 -0.00000000000E+00 -0.71777629278E+03  0.71777629278E+03  0.00000000000E+00 0. -1.
         23    2    1    2    0    0  0.48162332361E+03  0.25686507822E+03 -0.56473746850E+03  0.79066970596E+03  0.91046588811E+02 0.  0.
         13    1    3    3    0    0  0.13480682975E+03  0.10250140148E+03 -0.22202126438E+03  0.27923620913E+03  0.00000000000E+00 0. -1.
        -13    1    3    3    0    0  0.34681649386E+03  0.15436367675E+03 -0.34271620413E+03  0.51143349683E+03  0.00000000000E+00 0.  1.
         22    1    1    2    0    0 -0.48162332361E+03 -0.25686507822E+03  0.18186780959E+04  0.18988235070E+04  0.00000000000E+00 0.  1.
<mgrwt>
<rscale>  0 0.23792870E+04</rscale>
<asrwt>0</asrwt>
<pdfrwt beam="1">  1        2 0.30334106E+00 0.23792870E+04</pdfrwt>
<pdfrwt beam="2">  1       -2 0.11042712E+00 0.23792870E+04</pdfrwt>
<totfact> 0.40614940E+00</totfact>
</mgrwt>
</event>
<event>
 6    1  0.2325157E-005  0.1539886E+04  0.7818608E-02  0.8858354E-01
         -2   -1    0    0    0  501 -0.00000000000E+00  0.00000000000E+00  0.25265455116E+03  0.25265455116E+03  0.00000000000E+00 0. -1.
          2   -1    0    0  501    0  0.00000000000E+00 -0.00000000000E+00 -0.23463350354E+04  0.23463350354E+04  0.00000000000E+00 0.  1.
         23    2    1    2    0    0 -0.32826364428E+02  0.64330969876E+03 -0.34754065840E+03  0.73782617887E+03  0.93155903040E+02 0.  0.
         13    1    3    3    0    0 -0.21821986930E+02  0.27642162453E+03 -0.20160466795E+03  0.34282583882E+03  0.00000000000E+00 0.  1.
        -13    1    3    3    0    0 -0.11004377498E+02  0.36688807423E+03 -0.14593599045E+03  0.39500034005E+03  0.00000000000E+00 0. -1.
         22    1    1    2    0    0  0.32826364428E+02 -0.64330969876E+03 -0.17461398259E+04  0.18611634077E+04  0.00000000000E+00 0.  1.
<mgrwt>
<rscale>  0 0.15398860E+04</rscale>
<asrwt>0</asrwt>
<pdfrwt beam="1">  1        2 0.36097463E+00 0.15398860E+04</pdfrwt>
<pdfrwt beam="2">  1       -2 0.38869930E-01 0.15398860E+04</pdfrwt>
<totfact> 0.25750360E+01</totfact>
</mgrwt>
</event>
<event>
 6    1  0.2325157E-005  0.7807715E+03  0.7818608E-02  0.9588274E-01
          2   -1    0    0  501    0  0.00000000000E+00  0.00000000000E+00  0.24733166363E+03  0.24733166363E+03  0.00000000000E+00 0.  1.
         -2   -1    0    0    0  501 -0.00000000000E+00 -0.00000000000E+00 -0.61618081650E+03  0.61618081650E+03  0.00000000000E+00 0. -1.
         23    2    1    2    0    0  0.44700645555E+02  0.73141299925E+02 -0.60225235771E+03  0.61486643955E+03  0.89470881610E+02 0.  0.
         11    1    3    3    0    0 -0.77380091673E+01 -0.56315633432E+01 -0.24824135882E+03  0.24842577064E+03  0.00000000000E+00 0. -1.
        -11    1    3    3    0    0  0.52438654722E+02  0.78772863268E+02 -0.35401099889E+03  0.36644066891E+03  0.00000000000E+00 0.  1.
         22    1    1    2    0    0 -0.44700645555E+02 -0.73141299925E+02  0.23340320484E+03  0.24864604058E+03  0.00000000000E+00 0.  1.
<mgrwt>
<rscale>  0 0.78077148E+03</rscale>
<asrwt>0</asrwt>
<pdfrwt beam="1">  1        2 0.38051025E-01 0.78077148E+03</pdfrwt>
<pdfrwt beam="2">  1       -2 0.94797049E-01 0.78077148E+03</pdfrwt>
<totfact> 0.12858705E+02</totfact>
</mgrwt>
</event>
<event>
 6    1  0.2325157E-005  0.1862670E+04  0.7818608E-02  0.8673664E-01
         -2   -1    0    0    0  501 -0.00000000000E+00  0.00000000000E+00  0.23381585673E+03  0.23381585673E+03  0.00000000000E+00 0. -1.
          2   -1    0    0  501    0  0.00000000000E+00 -0.00000000000E+00 -0.37096910279E+04  0.37096910279E+04  0.00000000000E+00 0.  1.
         23    2    1    2    0    0 -0.34122395836E+03 -0.49829022040E+03 -0.24700508226E+03  0.65864326730E+03  0.89847144589E+02 0.  0.
         11    1    3    3    0    0 -0.15291370870E+03 -0.29516486364E+03 -0.15494753633E+03  0.36676100945E+03  0.00000000000E+00 0. -1.
        -11    1    3    3    0    0 -0.18831024966E+03 -0.20312535676E+03 -0.92057545932E+02  0.29188225785E+03  0.00000000000E+00 0.  1.
         22    1    1    2    0    0  0.34122395836E+03  0.49829022040E+03 -0.32288700889E+04  0.32848636173E+04  0.00000000000E+00 0.  1.
<mgrwt>
<rscale>  0 0.18626697E+04</rscale>
<asrwt>0</asrwt>
<pdfrwt beam="1">  1        2 0.57072163E+00 0.18626697E+04</pdfrwt>
<pdfrwt beam="2">  1       -2 0.35971675E-01 0.18626697E+04</pdfrwt>
<totfact> 0.39576019E+00</totfact>
</mgrwt>
</event>
<event>
 6    1  0.2325157E-005  0.1632103E+04  0.7818608E-02  0.8801065E-01
         -2   -1    0    0    0  501 -0.00000000000E+00  0.00000000000E+00  0.10602009583E+04  0.10602009583E+04  0.00000000000E+00 0. -1.
          2   -1    0    0  501    0  0.00000000000E+00 -0.00000000000E+00 -0.62812613533E+03  0.62812613533E+03  0.00000000000E+00 0.  1.
         23    2    1    2    0    0  0.16181865654E+03  0.79216547189E+03  0.12318528237E+03  0.82280750359E+03  0.90145225748E+02 0.  0.
         13    1    3    3    0    0  0.66542619124E+02  0.41019154763E+03  0.10548308594E+03  0.42873267584E+03  0.00000000000E+00 0.  1.
        -13    1    3    3    0    0  0.95276037420E+02  0.38197392425E+03  0.17702196433E+02  0.39407482776E+03  0.00000000000E+00 0. -1.
         22    1    1    2    0    0 -0.16181865654E+03 -0.79216547189E+03  0.30888954061E+03  0.86551959004E+03  0.00000000000E+00 0. -1.
<mgrwt>
<rscale>  0 0.16321029E+04</rscale>
<asrwt>0</asrwt>
<pdfrwt beam="1">  1        2 0.96634790E-01 0.16321029E+04</pdfrwt>
<pdfrwt beam="2">  1       -2 0.16310784E+00 0.16321029E+04</pdfrwt>
<totfact> 0.10713160E+01</totfact>
</mgrwt>
</event>
<event>
 6    1  0.2325157E-005  0.8078586E+03  0.7818608E-02  0.9548711E-01
         -2   -1    0    0    0  501 -0.00000000000E+00  0.00000000000E+00  0.18144623987E+03  0.18144623987E+03  0.00000000000E+00 0. -1.
          2   -1    0    0  501    0  0.00000000000E+00 -0.00000000000E+00 -0.89921325659E+03  0.89921325659E+03  0.00000000000E+00 0.  1.
         23    2    1    2    0    0  0.27807445194E+02  0.58652243790E+02 -0.88991373842E+03  0.89668168936E+03  0.88759509290E+02 0.  0.
         11    1    3    3    0    0  0.11345878613E+02 -0.64803425073E+01 -0.55199772135E+03  0.55215234146E+03  0.00000000000E+00 0.  1.
        -11    1    3    3    0    0  0.16461566581E+02  0.65132586298E+02 -0.33791601707E+03  0.34452934790E+03  0.00000000000E+00 0. -1.
         22    1    1    2    0    0 -0.27807445194E+02 -0.58652243790E+02  0.17214672171E+03  0.18397780710E+03  0.00000000000E+00 0. -1.
<mgrwt>
<rscale>  0 0.80785856E+03</rscale>
<asrwt>0</asrwt>
<pdfrwt beam="1">  1        2 0.13834050E+00 0.80785856E+03</pdfrwt>
<pdfrwt beam="2">  1       -2 0.27914806E-01 0.80785856E+03</pdfrwt>
<totfact> 0.34546614E+02</totfact>
</mgrwt>
</event>
<event>
 6    1  0.2325157E-005  0.3407178E+04  0.7818608E-02  0.8136147E-01
          2   -1    0    0  501    0  0.00000000000E+00  0.00000000000E+00  0.25391978433E+04  0.25391978433E+04  0.00000000000E+00 0.  1.
         -2   -1    0    0    0  501 -0.00000000000E+00 -0.00000000000E+00 -0.11429657341E+04  0.11429657341E+04  0.00000000000E+00 0. -1.
         23    2    1    2    0    0 -0.36705828024E+03 -0.91029038238E+03  0.22018268334E+04  0.24123828007E+04  0.90493157248E+02 0.  0.
         13    1    3    3    0    0 -0.15882834649E+03 -0.49760018408E+03  0.12245746342E+04  0.13313209311E+04  0.00000000000E+00 0. -1.
        -13    1    3    3    0    0 -0.20822993374E+03 -0.41269019830E+03  0.97725219916E+03  0.10810618696E+04  0.00000000000E+00 0.  1.
         22    1    1    2    0    0  0.36705828024E+03  0.91029038238E+03 -0.80559472411E+03  0.12697807767E+04  0.00000000000E+00 0. -1.
<mgrwt>
<rscale>  0 0.34071784E+04</rscale>
<asrwt>0</asrwt>
<pdfrwt beam="1">  1        2 0.39064582E+00 0.34071784E+04</pdfrwt>
<pdfrwt beam="2">  1       -2 0.17584088E+00 0.34071784E+04</pdfrwt>
<totfact> 0.52999238E-01</totfact>
</mgrwt>
</event>
<event>
 6    1  0.2325157E-005  0.4213118E+04  0.7818608E-02  0.7962882E-01
         -2   -1    0    0    0  501 -0.00000000000E+00  0.00000000000E+00  0.97625833811E+03  0.97625833811E+03  0.00000000000E+00 0. -1.
          2   -1    0    0  501    0  0.00000000000E+00 -0.00000000000E+00 -0.45455080593E+04  0.45455080593E+04  0.00000000000E+00 0.  1.
         23    2    1    2    0    0 -0.16874258483E+04  0.10101667073E+04 -0.79980446351E+03  0.21250518369E+04  0.91188594570E+02 0.  0.
         11    1    3    3    0    0 -0.10811643913E+04  0.69619097290E+03 -0.51065125176E+03  0.13836050783E+04  0.00000000000E+00 0.  1.
        -11    1    3    3    0    0 -0.60626145698E+03  0.31397573437E+03 -0.28915321175E+03  0.74144675861E+03  0.00000000000E+00 0. -1.
         22    1    1    2    0    0  0.16874258483E+04 -0.10101667073E+04 -0.27694452577E+04  0.33967145605E+04  0.00000000000E+00 0. -1.
<mgrwt>
<rscale>  0 0.42131177E+04</rscale>
<asrwt>0</asrwt>
<pdfrwt beam="1">  1        2 0.69930892E+00 0.42131177E+04</pdfrwt>
<pdfrwt beam="2">  1       -2 0.15019359E+00 0.42131177E+04</pdfrwt>
<totfact> 0.25479691E-02</totfact>
</mgrwt>
</event>
<event>
 6    1  0.2325157E-005  0.2497795E+04  0.7818608E-02  0.8403771E-01
         -2   -1    0    0    0  501 -0.00000000000E+00  0.00000000000E+00  0.65175310319E+03  0.65175310319E+03  0.00000000000E+00 0. -1.
          2   -1    0    0  501    0  0.00000000000E+00 -0.00000000000E+00 -0.23931534874E+04  0.23931534874E+04  0.00000000000E+00 0.  1.
         23    2    1    2    0    0 -0.14300636498E+03  0.70728252927E+03 -0.21117278168E+04  0.22338321156E+04  0.99559791859E+02 0.  0.
         13    1    3    3    0    0 -0.73812641963E+02  0.38050336032E+03 -0.12847448013E+04  0.13419390142E+04  0.00000000000E+00 0.  1.
        -13    1    3    3    0    0 -0.69193723019E+02  0.32677916895E+03 -0.82698301549E+03  0.89189310148E+03  0.00000000000E+00 0. -1.
         22    1    1    2    0    0  0.14300636498E+03 -0.70728252927E+03  0.37032743254E+03  0.81107447496E+03  0.00000000000E+00 0. -1.
<mgrwt>
<rscale>  0 0.24977952E+04</rscale>
<asrwt>0</asrwt>
<pdfrwt beam="1">  1        2 0.36817746E+00 0.24977952E+04</pdfrwt>
<pdfrwt beam="2">  1       -2 0.10026971E+00 0.24977952E+04</pdfrwt>
<totfact> 0.29365317E+00</totfact>
</mgrwt>
</event>
<event>
 6    1  0.2325157E-005  0.5493261E+04  0.7818608E-02  0.7756617E-01
         -1   -1    0    0    0  501 -0.00000000000E+00  0.00000000000E+00  0.20678483942E+04  0.20678483942E+04  0.00000000000E+00 0. -1.
          1   -1    0    0  501    0  0.00000000000E+00 -0.00000000000E+00 -0.36482266243E+04  0.36482266243E+04  0.00000000000E+00 0.  1.
         23    2    1    2    0    0  0.21260629255E+04  0.89597885573E+03  0.75888892695E+03  0.24304864098E+04  0.91815639073E+02 0.  0.
         13    1    3    3    0    0  0.70854290753E+03  0.29834939242E+03  0.29863983920E+03  0.82476127778E+03  0.00000000000E+00 0. -1.
        -13    1    3    3    0    0  0.14175200180E+04  0.59762946331E+03  0.46024908776E+03  0.16057251320E+04  0.00000000000E+00 0.  1.
         22    1    1    2    0    0 -0.21260629255E+04 -0.89597885573E+03 -0.23392671571E+04  0.32855886087E+04  0.00000000000E+00 0. -1.
<mgrwt>
<rscale>  0 0.54932612E+04</rscale>
<asrwt>0</asrwt>
<pdfrwt beam="1">  1        1 0.56126563E+00 0.54932612E+04</pdfrwt>
<pdfrwt beam="2">  1       -1 0.31813052E+00 0.54932612E+04</pdfrwt>
<totfact> 0.33192037E-03</totfact>
</mgrwt>
</event>
<event>
 6    1  0.2325157E-005  0.1062826E+04  0.7818608E-02  0.9242201E-01
         -2   -1    0    0    0  501 -0.00000000000E+00  0.00000000000E+00  0.79076031307E+03  0.79076031307E+03  0.00000000000E+00 0. -1.
          2   -1    0    0  501    0  0.00000000000E+00 -0.00000000000E+00 -0.35712425521E+03  0.35712425521E+03  0.00000000000E+00 0.  1.
         23    2    1    2    0    0 -0.23481134123E+03 -0.37198502551E+03 -0.96028936215E+02  0.45936860540E+03  0.91042483846E+02 0.  0.
         11    1    3    3    0    0 -0.15377708442E+03 -0.16631114966E+03 -0.68246406117E+02  0.23656788062E+03  0.00000000000E+00 0.  1.
        -11    1    3    3    0    0 -0.81034256807E+02 -0.20567387585E+03 -0.27782530099E+02  0.22280072478E+03  0.00000000000E+00 0. -1.
         22    1    1    2    0    0  0.23481134123E+03  0.37198502551E+03  0.52966499408E+03  0.68851596287E+03  0.00000000000E+00 0. -1.
<mgrwt>
<rscale>  0 0.10628258E+04</rscale>
<asrwt>0</asrwt>
<pdfrwt beam="1">  1        2 0.54942193E-01 0.10628258E+04</pdfrwt>
<pdfrwt beam="2">  1       -2 0.12165543E+00 0.10628258E+04</pdfrwt>
<totfact> 0.46109495E+01</totfact>
</mgrwt>
</event>
<event>
 6    1  0.2325157E-005  0.3125879E+04  0.7818608E-02  0.8208671E-01
         -2   -1    0    0    0  501 -0.00000000000E+00  0.00000000000E+00  0.13661435721E+04  0.13661435721E+04  0.00000000000E+00 0. -1.
          2   -1    0    0  501    0  0.00000000000E+00 -0.00000000000E+00 -0.17880845809E+04  0.17880845809E+04  0.00000000000E+00 0.  1.
         23    2    1    2    0    0 -0.49219647333E+00 -0.89592787775E+03  0.10794957015E+04  0.14058005168E+04  0.90978673786E+02 0.  0.
         13    1    3    3    0    0 -0.33295168313E+02 -0.36456642472E+03  0.39339870993E+03  0.53738235107E+03  0.00000000000E+00 0.  1.
        -13    1    3    3    0    0  0.32802971840E+02 -0.53136145304E+03  0.68609699153E+03  0.86841816570E+03  0.00000000000E+00 0. -1.
         22    1    1    2    0    0  0.49219647333E+00  0.89592787775E+03 -0.15014367102E+04  0.17484276362E+04  0.00000000000E+00 0.  1.
<mgrwt>
<rscale>  0 0.31258792E+04</rscale>
<asrwt>0</asrwt>
<pdfrwt beam="1">  1        2 0.27508994E+00 0.31258792E+04</pdfrwt>
<pdfrwt beam="2">  1       -2 0.21017593E+00 0.31258792E+04</pdfrwt>
<totfact> 0.84783414E-01</totfact>
</mgrwt>
</event>
<event>
 6    1  0.2325157E-005  0.3874303E+04  0.7818608E-02  0.8030395E-01
          2   -1    0    0  501    0  0.00000000000E+00  0.00000000000E+00  0.22200164381E+04  0.22200164381E+04  0.00000000000E+00 0.  1.
         -2   -1    0    0    0  501 -0.00000000000E+00 -0.00000000000E+00 -0.16903284089E+04  0.16903284089E+04  0.00000000000E+00 0. -1.
         23    2    1    2    0    0 -0.34869139484E+03 -0.18855169438E+04  0.53535443077E+03  0.19928485778E+04  0.89895791440E+02 0.  0.
         11    1    3    3    0    0 -0.17662592017E+03 -0.81362810478E+03  0.19465149898E+03  0.85503018346E+03  0.00000000000E+00 0. -1.
        -11    1    3    3    0    0 -0.17206547467E+03 -0.10718888390E+04  0.34070293180E+03  0.11378183944E+04  0.00000000000E+00 0.  1.
         22    1    1    2    0    0  0.34869139484E+03  0.18855169438E+04 -0.56664015397E+01  0.19174962692E+04  0.00000000000E+00 0. -1.
<mgrwt>
<rscale>  0 0.38743035E+04</rscale>
<asrwt>0</asrwt>
<pdfrwt beam="1">  1        2 0.34154099E+00 0.38743035E+04</pdfrwt>
<pdfrwt beam="2">  1       -2 0.26005052E+00 0.38743035E+04</pdfrwt>
<totfact> 0.22357636E-01</totfact>
</mgrwt>
</event>
<event>
 6    1  0.2325157E-005  0.1941321E+04  0.7818608E-02  0.8634557E-01
          2   -1    0    0  501    0  0.00000000000E+00  0.00000000000E+00  0.34258438134E+04  0.34258438134E+04  0.00000000000E+00 0.  1.
         -2   -1    0    0    0  501 -0.00000000000E+00 -0.00000000000E+00 -0.27502193965E+03  0.27502193965E+03  0.00000000000E+00 0. -1.
         23    2    1    2    0    0  0.16060201170E+03  0.93907678841E+03  0.19112297934E+04  0.21374570585E+04  0.90912775969E+02 0.  0.
         11    1    3    3    0    0  0.24722129076E+02  0.24423241110E+03  0.57603582540E+03  0.62616126233E+03  0.00000000000E+00 0. -1.
        -11    1    3    3    0    0  0.13587988263E+03  0.69484437731E+03  0.13351939680E+04  0.15112957961E+04  0.00000000000E+00 0.  1.
         22    1    1    2    0    0 -0.16060201170E+03 -0.93907678841E+03  0.12395920804E+04  0.15634086946E+04  0.00000000000E+00 0.  1.
<mgrwt>
<rscale>  0 0.19413214E+04</rscale>
<asrwt>0</asrwt>
<pdfrwt beam="1">  1        2 0.52705287E+00 0.19413214E+04</pdfrwt>
<pdfrwt beam="2">  1       -2 0.42311070E-01 0.19413214E+04</pdfrwt>
<totfact> 0.45495125E+00</totfact>
</mgrwt>
</event>
<event>
 6    1  0.2325157E-005  0.1351687E+04  0.7818608E-02  0.8989552E-01
         -2   -1    0    0    0  501 -0.00000000000E+00  0.00000000000E+00  0.34196650140E+03  0.34196650140E+03  0.00000000000E+00 0. -1.
          2   -1    0    0  501    0  0.00000000000E+00 -0.00000000000E+00 -0.13357001923E+04  0.13357001923E+04  0.00000000000E+00 0.  1.
         23    2    1    2    0    0  0.99795124855E+02  0.61518569083E+03 -0.18439518863E+03  0.65617694221E+03  0.90300015237E+02 0.  0.
         13    1    3    3    0    0  0.11010904281E+02  0.33623414855E+03 -0.84528213318E+02  0.34687124630E+03  0.00000000000E+00 0. -1.
        -13    1    3    3    0    0  0.88784220575E+02  0.27895154228E+03 -0.99866975312E+02  0.30930569591E+03  0.00000000000E+00 0.  1.
         22    1    1    2    0    0 -0.99795124855E+02 -0.61518569083E+03 -0.80933850227E+03  0.10214897515E+04  0.00000000000E+00 0.  1.
<mgrwt>
<rscale>  0 0.13516874E+04</rscale>
<asrwt>0</asrwt>
<pdfrwt beam="1">  1        2 0.20549234E+00 0.13516874E+04</pdfrwt>
<pdfrwt beam="2">  1       -2 0.52610230E-01 0.13516874E+04</pdfrwt>
<totfact> 0.52456420E+01</totfact>
</mgrwt>
</event>
<event>
 6    1  0.2325157E-005  0.2018543E+04  0.7818608E-02  0.8598000E-01
          2   -1    0    0  501    0  0.00000000000E+00  0.00000000000E+00  0.98668916701E+03  0.98668916701E+03  0.00000000000E+00 0.  1.
         -2   -1    0    0    0  501 -0.00000000000E+00 -0.00000000000E+00 -0.10323710127E+04  0.10323710127E+04  0.00000000000E+00 0. -1.
         23    2    1    2    0    0  0.65564003866E+03 -0.41922599155E+01 -0.78745841623E+03  0.10290531515E+04  0.94753343386E+02 0.  0.
         11    1    3    3    0    0  0.22050754854E+03  0.33226994847E+02 -0.22305413937E+03  0.31540570895E+03  0.00000000000E+00 0. -1.
        -11    1    3    3    0    0  0.43513249011E+03 -0.37419254762E+02 -0.56440427686E+03  0.71364744259E+03  0.00000000000E+00 0.  1.
         22    1    1    2    0    0 -0.65564003866E+03  0.41922599155E+01  0.74177657051E+03  0.99000702820E+03  0.00000000000E+00 0.  1.
<mgrwt>
<rscale>  0 0.20185433E+04</rscale>
<asrwt>0</asrwt>
<pdfrwt beam="1">  1        2 0.15179833E+00 0.20185433E+04</pdfrwt>
<pdfrwt beam="2">  1       -2 0.15882631E+00 0.20185433E+04</pdfrwt>
<totfact> 0.61239940E+00</totfact>
</mgrwt>
</event>
<event>
 6    1  0.2325157E-005  0.2611951E+04  0.7818608E-02  0.8364153E-01
          1   -1    0    0  501    0  0.00000000000E+00  0.00000000000E+00  0.18243705465E+04  0.18243705465E+04  0.00000000000E+00 0.  1.
         -1   -1    0    0    0  501 -0.00000000000E+00 -0.00000000000E+00 -0.93488218733E+03  0.93488218733E+03  0.00000000000E+00 0. -1.
         23    2    1    2    0    0  0.51792326499E+03  0.10431072234E+04 -0.17542928625E+03  0.11811631358E+04  0.89742582035E+02 0.  0.
         13    1    3    3    0    0  0.27678393208E+03  0.65567926886E+03 -0.10979256972E+03  0.72012433443E+03  0.00000000000E+00 0. -1.
        -13    1    3    3    0    0  0.24113933291E+03  0.38742795452E+03 -0.65636716526E+02  0.46103880137E+03  0.00000000000E+00 0.  1.
         22    1    1    2    0    0 -0.51792326499E+03 -0.10431072234E+04  0.10649176454E+04  0.15780895980E+04  0.00000000000E+00 0.  1.
<mgrwt>
<rscale>  0 0.26119506E+04</rscale>
<asrwt>0</asrwt>
<pdfrwt beam="1">  1        1 0.28067239E+00 0.26119506E+04</pdfrwt>
<pdfrwt beam="2">  1       -1 0.14382803E+00 0.26119506E+04</pdfrwt>
<totfact> 0.13469187E+00</totfact>
</mgrwt>
</event>
<event>
 6    1  0.2325157E-005  0.2270746E+04  0.7818608E-02  0.8489546E-01
         -2   -1    0    0    0  501 -0.00000000000E+00  0.00000000000E+00  0.87015544823E+03  0.87015544823E+03  0.00000000000E+00 0. -1.
          2   -1    0    0  501    0  0.00000000000E+00 -0.00000000000E+00 -0.14814272437E+04  0.14814272437E+04  0.00000000000E+00 0.  1.
         23    2    1    2    0    0  0.96767205686E+03  0.53486824354E+03 -0.47505579179E+02  0.11104922060E+04  0.91994086955E+02 0.  0.
         13    1    3    3    0    0  0.86305770909E+03  0.50792017514E+03 -0.40832338136E+02  0.10022568500E+04  0.00000000000E+00 0. -1.
        -13    1    3    3    0    0  0.10461434778E+03  0.26948068402E+02 -0.66732410428E+01  0.10823535604E+03  0.00000000000E+00 0.  1.
         22    1    1    2    0    0 -0.96767205686E+03 -0.53486824354E+03 -0.56376621630E+03  0.12410904859E+04  0.00000000000E+00 0.  1.
<mgrwt>
<rscale>  0 0.22707461E+04</rscale>
<asrwt>0</asrwt>
<pdfrwt beam="1">  1        2 0.22791188E+00 0.22707461E+04</pdfrwt>
<pdfrwt beam="2">  1       -2 0.13387007E+00 0.22707461E+04</pdfrwt>
<totfact> 0.47646037E+00</totfact>
</mgrwt>
</event>
<event>
 6    1  0.2325157E-005  0.1398951E+04  0.7818608E-02  0.8954578E-01
         -2   -1    0    0    0  501 -0.00000000000E+00  0.00000000000E+00  0.16463793225E+03  0.16463793225E+03  0.00000000000E+00 0. -1.
          2   -1    0    0  501    0  0.00000000000E+00 -0.00000000000E+00 -0.29717714831E+04  0.29717714831E+04  0.00000000000E+00 0.  1.
         23    2    1    2    0    0 -0.48221950143E+03 -0.33339092768E+03 -0.22527809502E+04  0.23295686851E+04  0.90460436520E+02 0.  0.
         13    1    3    3    0    0 -0.91483748127E+02 -0.72212851959E+02 -0.32312730167E+03  0.34350433075E+03  0.00000000000E+00 0. -1.
        -13    1    3    3    0    0 -0.39073575330E+03 -0.26117807572E+03 -0.19296536486E+04  0.19860643543E+04  0.00000000000E+00 0.  1.
         22    1    1    2    0    0  0.48221950143E+03  0.33339092768E+03 -0.55435260062E+03  0.80684073027E+03  0.00000000000E+00 0. -1.
<mgrwt>
<rscale>  0 0.13989515E+04</rscale>
<asrwt>0</asrwt>
<pdfrwt beam="1">  1        2 0.45719561E+00 0.13989515E+04</pdfrwt>
<pdfrwt beam="2">  1       -2 0.25328913E-01 0.13989515E+04</pdfrwt>
<totfact> 0.24947105E+01</totfact>
</mgrwt>
</event>
<event>
 6    1  0.2325157E-005  0.2256919E+04  0.7818608E-02  0.8495104E-01
          2   -1    0    0  501    0  0.00000000000E+00  0.00000000000E+00  0.30760723382E+04  0.30760723382E+04  0.00000000000E+00 0.  1.
         -2   -1    0    0    0  501 -0.00000000000E+00 -0.00000000000E+00 -0.41397636856E+03  0.41397636856E+03  0.00000000000E+00 0. -1.
         23    2    1    2    0    0  0.46602566008E+03 -0.26226621330E+03  0.28661530053E+04  0.29176827781E+04  0.10989204477E+03 0.  0.
         13    1    3    3    0    0  0.36145999865E+03 -0.15036513718E+03  0.21473721792E+04  0.21827666575E+04  0.00000000000E+00 0.  1.
        -13    1    3    3    0    0  0.10456566143E+03 -0.11190107611E+03  0.71878082615E+03  0.73491612067E+03  0.00000000000E+00 0. -1.
         22    1    1    2    0    0 -0.46602566008E+03  0.26226621330E+03 -0.20405703564E+03  0.57236592866E+03  0.00000000000E+00 0.  1.
<mgrwt>
<rscale>  0 0.22569194E+04</rscale>
<asrwt>0</asrwt>
<pdfrwt beam="1">  1        2 0.47324188E+00 0.22569194E+04</pdfrwt>
<pdfrwt beam="2">  1       -2 0.63688674E-01 0.22569194E+04</pdfrwt>
<totfact> 0.32384147E+00</totfact>
</mgrwt>
</event>
<event>
 6    1  0.2325157E-005  0.1960101E+04  0.7818608E-02  0.8625505E-01
         -2   -1    0    0    0  501 -0.00000000000E+00  0.00000000000E+00  0.22314654677E+04  0.22314654677E+04  0.00000000000E+00 0. -1.
          2   -1    0    0  501    0  0.00000000000E+00 -0.00000000000E+00 -0.43043421351E+03  0.43043421351E+03  0.00000000000E+00 0.  1.
         23    2    1    2    0    0  0.25209671867E+03  0.61404962570E+03  0.18777299204E+04  0.19936988254E+04  0.91409266268E+02 0.  0.
         11    1    3    3    0    0  0.12396803795E+03  0.32909985402E+03  0.11256121559E+04  0.11792699071E+04  0.00000000000E+00 0. -1.
        -11    1    3    3    0    0  0.12812868072E+03  0.28494977168E+03  0.75211776449E+03  0.81442891824E+03  0.00000000000E+00 0.  1.
         22    1    1    2    0    0 -0.25209671867E+03 -0.61404962570E+03 -0.76698666178E+02  0.66820085587E+03  0.00000000000E+00 0.  1.
<mgrwt>
<rscale>  0 0.19601011E+04</rscale>
<asrwt>0</asrwt>
<pdfrwt beam="1">  1        2 0.66220650E-01 0.19601011E+04</pdfrwt>
<pdfrwt beam="2">  1       -2 0.34330237E+00 0.19601011E+04</pdfrwt>
<totfact> 0.11720512E+00</totfact>
</mgrwt>
</event>
<event>
 6    1  0.2325157E-005  0.2674075E+04  0.7818608E-02  0.8343466E-01
          1   -1    0    0  501    0  0.00000000000E+00  0.00000000000E+00  0.33032000293E+04  0.33032000293E+04  0.00000000000E+00 0.  1.
         -1   -1    0    0    0  501 -0.00000000000E+00 -0.00000000000E+00 -0.54119330390E+03  0.54119330390E+03  0.00000000000E+00 0. -1.
         23    2    1    2    0    0 -0.73164498094E+03 -0.10096725361E+04  0.69546532827E+03  0.14308199752E+04  0.93972178102E+02 0.  0.
         11    1    3    3    0    0 -0.31888458979E+03 -0.44873735116E+03  0.36034230861E+03  0.65795073623E+03  0.00000000000E+00 0.  1.
        -11    1    3    3    0    0 -0.41276039115E+03 -0.56093518498E+03  0.33512301966E+03  0.77286923898E+03  0.00000000000E+00 0. -1.
         22    1    1    2    0    0  0.73164498094E+03  0.10096725361E+04  0.20665413972E+04  0.24135733580E+04  0.00000000000E+00 0.  1.
<mgrwt>
<rscale>  0 0.26740753E+04</rscale>
<asrwt>0</asrwt>
<pdfrwt beam="1">  1        1 0.50818461E+00 0.26740753E+04</pdfrwt>
<pdfrwt beam="2">  1       -1 0.83260510E-01 0.26740753E+04</pdfrwt>
<totfact> 0.44487399E-01</totfact>
</mgrwt>
</event>
<event>
 6    1  0.2325157E-005  0.3341511E+04  0.7818608E-02  0.8152413E-01
          2   -1    0    0  501    0  0.00000000000E+00  0.00000000000E+00  0.19617519379E+04  0.19617519379E+04  0.00000000000E+00 0.  1.
         -2   -1    0    0    0  501 -0.00000000000E+00 -0.00000000000E+00 -0.14229237302E+04  0.14229237302E+04  0.00000000000E+00 0. -1.
         23    2    1    2    0    0  0.47092020423E+03  0.10012439735E+04 -0.99691052841E+03  0.14918606219E+04  0.86960798338E+02 0.  0.
         13    1    3    3    0    0  0.21077719064E+03  0.39880431497E+03 -0.35652190969E+03  0.57496067502E+03  0.00000000000E+00 0. -1.
        -13    1    3    3    0    0  0.26014301359E+03  0.60243965853E+03 -0.64038861872E+03  0.91689994693E+03  0.00000000000E+00 0.  1.
         22    1    1    2    0    0 -0.47092020423E+03 -0.10012439735E+04  0.15357387361E+04  0.18928150461E+04  0.00000000000E+00 0.  1.
<mgrwt>
<rscale>  0 0.33415107E+04</rscale>
<asrwt>0</asrwt>
<pdfrwt beam="1">  1        2 0.30180799E+00 0.33415107E+04</pdfrwt>
<pdfrwt beam="2">  1       -2 0.21891134E+00 0.33415107E+04</pdfrwt>
<totfact> 0.58655810E-01</totfact>
</mgrwt>
</event>
<event>
 6    1  0.2325157E-005  0.3383327E+04  0.7818608E-02  0.8142011E-01
         -2   -1    0    0    0  501 -0.00000000000E+00  0.00000000000E+00  0.15106884339E+04  0.15106884339E+04  0.00000000000E+00 0.  1.
          2   -1    0    0  501    0  0.00000000000E+00 -0.00000000000E+00 -0.18943182071E+04  0.18943182071E+04  0.00000000000E+00 0. -1.
         23    2    1    2    0    0 -0.61426706644E+03  0.27601021611E+02 -0.17766813094E+04  0.18822859089E+04  0.91202644448E+02 0.  0.
         11    1    3    3    0    0 -0.42545033334E+02  0.20044717539E+02 -0.18976152751E+03  0.19550270557E+03  0.00000000000E+00 0.  1.
        -11    1    3    3    0    0 -0.57172203311E+03  0.75563040722E+01 -0.15869197819E+04  0.16867832033E+04  0.00000000000E+00 0. -1.
         22    1    1    2    0    0  0.61426706644E+03 -0.27601021611E+02  0.13930515363E+04  0.15227207321E+04  0.00000000000E+00 0.  1.
<mgrwt>
<rscale>  0 0.33833265E+04</rscale>
<asrwt>0</asrwt>
<pdfrwt beam="1">  1        2 0.29143357E+00 0.33833265E+04</pdfrwt>
<pdfrwt beam="2">  1       -2 0.23241361E+00 0.33833265E+04</pdfrwt>
<totfact> 0.52400705E-01</totfact>
</mgrwt>
</event>
<event>
 6    1  0.2325157E-005  0.1418499E+04  0.7818608E-02  0.8940536E-01
          2   -1    0    0  501    0  0.00000000000E+00  0.00000000000E+00  0.38686206791E+03  0.38686206791E+03  0.00000000000E+00 0.  1.
         -2   -1    0    0    0  501 -0.00000000000E+00 -0.00000000000E+00 -0.13002950886E+04  0.13002950886E+04  0.00000000000E+00 0. -1.
         23    2    1    2    0    0 -0.60191844409E+03 -0.36825552303E+03 -0.45148655725E+03  0.84376372596E+03  0.10089187430E+03 0.  0.
         13    1    3    3    0    0 -0.43018835378E+03 -0.20785588528E+03 -0.29795186971E+03  0.56306429956E+03  0.00000000000E+00 0. -1.
        -13    1    3    3    0    0 -0.17173009031E+03 -0.16039963774E+03 -0.15353468753E+03  0.28069942640E+03  0.00000000000E+00 0.  1.
         22    1    1    2    0    0  0.60191844409E+03  0.36825552303E+03 -0.46194646340E+03  0.84339343051E+03  0.00000000000E+00 0. -1.
<mgrwt>
<rscale>  0 0.14184990E+04</rscale>
<asrwt>0</asrwt>
<pdfrwt beam="1">  1        2 0.59517241E-01 0.14184990E+04</pdfrwt>
<pdfrwt beam="2">  1       -2 0.20004540E+00 0.14184990E+04</pdfrwt>
<totfact> 0.10657086E+01</totfact>
</mgrwt>
</event>
<event>
 6    1  0.2325157E-005  0.3713543E+04  0.7818608E-02  0.8064967E-01
         -2   -1    0    0    0  501 -0.00000000000E+00  0.00000000000E+00  0.94253046057E+03  0.94253046057E+03  0.00000000000E+00 0. -1.
          2   -1    0    0  501    0  0.00000000000E+00 -0.00000000000E+00 -0.36578130348E+04  0.36578130348E+04  0.00000000000E+00 0.  1.
         23    2    1    2    0    0 -0.38684446796E+03 -0.10062717814E+04  0.51260074416E+03  0.11971887446E+04  0.90938587973E+02 0.  0.
         13    1    3    3    0    0 -0.71992219705E+02 -0.22211949696E+03  0.15101436243E+03  0.27807424960E+03  0.00000000000E+00 0. -1.
        -13    1    3    3    0    0 -0.31485224826E+03 -0.78415228448E+03  0.36158638174E+03  0.91911449502E+03  0.00000000000E+00 0.  1.
         22    1    1    2    0    0  0.38684446796E+03  0.10062717814E+04 -0.32278833184E+04  0.34031547508E+04  0.00000000000E+00 0.  1.
<mgrwt>
<rscale>  0 0.37135429E+04</rscale>
<asrwt>0</asrwt>
<pdfrwt beam="1">  1        2 0.56274045E+00 0.37135429E+04</pdfrwt>
<pdfrwt beam="2">  1       -2 0.14500469E+00 0.37135429E+04</pdfrwt>
<totfact> 0.16550555E-01</totfact>
</mgrwt>
</event>
<event>
 6    1  0.2325157E-005  0.2935598E+04  0.7818608E-02  0.8262364E-01
         -2   -1    0    0    0  501 -0.00000000000E+00  0.00000000000E+00  0.13607822326E+04  0.13607822326E+04  0.00000000000E+00 0. -1.
          2   -1    0    0  501    0  0.00000000000E+00 -0.00000000000E+00 -0.15832318896E+04  0.15832318896E+04  0.00000000000E+00 0.  1.
         23    2    1    2    0    0  0.10843205964E+04 -0.98488010157E+03 -0.17874286445E+03  0.14785277682E+04  0.91407764967E+02 0.  0.
         11    1    3    3    0    0  0.57076917820E+03 -0.55206293517E+03 -0.58401202598E+02  0.79621708072E+03  0.00000000000E+00 0. -1.
        -11    1    3    3    0    0  0.51355141817E+03 -0.43281716640E+03 -0.12034166185E+03  0.68231068745E+03  0.00000000000E+00 0.  1.
         22    1    1    2    0    0 -0.10843205964E+04  0.98488010157E+03 -0.43706792551E+02  0.14654863540E+04  0.00000000000E+00 0.  1.
<mgrwt>
<rscale>  0 0.29355979E+04</rscale>
<asrwt>0</asrwt>
<pdfrwt beam="1">  1        2 0.24357414E+00 0.29355979E+04</pdfrwt>
<pdfrwt beam="2">  1       -2 0.20935111E+00 0.29355979E+04</pdfrwt>
<totfact> 0.11339215E+00</totfact>
</mgrwt>
</event>
<event>
 6    1  0.2325157E-005  0.1139508E+04  0.7818608E-02  0.9167518E-01
         -2   -1    0    0    0  501 -0.00000000000E+00  0.00000000000E+00  0.59679897238E+03  0.59679897238E+03  0.00000000000E+00 0. -1.
          2   -1    0    0  501    0  0.00000000000E+00 -0.00000000000E+00 -0.54393437884E+03  0.54393437884E+03  0.00000000000E+00 0.  1.
         23    2    1    2    0    0 -0.23815329350E+03  0.52783358389E+02 -0.48447289482E+03  0.55061925163E+03  0.94681045215E+02 0.  0.
         13    1    3    3    0    0 -0.26236416209E+02 -0.21957154064E+02 -0.40484573120E+02  0.53004403692E+02  0.00000000000E+00 0. -1.
        -13    1    3    3    0    0 -0.21191687729E+03  0.74740512453E+02 -0.44398832170E+03  0.49761484794E+03  0.00000000000E+00 0.  1.
         22    1    1    2    0    0  0.23815329350E+03 -0.52783358389E+02  0.53733748837E+03  0.59011409959E+03  0.00000000000E+00 0. -1.
<mgrwt>
<rscale>  0 0.11395078E+04</rscale>
<asrwt>0</asrwt>
<pdfrwt beam="1">  1        2 0.83682212E-01 0.11395078E+04</pdfrwt>
<pdfrwt beam="2">  1       -2 0.91815227E-01 0.11395078E+04</pdfrwt>
<totfact> 0.55775981E+01</totfact>
</mgrwt>
</event>
<event>
 6    1  0.2325157E-005  0.3987554E+04  0.7818608E-02  0.8007062E-01
          2   -1    0    0  501    0  0.00000000000E+00  0.00000000000E+00  0.17508911050E+04  0.17508911050E+04  0.00000000000E+00 0.  1.
         -2   -1    0    0    0  501 -0.00000000000E+00 -0.00000000000E+00 -0.22703568577E+04  0.22703568577E+04  0.00000000000E+00 0. -1.
         23    2    1    2    0    0  0.19704216456E+04 -0.46377368437E+02  0.36677508274E+02  0.19733203155E+04  0.89081458260E+02 0.  0.
         11    1    3    3    0    0  0.76561848262E+03 -0.54603754359E+02 -0.91522427916E+01  0.76761773981E+03  0.00000000000E+00 0. -1.
        -11    1    3    3    0    0  0.12048031629E+04  0.82263859220E+01  0.45829751065E+02  0.12057025757E+04  0.00000000000E+00 0.  1.
         22    1    1    2    0    0 -0.19704216456E+04  0.46377368437E+02 -0.55614326090E+03  0.20479276472E+04  0.00000000000E+00 0. -1.
<mgrwt>
<rscale>  0 0.39875545E+04</rscale>
<asrwt>0</asrwt>
<pdfrwt beam="1">  1        2 0.26936786E+00 0.39875545E+04</pdfrwt>
<pdfrwt beam="2">  1       -2 0.34928567E+00 0.39875545E+04</pdfrwt>
<totfact> 0.11403227E-01</totfact>
</mgrwt>
</event>
<event>
 6    1  0.2325157E-005  0.2724285E+04  0.7818608E-02  0.8327168E-01
         -2   -1    0    0    0  501 -0.00000000000E+00  0.00000000000E+00  0.11127397843E+04  0.11127397843E+04  0.00000000000E+00 0. -1.
          2   -1    0    0  501    0  0.00000000000E+00 -0.00000000000E+00 -0.16674452567E+04  0.16674452567E+04  0.00000000000E+00 0.  1.
         23    2    1    2    0    0  0.37924516536E+02  0.13597635263E+04 -0.31276564383E+03  0.13985447126E+04  0.87805744891E+02 0.  0.
         11    1    3    3    0    0  0.38216538051E+02  0.49617317904E+03 -0.14991815135E+03  0.51973433549E+03  0.00000000000E+00 0. -1.
        -11    1    3    3    0    0 -0.29202151514E+00  0.86359034722E+03 -0.16284749248E+03  0.87881037710E+03  0.00000000000E+00 0.  1.
         22    1    1    2    0    0 -0.37924516536E+02 -0.13597635263E+04 -0.24193982863E+03  0.13816403284E+04  0.00000000000E+00 0. -1.
<mgrwt>
<rscale>  0 0.27242854E+04</rscale>
<asrwt>0</asrwt>
<pdfrwt beam="1">  1        2 0.25653004E+00 0.27242854E+04</pdfrwt>
<pdfrwt beam="2">  1       -2 0.17119074E+00 0.27242854E+04</pdfrwt>
<totfact> 0.18716085E+00</totfact>
</mgrwt>
</event>
<event>
 6    1  0.2325157E-005  0.4977941E+03  0.7818608E-02  0.1014356E+00
         -2   -1    0    0    0  501 -0.00000000000E+00  0.00000000000E+00  0.11704018866E+03  0.11704018866E+03  0.00000000000E+00 0. -1.
          2   -1    0    0  501    0  0.00000000000E+00 -0.00000000000E+00 -0.52930306106E+03  0.52930306106E+03  0.00000000000E+00 0.  1.
         23    2    1    2    0    0  0.45188658278E+02 -0.61328958123E+02 -0.50940343077E+03  0.52289470165E+03  0.90131891067E+02 0.  0.
         11    1    3    3    0    0  0.69008291026E+02 -0.58095851961E+02 -0.33868467985E+03  0.35049191804E+03  0.00000000000E+00 0. -1.
        -11    1    3    3    0    0 -0.23819632748E+02 -0.32331061620E+01 -0.17071875092E+03  0.17240278361E+03  0.00000000000E+00 0.  1.
         22    1    1    2    0    0 -0.45188658278E+02  0.61328958123E+02  0.97140558368E+02  0.12344854807E+03  0.00000000000E+00 0. -1.
<mgrwt>
<rscale>  0 0.49779405E+03</rscale>
<asrwt>0</asrwt>
<pdfrwt beam="1">  1        2 0.81431240E-01 0.49779405E+03</pdfrwt>
<pdfrwt beam="2">  1       -2 0.18006183E-01 0.49779405E+03</pdfrwt>
<totfact> 0.14752240E+03</totfact>
</mgrwt>
</event>
<event>
 6    1  0.2325157E-005  0.9784424E+03  0.7818608E-02  0.9332510E-01
          2   -1    0    0  501    0  0.00000000000E+00  0.00000000000E+00  0.48001352278E+03  0.48001352278E+03  0.00000000000E+00 0.  1.
         -2   -1    0    0    0  501 -0.00000000000E+00 -0.00000000000E+00 -0.49860545542E+03  0.49860545542E+03  0.00000000000E+00 0. -1.
         23    2    1    2    0    0 -0.43738624173E+03  0.60083953814E+02  0.19079324624E+03  0.48998930340E+03  0.93651741478E+02 0.  0.
         13    1    3    3    0    0 -0.37004559369E+03  0.47163912643E+02  0.12105857978E+03  0.39219045858E+03  0.00000000000E+00 0.  1.
        -13    1    3    3    0    0 -0.67340648037E+02  0.12920041170E+02  0.69734666462E+02  0.97798844822E+02  0.00000000000E+00 0. -1.
         22    1    1    2    0    0  0.43738624173E+03 -0.60083953814E+02 -0.20938517887E+03  0.48862967479E+03  0.00000000000E+00 0. -1.
<mgrwt>
<rscale>  0 0.97844236E+03</rscale>
<asrwt>0</asrwt>
<pdfrwt beam="1">  1        2 0.73848234E-01 0.97844236E+03</pdfrwt>
<pdfrwt beam="2">  1       -2 0.76708531E-01 0.97844236E+03</pdfrwt>
<totfact> 0.98087997E+01</totfact>
</mgrwt>
</event>
<event>
 6    1  0.2840764E-005  0.2519460E+04  0.7818608E-02  0.8396086E-01
         -4   -1    0    0    0  501 -0.00000000000E+00  0.00000000000E+00  0.17327964570E+04  0.17327964570E+04  0.00000000000E+00 0. -1.
          4   -1    0    0  501    0  0.00000000000E+00 -0.00000000000E+00 -0.91581398985E+03  0.91581398985E+03  0.00000000000E+00 0.  1.
         23    2    1    2    0    0 -0.10251423744E+04 -0.52114382472E+03 -0.12707729996E+03  0.11607406213E+04  0.93071886028E+02 0.  0.
         11    1    3    3    0    0 -0.54916702843E+03 -0.32878852081E+03 -0.84137725253E+02  0.64557375516E+03  0.00000000000E+00 0. -1.
        -11    1    3    3    0    0 -0.47597534598E+03 -0.19235530391E+03 -0.42939574705E+02  0.51516686617E+03  0.00000000000E+00 0.  1.
         22    1    1    2    0    0  0.10251423744E+04  0.52114382472E+03  0.94405976713E+03  0.14878698256E+04  0.00000000000E+00 0. -1.
<mgrwt>
<rscale>  0 0.25194597E+04</rscale>
<asrwt>0</asrwt>
<pdfrwt beam="1">  1        4 0.14089446E+00 0.25194597E+04</pdfrwt>
<pdfrwt beam="2">  1       -4 0.26658407E+00 0.25194597E+04</pdfrwt>
<totfact> 0.31101585E-02</totfact>
</mgrwt>
</event>
<event>
 6    1  0.2325157E-005  0.7349811E+04  0.7818608E-02  0.7542397E-01
          2   -1    0    0  501    0  0.00000000000E+00  0.00000000000E+00  0.40923129944E+04  0.40923129944E+04  0.00000000000E+00 0.  1.
         -2   -1    0    0    0  501 -0.00000000000E+00 -0.00000000000E+00 -0.33000723924E+04  0.33000723924E+04  0.00000000000E+00 0. -1.
         23    2    1    2    0    0 -0.29844317236E+04  0.10410656579E+03  0.25494478739E+04  0.39274974684E+04  0.88775068515E+02 0.  0.
         11    1    3    3    0    0 -0.18631671747E+04  0.66729427729E+02  0.16478562731E+04  0.24882272875E+04  0.00000000000E+00 0. -1.
        -11    1    3    3    0    0 -0.11212645489E+04  0.37377138064E+02  0.90159160084E+03  0.14392701810E+04  0.00000000000E+00 0.  1.
         22    1    1    2    0    0  0.29844317236E+04 -0.10410656579E+03 -0.17572072719E+04  0.34648879183E+04  0.00000000000E+00 0. -1.
<mgrwt>
<rscale>  0 0.73498106E+04</rscale>
<asrwt>0</asrwt>
<pdfrwt beam="1">  1        2 0.62958662E+00 0.73498106E+04</pdfrwt>
<pdfrwt beam="2">  1       -2 0.50770344E+00 0.73498106E+04</pdfrwt>
<totfact> 0.26088200E-04</totfact>
</mgrwt>
</event>
<event>
 6    1  0.2325157E-005  0.3998007E+04  0.7818608E-02  0.8004949E-01
          2   -1    0    0  501    0  0.00000000000E+00  0.00000000000E+00  0.26389126532E+04  0.26389126532E+04  0.00000000000E+00 0.  1.
         -2   -1    0    0    0  501 -0.00000000000E+00 -0.00000000000E+00 -0.15142655345E+04  0.15142655345E+04  0.00000000000E+00 0. -1.
         23    2    1    2    0    0 -0.15896202957E+04  0.75650302642E+03  0.15442459763E+04  0.23434122596E+04  0.87726107383E+02 0.  0.
         13    1    3    3    0    0 -0.34709214583E+03  0.16893119316E+03  0.29159869786E+03  0.48377733133E+03  0.00000000000E+00 0. -1.
        -13    1    3    3    0    0 -0.12425281498E+04  0.58757183326E+03  0.12526472784E+04  0.18596349283E+04  0.00000000000E+00 0.  1.
         22    1    1    2    0    0  0.15896202957E+04 -0.75650302642E+03 -0.41959885756E+03  0.18097659281E+04  0.00000000000E+00 0. -1.
<mgrwt>
<rscale>  0 0.39980067E+04</rscale>
<asrwt>0</asrwt>
<pdfrwt beam="1">  1        2 0.40598656E+00 0.39980067E+04</pdfrwt>
<pdfrwt beam="2">  1       -2 0.23296393E+00 0.39980067E+04</pdfrwt>
<totfact> 0.18658196E-01</totfact>
</mgrwt>
</event>
<event>
 6    1  0.2325157E-005  0.2015506E+04  0.7818608E-02  0.8599405E-01
          2   -1    0    0  501    0  0.00000000000E+00  0.00000000000E+00  0.17560506927E+04  0.17560506927E+04  0.00000000000E+00 0.  1.
         -2   -1    0    0    0  501 -0.00000000000E+00 -0.00000000000E+00 -0.57832371261E+03  0.57832371261E+03  0.00000000000E+00 0. -1.
         23    2    1    2    0    0 -0.49110789571E+03 -0.71582013053E+02 -0.42388447735E+03  0.65763047423E+03  0.80553340532E+02 0.  0.
         13    1    3    3    0    0 -0.30259262974E+03 -0.68768579062E+01 -0.23717718951E+03  0.38452907559E+03  0.00000000000E+00 0. -1.
        -13    1    3    3    0    0 -0.18851526597E+03 -0.64705155147E+02 -0.18670728784E+03  0.27310139864E+03  0.00000000000E+00 0.  1.
         22    1    1    2    0    0  0.49110789571E+03  0.71582013053E+02  0.16016114575E+04  0.16767439311E+04  0.00000000000E+00 0.  1.
<mgrwt>
<rscale>  0 0.20155056E+04</rscale>
<asrwt>0</asrwt>
<pdfrwt beam="1">  1        2 0.27016164E+00 0.20155056E+04</pdfrwt>
<pdfrwt beam="2">  1       -2 0.88972879E-01 0.20155056E+04</pdfrwt>
<totfact> 0.91905615E+00</totfact>
</mgrwt>
</event>
<event>
 6    1  0.2325157E-005  0.1323567E+04  0.7818608E-02  0.9011082E-01
          2   -1    0    0  501    0  0.00000000000E+00  0.00000000000E+00  0.30010104270E+04  0.30010104270E+04  0.00000000000E+00 0.  1.
         -2   -1    0    0    0  501 -0.00000000000E+00 -0.00000000000E+00 -0.14593661063E+03  0.14593661063E+03  0.00000000000E+00 0. -1.
         23    2    1    2    0    0 -0.45598439053E+03 -0.21542819834E+03  0.24412753540E+04  0.24945972537E+04  0.94122428041E+02 0.  0.
         13    1    3    3    0    0 -0.26186965981E+03 -0.72310439348E+02  0.13261755408E+04  0.13537156582E+04  0.00000000000E+00 0. -1.
        -13    1    3    3    0    0 -0.19411473072E+03 -0.14311775899E+03  0.11150998132E+04  0.11408815955E+04  0.00000000000E+00 0.  1.
         22    1    1    2    0    0  0.45598439053E+03  0.21542819834E+03  0.41379846241E+03  0.65234978389E+03  0.00000000000E+00 0. -1.
<mgrwt>
<rscale>  0 0.13235668E+04</rscale>
<asrwt>0</asrwt>
<pdfrwt beam="1">  1        2 0.46169387E+00 0.13235668E+04</pdfrwt>
<pdfrwt beam="2">  1       -2 0.22451788E-01 0.13235668E+04</pdfrwt>
<totfact> 0.29947724E+01</totfact>
</mgrwt>
</event>
<event>
 6    1  0.2325157E-005  0.2045559E+04  0.7818608E-02  0.8585612E-01
          2   -1    0    0  501    0  0.00000000000E+00  0.00000000000E+00  0.12129985948E+04  0.12129985948E+04  0.00000000000E+00 0.  1.
         -2   -1    0    0    0  501 -0.00000000000E+00 -0.00000000000E+00 -0.86238972105E+03  0.86238972105E+03  0.00000000000E+00 0. -1.
         23    2    1    2    0    0 -0.21512328457E+03  0.22267537217E+03  0.11624545358E+04  0.12065064320E+04  0.92167639858E+02 0.  0.
         11    1    3    3    0    0 -0.42021415219E+02  0.52101706818E+02  0.13475207807E+03  0.15046099074E+03  0.00000000000E+00 0. -1.
        -11    1    3    3    0    0 -0.17310186935E+03  0.17057366535E+03  0.10277024577E+04  0.10560454413E+04  0.00000000000E+00 0.  1.
         22    1    1    2    0    0  0.21512328457E+03 -0.22267537217E+03 -0.81184566207E+03  0.86888188378E+03  0.00000000000E+00 0. -1.
<mgrwt>
<rscale>  0 0.20455586E+04</rscale>
<asrwt>0</asrwt>
<pdfrwt beam="1">  1        2 0.18661517E+00 0.20455586E+04</pdfrwt>
<pdfrwt beam="2">  1       -2 0.13267534E+00 0.20455586E+04</pdfrwt>
<totfact> 0.71031104E+00</totfact>
</mgrwt>
</event>
<event>
 6    1  0.2325157E-005  0.2132856E+04  0.7818608E-02  0.8546907E-01
          2   -1    0    0  501    0  0.00000000000E+00  0.00000000000E+00  0.41291819141E+03  0.41291819141E+03  0.00000000000E+00 0.  1.
         -2   -1    0    0    0  501 -0.00000000000E+00 -0.00000000000E+00 -0.27542219396E+04  0.27542219396E+04  0.00000000000E+00 0. -1.
         23    2    1    2    0    0  0.29599873712E+03  0.83242804386E+03 -0.20546189188E+04  0.22383022054E+04  0.89365322338E+02 0.  0.
         11    1    3    3    0    0  0.16608686535E+03  0.38799791039E+03 -0.88951817090E+03  0.98456579347E+03  0.00000000000E+00 0.  1.
        -11    1    3    3    0    0  0.12991187177E+03  0.44443013347E+03 -0.11651007478E+04  0.12537364119E+04  0.00000000000E+00 0. -1.
         22    1    1    2    0    0 -0.29599873712E+03 -0.83242804386E+03 -0.28668482941E+03  0.92883792558E+03  0.00000000000E+00 0.  1.
<mgrwt>
<rscale>  0 0.21328557E+04</rscale>
<asrwt>0</asrwt>
<pdfrwt beam="1">  1        2 0.63525878E-01 0.21328557E+04</pdfrwt>
<pdfrwt beam="2">  1       -2 0.42372644E+00 0.21328557E+04</pdfrwt>
<totfact> 0.36584898E-01</totfact>
</mgrwt>
</event>
<event>
 6    1  0.2325157E-005  0.2340293E+04  0.7818608E-02  0.8462201E-01
         -2   -1    0    0    0  501 -0.00000000000E+00  0.00000000000E+00  0.12333158074E+04  0.12333158074E+04  0.00000000000E+00 0. -1.
          2   -1    0    0  501    0  0.00000000000E+00 -0.00000000000E+00 -0.11102127800E+04  0.11102127800E+04  0.00000000000E+00 0.  1.
         23    2    1    2    0    0 -0.47554954484E+03  0.49034057418E+03  0.10107742277E+04  0.12234654606E+04  0.92854432927E+02 0.  0.
         11    1    3    3    0    0 -0.41170035709E+03  0.42783198169E+03  0.81581365346E+03  0.10090041158E+04  0.00000000000E+00 0.  1.
        -11    1    3    3    0    0 -0.63849187745E+02  0.62508592493E+02  0.19496057423E+03  0.21446134481E+03  0.00000000000E+00 0. -1.
         22    1    1    2    0    0  0.47554954484E+03 -0.49034057418E+03 -0.88767120030E+03  0.11200631268E+04  0.00000000000E+00 0.  1.
<mgrwt>
<rscale>  0 0.23402931E+04</rscale>
<asrwt>0</asrwt>
<pdfrwt beam="1">  1        2 0.17080197E+00 0.23402931E+04</pdfrwt>
<pdfrwt beam="2">  1       -2 0.18974089E+00 0.23402931E+04</pdfrwt>
<totfact> 0.30192989E+00</totfact>
</mgrwt>
</event>
<event>
 6    1  0.2325157E-005  0.5479779E+04  0.7818608E-02  0.7758478E-01
          2   -1    0    0  501    0  0.00000000000E+00  0.00000000000E+00  0.35196964966E+04  0.35196964966E+04  0.00000000000E+00 0.  1.
         -2   -1    0    0    0  501 -0.00000000000E+00 -0.00000000000E+00 -0.21328529488E+04  0.21328529488E+04  0.00000000000E+00 0. -1.
         23    2    1    2    0    0 -0.45901829375E+03  0.25025471706E+04 -0.35293916365E+03  0.25702963705E+04  0.91745540400E+02 0.  0.
         11    1    3    3    0    0 -0.32596395151E+03  0.19806980787E+04 -0.27082814555E+03  0.20255283906E+04  0.00000000000E+00 0.  1.
        -11    1    3    3    0    0 -0.13305434224E+03  0.52184909184E+03 -0.82111018109E+02  0.54476797991E+03  0.00000000000E+00 0. -1.
         22    1    1    2    0    0  0.45901829375E+03 -0.25025471706E+04  0.17397827114E+04  0.30822530749E+04  0.00000000000E+00 0.  1.
<mgrwt>
<rscale>  0 0.54797792E+04</rscale>
<asrwt>0</asrwt>
<pdfrwt beam="1">  1        2 0.54149177E+00 0.54797792E+04</pdfrwt>
<pdfrwt beam="2">  1       -2 0.32813122E+00 0.54797792E+04</pdfrwt>
<totfact> 0.11743562E-02</totfact>
</mgrwt>
</event>
<event>
 6    1  0.2325157E-005  0.2944474E+04  0.7818608E-02  0.8259767E-01
         -2   -1    0    0    0  501 -0.00000000000E+00  0.00000000000E+00  0.67517035533E+03  0.67517035533E+03  0.00000000000E+00 0. -1.
          2   -1    0    0  501    0  0.00000000000E+00 -0.00000000000E+00 -0.32102749029E+04  0.32102749029E+04  0.00000000000E+00 0.  1.
         23    2    1    2    0    0 -0.61664910734E+03 -0.11016344384E+04 -0.27223458284E+03  0.12942225672E+04  0.83939429904E+02 0.  0.
         11    1    3    3    0    0 -0.33700377124E+03 -0.65071628122E+03 -0.19254804912E+03  0.75767933303E+03  0.00000000000E+00 0. -1.
        -11    1    3    3    0    0 -0.27964533610E+03 -0.45091815715E+03 -0.79686533722E+02  0.53654323414E+03  0.00000000000E+00 0.  1.
         22    1    1    2    0    0  0.61664910734E+03  0.11016344384E+04 -0.22628699647E+04  0.25912226910E+04  0.00000000000E+00 0.  1.
<mgrwt>
<rscale>  0 0.29444745E+04</rscale>
<asrwt>0</asrwt>
<pdfrwt beam="1">  1        2 0.49388844E+00 0.29444745E+04</pdfrwt>
<pdfrwt beam="2">  1       -2 0.10387236E+00 0.29444745E+04</pdfrwt>
<totfact> 0.82778257E-01</totfact>
</mgrwt>
</event>
<event>
 6    1  0.2325157E-005  0.6728370E+03  0.7818608E-02  0.9764846E-01
          2   -1    0    0  501    0  0.00000000000E+00  0.00000000000E+00  0.11341291742E+03  0.11341291742E+03  0.00000000000E+00 0.  1.
         -2   -1    0    0    0  501 -0.00000000000E+00 -0.00000000000E+00 -0.99792352211E+03  0.99792352211E+03  0.00000000000E+00 0. -1.
         23    2    1    2    0    0 -0.99924340050E+02  0.18639276384E+03 -0.86699564167E+03  0.89912449341E+03  0.10961877505E+03 0.  0.
         11    1    3    3    0    0 -0.12149055481E+03  0.14203600830E+03 -0.63457485900E+03  0.66152810541E+03  0.00000000000E+00 0. -1.
        -11    1    3    3    0    0  0.21566214763E+02  0.44356755535E+02 -0.23242078266E+03  0.23759638801E+03  0.00000000000E+00 0.  1.
         22    1    1    2    0    0  0.99924340050E+02 -0.18639276384E+03 -0.17514963031E+02  0.21221194612E+03  0.00000000000E+00 0.  1.
<mgrwt>
<rscale>  0 0.67283703E+03</rscale>
<asrwt>0</asrwt>
<pdfrwt beam="1">  1        2 0.17448141E-01 0.67283703E+03</pdfrwt>
<pdfrwt beam="2">  1       -2 0.15352670E+00 0.67283703E+03</pdfrwt>
<totfact> 0.95478658E+01</totfact>
</mgrwt>
</event>
<event>
 6    1  0.2325157E-005  0.4224124E+04  0.7818608E-02  0.7960799E-01
         -2   -1    0    0    0  501 -0.00000000000E+00  0.00000000000E+00  0.33430559833E+04  0.33430559833E+04  0.00000000000E+00 0. -1.
          2   -1    0    0  501    0  0.00000000000E+00 -0.00000000000E+00 -0.13343495332E+04  0.13343495332E+04  0.00000000000E+00 0.  1.
         23    2    1    2    0    0  0.19721984591E+04  0.19046404782E+03  0.19788244129E+03  0.19932060256E+04  0.88710115596E+02 0.  0.
         13    1    3    3    0    0  0.10393770695E+04  0.10354454191E+03  0.59909903153E+02  0.10462386731E+04  0.00000000000E+00 0. -1.
        -13    1    3    3    0    0  0.93282138962E+03  0.86919505900E+02  0.13797253814E+03  0.94696735251E+03  0.00000000000E+00 0.  1.
         22    1    1    2    0    0 -0.19721984591E+04 -0.19046404782E+03  0.18108240088E+04  0.26841994908E+04  0.00000000000E+00 0. -1.
<mgrwt>
<rscale>  0 0.42241237E+04</rscale>
<asrwt>0</asrwt>
<pdfrwt beam="1">  1        2 0.20528455E+00 0.42241237E+04</pdfrwt>
<pdfrwt beam="2">  1       -2 0.51431630E+00 0.42241237E+04</pdfrwt>
<totfact> 0.16555255E-02</totfact>
</mgrwt>
</event>
<event>
 6    1  0.2325157E-005  0.2459398E+04  0.7818608E-02  0.8417595E-01
         -2   -1    0    0    0  501 -0.00000000000E+00  0.00000000000E+00  0.10394133563E+04  0.10394133563E+04  0.00000000000E+00 0. -1.
          2   -1    0    0  501    0  0.00000000000E+00 -0.00000000000E+00 -0.14548203480E+04  0.14548203480E+04  0.00000000000E+00 0.  1.
         23    2    1    2    0    0 -0.11710228554E+04 -0.30904764338E+03 -0.41434012394E+03  0.12831159924E+04  0.88904093928E+02 0.  0.
         11    1    3    3    0    0 -0.67721188793E+03 -0.13574784621E+03 -0.25107812774E+03  0.73490383394E+03  0.00000000000E+00 0. -1.
        -11    1    3    3    0    0 -0.49381096749E+03 -0.17329979717E+03 -0.16326199620E+03  0.54821215849E+03  0.00000000000E+00 0.  1.
         22    1    1    2    0    0  0.11710228554E+04  0.30904764338E+03 -0.10668678081E+01  0.12111177119E+04  0.00000000000E+00 0. -1.
<mgrwt>
<rscale>  0 0.24593981E+04</rscale>
<asrwt>0</asrwt>
<pdfrwt beam="1">  1        2 0.22381852E+00 0.24593981E+04</pdfrwt>
<pdfrwt beam="2">  1       -2 0.15990975E+00 0.24593981E+04</pdfrwt>
<totfact> 0.30402251E+00</totfact>
</mgrwt>
</event>
<event>
 6    1  0.2325157E-005  0.2312908E+04  0.7818608E-02  0.8472849E-01
          2   -1    0    0  501    0  0.00000000000E+00  0.00000000000E+00  0.96367672306E+03  0.96367672306E+03  0.00000000000E+00 0.  1.
         -2   -1    0    0    0  501 -0.00000000000E+00 -0.00000000000E+00 -0.13877949751E+04  0.13877949751E+04  0.00000000000E+00 0. -1.
         23    2    1    2    0    0  0.11128531170E+04  0.31394948594E+02 -0.52341252710E+03  0.12337565932E+04  0.93632019749E+02 0.  0.
         13    1    3    3    0    0  0.72767256930E+03 -0.22834361704E+02 -0.35267818597E+03  0.80895653718E+03  0.00000000000E+00 0. -1.
        -13    1    3    3    0    0  0.38518054766E+03  0.54229310299E+02 -0.17073434113E+03  0.42480005606E+03  0.00000000000E+00 0.  1.
         22    1    1    2    0    0 -0.11128531170E+04 -0.31394948594E+02  0.99294275055E+02  0.11177151049E+04  0.00000000000E+00 0.  1.
<mgrwt>
<rscale>  0 0.23129079E+04</rscale>
<asrwt>0</asrwt>
<pdfrwt beam="1">  1        2 0.14825796E+00 0.23129079E+04</pdfrwt>
<pdfrwt beam="2">  1       -2 0.21350692E+00 0.23129079E+04</pdfrwt>
<totfact> 0.26177820E+00</totfact>
</mgrwt>
</event>
<event>
 6    1  0.2325157E-005  0.1786932E+04  0.7818608E-02  0.8713280E-01
         -2   -1    0    0    0  501 -0.00000000000E+00  0.00000000000E+00  0.97061671246E+03  0.97061671246E+03  0.00000000000E+00 0. -1.
          2   -1    0    0  501    0  0.00000000000E+00 -0.00000000000E+00 -0.82244754617E+03  0.82244754617E+03  0.00000000000E+00 0.  1.
         23    2    1    2    0    0  0.29578483247E+03  0.38136024044E+03 -0.67736256638E+03  0.83680752441E+03  0.92208928345E+02 0.  0.
         11    1    3    3    0    0  0.24711220713E+03  0.36081703197E+03 -0.58489429666E+03  0.73031137999E+03  0.00000000000E+00 0. -1.
        -11    1    3    3    0    0  0.48672625337E+02  0.20543208466E+02 -0.92468269716E+02  0.10649614442E+03  0.00000000000E+00 0.  1.
         22    1    1    2    0    0 -0.29578483247E+03 -0.38136024044E+03  0.82553173267E+03  0.95625673422E+03  0.00000000000E+00 0. -1.
<mgrwt>
<rscale>  0 0.17869318E+04</rscale>
<asrwt>0</asrwt>
<pdfrwt beam="1">  1        2 0.12653039E+00 0.17869318E+04</pdfrwt>
<pdfrwt beam="2">  1       -2 0.14932565E+00 0.17869318E+04</pdfrwt>
<totfact> 0.95079780E+00</totfact>
</mgrwt>
</event>
<event>
 6    1  0.2325157E-005  0.3492710E+04  0.7818608E-02  0.8115520E-01
         -2   -1    0    0    0  501 -0.00000000000E+00  0.00000000000E+00  0.15889322709E+04  0.15889322709E+04  0.00000000000E+00 0. -1.
          2   -1    0    0  501    0  0.00000000000E+00 -0.00000000000E+00 -0.19193741268E+04  0.19193741268E+04  0.00000000000E+00 0.  1.
         23    2    1    2    0    0  0.49813289572E+03 -0.28068680226E+03  0.14908819691E+04  0.15993428208E+04  0.90812718714E+02 0.  0.
         11    1    3    3    0    0  0.22117126549E+03 -0.14659429178E+03  0.57806005828E+03  0.63605034867E+03  0.00000000000E+00 0.  1.
        -11    1    3    3    0    0  0.27696163023E+03 -0.13409251049E+03  0.91282191081E+03  0.96329247212E+03  0.00000000000E+00 0. -1.
         22    1    1    2    0    0 -0.49813289572E+03  0.28068680226E+03 -0.18213238250E+04  0.19089635770E+04  0.00000000000E+00 0.  1.
<mgrwt>
<rscale>  0 0.34927098E+04</rscale>
<asrwt>0</asrwt>
<pdfrwt beam="1">  1        2 0.29528833E+00 0.34927098E+04</pdfrwt>
<pdfrwt beam="2">  1       -2 0.24445112E+00 0.34927098E+04</pdfrwt>
<totfact> 0.42348487E-01</totfact>
</mgrwt>
</event>
<event>
 6    1  0.2325157E-005  0.1834945E+04  0.7818608E-02  0.8687934E-01
         -2   -1    0    0    0  501 -0.00000000000E+00  0.00000000000E+00  0.87295956060E+03  0.87295956060E+03  0.00000000000E+00 0. -1.
          2   -1    0    0  501    0  0.00000000000E+00 -0.00000000000E+00 -0.96425564030E+03  0.96425564030E+03  0.00000000000E+00 0.  1.
         23    2    1    2    0    0  0.36186661296E+03 -0.15683021793E+03 -0.87266415669E+03  0.96195567677E+03  0.90955103644E+02 0.  0.
         11    1    3    3    0    0  0.12711162313E+03 -0.92123816250E+02 -0.41192800861E+03  0.44082745664E+03  0.00000000000E+00 0.  1.
        -11    1    3    3    0    0  0.23475498983E+03 -0.64706401679E+02 -0.46073614808E+03  0.52112822013E+03  0.00000000000E+00 0. -1.
         22    1    1    2    0    0 -0.36186661296E+03  0.15683021793E+03  0.78136807699E+03  0.87525952412E+03  0.00000000000E+00 0. -1.
<mgrwt>
<rscale>  0 0.18349454E+04</rscale>
<asrwt>0</asrwt>
<pdfrwt beam="1">  1        2 0.14834702E+00 0.18349454E+04</pdfrwt>
<pdfrwt beam="2">  1       -2 0.13430147E+00 0.18349454E+04</pdfrwt>
<totfact> 0.99997863E+00</totfact>
</mgrwt>
</event>
<event>
 6    1  0.2325157E-005  0.5337581E+04  0.7818608E-02  0.7778442E-01
          2   -1    0    0  501    0  0.00000000000E+00  0.00000000000E+00  0.38105279827E+04  0.38105279827E+04  0.00000000000E+00 0.  1.
         -2   -1    0    0    0  501 -0.00000000000E+00 -0.00000000000E+00 -0.18691483516E+04  0.18691483516E+04  0.00000000000E+00 0. -1.
         23    2    1    2    0    0 -0.24010083448E+04  0.95907404709E+03  0.27024820488E+03  0.26011467595E+04  0.90919045165E+02 0.  0.
         11    1    3    3    0    0 -0.16430218357E+04  0.66934391568E+03  0.14473750324E+03  0.17800255545E+04  0.00000000000E+00 0. -1.
        -11    1    3    3    0    0 -0.75798650909E+03  0.28973013141E+03  0.12551070164E+03  0.82112120496E+03  0.00000000000E+00 0.  1.
         22    1    1    2    0    0  0.24010083448E+04 -0.95907404709E+03  0.16711314262E+04  0.30785295748E+04  0.00000000000E+00 0.  1.
<mgrwt>
<rscale>  0 0.53375808E+04</rscale>
<asrwt>0</asrwt>
<pdfrwt beam="1">  1        2 0.58623507E+00 0.53375808E+04</pdfrwt>
<pdfrwt beam="2">  1       -2 0.28756129E+00 0.53375808E+04</pdfrwt>
<totfact> 0.12893757E-02</totfact>
</mgrwt>
</event>
<event>
 6    1  0.2415411E-005  0.3089923E+04  0.7818608E-02  0.8218509E-01
          1   -1    0    0  501    0  0.00000000000E+00  0.00000000000E+00  0.21994369444E+04  0.21994369444E+04  0.00000000000E+00 0. -1.
         -1   -1    0    0    0  501 -0.00000000000E+00 -0.00000000000E+00 -0.10852349164E+04  0.10852349164E+04  0.00000000000E+00 0.  1.
         23    2    1    2    0    0  0.11181301196E+04  0.54836873445E+02 -0.57222641746E+03  0.12605021672E+04  0.90557128426E+02 0.  0.
         13    1    3    3    0    0  0.87165060018E+03  0.35823408574E+02 -0.40337888495E+03  0.96113090171E+03  0.00000000000E+00 0. -1.
        -13    1    3    3    0    0  0.24647951946E+03  0.19013464871E+02 -0.16884753251E+03  0.29937126548E+03  0.00000000000E+00 0.  1.
         22    1    1    2    0    0 -0.11181301196E+04 -0.54836873445E+02  0.16864284454E+04  0.20241696936E+04  0.00000000000E+00 0. -1.
<mgrwt>
<rscale>  0 0.30899228E+04</rscale>
<asrwt>0</asrwt>
<pdfrwt beam="1">  1        1 0.33837491E+00 0.30899228E+04</pdfrwt>
<pdfrwt beam="2">  1       -1 0.16695922E+00 0.30899228E+04</pdfrwt>
<totfact> 0.47714325E-01</totfact>
</mgrwt>
</event>
<event>
 6    1  0.2325157E-005  0.2588575E+04  0.7818608E-02  0.8372092E-01
          2   -1    0    0  501    0  0.00000000000E+00  0.00000000000E+00  0.11887072195E+04  0.11887072195E+04  0.00000000000E+00 0.  1.
         -2   -1    0    0    0  501 -0.00000000000E+00 -0.00000000000E+00 -0.14092449776E+04  0.14092449776E+04  0.00000000000E+00 0. -1.
         23    2    1    2    0    0 -0.98623254899E+03 -0.68640545541E+03 -0.58877041423E+03  0.13412094315E+04  0.91569910989E+02 0.  0.
         11    1    3    3    0    0 -0.32682326301E+03 -0.27916274495E+03 -0.22240382738E+03  0.48395118127E+03  0.00000000000E+00 0. -1.
        -11    1    3    3    0    0 -0.65940928598E+03 -0.40724271046E+03 -0.36636658685E+03  0.85725825025E+03  0.00000000000E+00 0.  1.
         22    1    1    2    0    0  0.98623254899E+03  0.68640545541E+03  0.36823265607E+03  0.12567427656E+04  0.00000000000E+00 0.  1.
<mgrwt>
<rscale>  0 0.25885746E+04</rscale>
<asrwt>0</asrwt>
<pdfrwt beam="1">  1        2 0.18287803E+00 0.25885746E+04</pdfrwt>
<pdfrwt beam="2">  1       -2 0.21680692E+00 0.25885746E+04</pdfrwt>
<totfact> 0.17639928E+00</totfact>
</mgrwt>
</event>
<event>
 6    1  0.2325157E-005  0.2048906E+04  0.7818608E-02  0.8584091E-01
         -2   -1    0    0    0  501 -0.00000000000E+00  0.00000000000E+00  0.34966444365E+03  0.34966444365E+03  0.00000000000E+00 0. -1.
          2   -1    0    0  501    0  0.00000000000E+00 -0.00000000000E+00 -0.30014607930E+04  0.30014607930E+04  0.00000000000E+00 0.  1.
         23    2    1    2    0    0 -0.16859516149E+03 -0.10083231923E+04 -0.13348512779E+04  0.16839466890E+04  0.93319497731E+02 0.  0.
         11    1    3    3    0    0 -0.91660468602E+02 -0.36191243611E+03 -0.54106433538E+03  0.65736813730E+03  0.00000000000E+00 0.  1.
        -11    1    3    3    0    0 -0.76934692887E+02 -0.64641075618E+03 -0.79378694253E+03  0.10265785517E+04  0.00000000000E+00 0. -1.
         22    1    1    2    0    0  0.16859516149E+03  0.10083231923E+04 -0.13169450714E+04  0.16671785476E+04  0.00000000000E+00 0. -1.
<mgrwt>
<rscale>  0 0.20489062E+04</rscale>
<asrwt>0</asrwt>
<pdfrwt beam="1">  1        2 0.46176320E+00 0.20489062E+04</pdfrwt>
<pdfrwt beam="2">  1       -2 0.53794530E-01 0.20489062E+04</pdfrwt>
<totfact> 0.52452196E+00</totfact>
</mgrwt>
</event>
<event>
 6    1  0.2325157E-005  0.5480376E+03  0.7818608E-02  0.1001949E+00
          2   -1    0    0  501    0  0.00000000000E+00  0.00000000000E+00  0.26012988580E+03  0.26012988580E+03  0.00000000000E+00 0.  1.
         -2   -1    0    0    0  501 -0.00000000000E+00 -0.00000000000E+00 -0.28864924532E+03  0.28864924532E+03  0.00000000000E+00 0. -1.
         23    2    1    2    0    0  0.11359263418E+03  0.12810774749E+03 -0.21846295900E+03  0.29305769578E+03  0.94031202779E+02 0.  0.
         11    1    3    3    0    0 -0.16620900902E+01  0.60163289294E+02 -0.52370073722E+02  0.79781003653E+02  0.00000000000E+00 0. -1.
        -11    1    3    3    0    0  0.11525472427E+03  0.67944458194E+02 -0.16609288528E+03  0.21327669213E+03  0.00000000000E+00 0.  1.
         22    1    1    2    0    0 -0.11359263418E+03 -0.12810774749E+03  0.18994359948E+03  0.25572143533E+03  0.00000000000E+00 0.  1.
<mgrwt>
<rscale>  0 0.54803757E+03</rscale>
<asrwt>0</asrwt>
<pdfrwt beam="1">  1        2 0.40019982E-01 0.54803757E+03</pdfrwt>
<pdfrwt beam="2">  1       -2 0.44407576E-01 0.54803757E+03</pdfrwt>
<totfact> 0.62319190E+02</totfact>
</mgrwt>
</event>
<event>
 6    1  0.2325157E-005  0.1144514E+04  0.7818608E-02  0.9162860E-01
         -2   -1    0    0    0  501 -0.00000000000E+00  0.00000000000E+00  0.15196729364E+03  0.15196729364E+03  0.00000000000E+00 0. -1.
          2   -1    0    0  501    0  0.00000000000E+00 -0.00000000000E+00 -0.21549239556E+04  0.21549239556E+04  0.00000000000E+00 0.  1.
         23    2    1    2    0    0  0.72137080762E+02 -0.25406556765E+02 -0.21435642467E+04  0.21468295597E+04  0.90333975603E+02 0.  0.
         11    1    3    3    0    0  0.93080700724E+02 -0.25386525653E+02 -0.16465565652E+04  0.16493807974E+04  0.00000000000E+00 0.  1.
        -11    1    3    3    0    0 -0.20943619961E+02 -0.20031112238E-01 -0.49700768150E+03  0.49744876227E+03  0.00000000000E+00 0. -1.
         22    1    1    2    0    0 -0.72137080762E+02  0.25406556765E+02  0.14060758477E+03  0.16006168949E+03  0.00000000000E+00 0. -1.
<mgrwt>
<rscale>  0 0.11445138E+04</rscale>
<asrwt>0</asrwt>
<pdfrwt beam="1">  1        2 0.33152673E+00 0.11445138E+04</pdfrwt>
<pdfrwt beam="2">  1       -2 0.23379586E-01 0.11445138E+04</pdfrwt>
<totfact> 0.88053112E+01</totfact>
</mgrwt>
</event>
<event>
 6    1  0.3504660E-005  0.3843678E+04  0.7818608E-02  0.8036846E-01
         -2   -1    0    0    0  501 -0.00000000000E+00  0.00000000000E+00  0.17938997751E+04  0.17938997751E+04  0.00000000000E+00 0. -1.
          2   -1    0    0  501    0  0.00000000000E+00 -0.00000000000E+00 -0.20589022987E+04  0.20589022987E+04  0.00000000000E+00 0.  1.
         23    2    1    2    0    0  0.93004785582E+03  0.54208562652E+03  0.14619702238E+04  0.18177883856E+04  0.90287535556E+02 0.  0.
         13    1    3    3    0    0  0.49226567925E+03  0.30889624905E+03  0.71977345807E+03  0.92510335779E+03  0.00000000000E+00 0.  1.
        -13    1    3    3    0    0  0.43778217657E+03  0.23318937747E+03  0.74219676571E+03  0.89268502784E+03  0.00000000000E+00 0. -1.
         22    1    1    2    0    0 -0.93004785582E+03 -0.54208562652E+03 -0.17269727474E+04  0.20350136881E+04  0.00000000000E+00 0.  1.
<mgrwt>
<rscale>  0 0.38436776E+04</rscale>
<asrwt>0</asrwt>
<pdfrwt beam="1">  1        2 0.31675420E+00 0.38436776E+04</pdfrwt>
<pdfrwt beam="2">  1       -2 0.27598458E+00 0.38436776E+04</pdfrwt>
<totfact> 0.22053975E-01</totfact>
</mgrwt>
</event>
<event>
 6    1  0.2325157E-005  0.5565757E+04  0.7818608E-02  0.7746705E-01
          2   -1    0    0  501    0  0.00000000000E+00  0.00000000000E+00  0.39535564101E+04  0.39535564101E+04  0.00000000000E+00 0.  1.
         -2   -1    0    0    0  501 -0.00000000000E+00 -0.00000000000E+00 -0.19588473847E+04  0.19588473847E+04  0.00000000000E+00 0. -1.
         23    2    1    2    0    0  0.21998190763E+04  0.16168275373E+04  0.15665342917E+04  0.31489514510E+04  0.92359622852E+02 0.  0.
         11    1    3    3    0    0  0.13761802744E+04  0.98751422695E+03  0.10182837457E+04  0.19763497369E+04  0.00000000000E+00 0. -1.
        -11    1    3    3    0    0  0.82363880193E+03  0.62931331038E+03  0.54825054602E+03  0.11726017141E+04  0.00000000000E+00 0.  1.
         22    1    1    2    0    0 -0.21998190763E+04 -0.16168275373E+04  0.42817473369E+03  0.27634523438E+04  0.00000000000E+00 0. -1.
<mgrwt>
<rscale>  0 0.55657573E+04</rscale>
<asrwt>0</asrwt>
<pdfrwt beam="1">  1        2 0.60823944E+00 0.55657573E+04</pdfrwt>
<pdfrwt beam="2">  1       -2 0.30136114E+00 0.55657573E+04</pdfrwt>
<totfact> 0.80546683E-03</totfact>
</mgrwt>
</event>
<event>
 6    1  0.2325157E-005  0.9531204E+03  0.7818608E-02  0.9361511E-01
         -2   -1    0    0    0  501 -0.00000000000E+00  0.00000000000E+00  0.15182314932E+03  0.15182314932E+03  0.00000000000E+00 0. -1.
          2   -1    0    0  501    0  0.00000000000E+00 -0.00000000000E+00 -0.14958828378E+04  0.14958828378E+04  0.00000000000E+00 0.  1.
         23    2    1    2    0    0  0.36671478392E+03  0.24561906618E+03 -0.38960219343E+03  0.59613688892E+03  0.93706258050E+02 0.  0.
         11    1    3    3    0    0  0.28501386863E+03  0.14345745910E+03 -0.29650646187E+03  0.43557895933E+03  0.00000000000E+00 0.  1.
        -11    1    3    3    0    0  0.81700915292E+02  0.10216160709E+03 -0.93095731551E+02  0.16055792959E+03  0.00000000000E+00 0. -1.
         22    1    1    2    0    0 -0.36671478392E+03 -0.24561906618E+03 -0.95445749506E+03  0.10515690982E+04  0.00000000000E+00 0.  1.
<mgrwt>
<rscale>  0 0.95312044E+03</rscale>
<asrwt>0</asrwt>
<pdfrwt beam="1">  1        2 0.23013583E+00 0.95312044E+03</pdfrwt>
<pdfrwt beam="2">  1       -2 0.23357407E-01 0.95312044E+03</pdfrwt>
<totfact> 0.20699231E+02</totfact>
</mgrwt>
</event>
<event>
 6    1  0.2325157E-005  0.3407439E+04  0.7818608E-02  0.8136083E-01
          1   -1    0    0  501    0  0.00000000000E+00  0.00000000000E+00  0.73409475852E+03  0.73409475852E+03  0.00000000000E+00 0.  1.
         -1   -1    0    0    0  501 -0.00000000000E+00 -0.00000000000E+00 -0.39540669611E+04  0.39540669611E+04  0.00000000000E+00 0. -1.
         23    2    1    2    0    0  0.44933801239E+03 -0.15653191274E+04 -0.92921337380E+03  0.18775203993E+04  0.97553756684E+02 0.  0.
         11    1    3    3    0    0  0.37524692574E+03 -0.14142870576E+04 -0.83177212074E+03  0.16831111067E+04  0.00000000000E+00 0.  1.
        -11    1    3    3    0    0  0.74091086660E+02 -0.15103206984E+03 -0.97441253062E+02  0.19440929258E+03  0.00000000000E+00 0. -1.
         22    1    1    2    0    0 -0.44933801239E+03  0.15653191274E+04 -0.22907588288E+04  0.28106413204E+04  0.00000000000E+00 0.  1.
<mgrwt>
<rscale>  0 0.34074388E+04</rscale>
<asrwt>0</asrwt>
<pdfrwt beam="1">  1        1 0.11293765E+00 0.34074388E+04</pdfrwt>
<pdfrwt beam="2">  1       -1 0.60831800E+00 0.34074388E+04</pdfrwt>
<totfact> 0.84615595E-03</totfact>
</mgrwt>
</event>
<event>
 6    1  0.2325157E-005  0.1840429E+04  0.7818608E-02  0.8685091E-01
          2   -1    0    0  501    0  0.00000000000E+00  0.00000000000E+00  0.22715928809E+04  0.22715928809E+04  0.00000000000E+00 0.  1.
         -2   -1    0    0    0  501 -0.00000000000E+00 -0.00000000000E+00 -0.37277562277E+03  0.37277562277E+03  0.00000000000E+00 0. -1.
         23    2    1    2    0    0  0.34270017037E+03  0.87039142103E+02  0.21688830531E+04  0.21994474403E+04  0.92174429933E+02 0.  0.
         13    1    3    3    0    0  0.15091357633E+03 -0.26261295539E+01  0.77265572934E+03  0.78726023662E+03  0.00000000000E+00 0. -1.
        -13    1    3    3    0    0  0.19178659404E+03  0.89665271657E+02  0.13962273238E+04  0.14121872037E+04  0.00000000000E+00 0.  1.
         22    1    1    2    0    0 -0.34270017037E+03 -0.87039142103E+02 -0.27006579497E+03  0.44492106339E+03  0.00000000000E+00 0. -1.
<mgrwt>
<rscale>  0 0.18404287E+04</rscale>
<asrwt>0</asrwt>
<pdfrwt beam="1">  1        2 0.34947582E+00 0.18404287E+04</pdfrwt>
<pdfrwt beam="2">  1       -2 0.57350097E-01 0.18404287E+04</pdfrwt>
<totfact> 0.12616523E+01</totfact>
</mgrwt>
</event>
<event>
 6    1  0.2325157E-005  0.1796782E+04  0.7818608E-02  0.8708013E-01
          2   -1    0    0  501    0  0.00000000000E+00  0.00000000000E+00  0.91578245157E+03  0.91578245157E+03  0.00000000000E+00 0.  1.
         -2   -1    0    0    0  501 -0.00000000000E+00 -0.00000000000E+00 -0.88132934074E+03  0.88132934074E+03  0.00000000000E+00 0. -1.
         23    2    1    2    0    0 -0.28519328867E+03 -0.20372008599E+03  0.84220636997E+03  0.91659920694E+03  0.89473187045E+02 0.  0.
         13    1    3    3    0    0 -0.45092869314E+02 -0.17106516409E+02  0.20434592411E+03  0.20996013067E+03  0.00000000000E+00 0.  1.
        -13    1    3    3    0    0 -0.24010041936E+03 -0.18661356958E+03  0.63786044586E+03  0.70663907628E+03  0.00000000000E+00 0. -1.
         22    1    1    2    0    0  0.28519328867E+03  0.20372008599E+03 -0.80775325914E+03  0.88051258537E+03  0.00000000000E+00 0. -1.
<mgrwt>
<rscale>  0 0.17967815E+04</rscale>
<asrwt>0</asrwt>
<pdfrwt beam="1">  1        2 0.14088961E+00 0.17967815E+04</pdfrwt>
<pdfrwt beam="2">  1       -2 0.13558913E+00 0.17967815E+04</pdfrwt>
<totfact> 0.10539631E+01</totfact>
</mgrwt>
</event>
<event>
 6    1  0.2325157E-005  0.2467005E+04  0.7818608E-02  0.8414835E-01
          2   -1    0    0  501    0  0.00000000000E+00  0.00000000000E+00  0.15058368364E+04  0.15058368364E+04  0.00000000000E+00 0.  1.
         -2   -1    0    0    0  501 -0.00000000000E+00 -0.00000000000E+00 -0.10104204466E+04  0.10104204466E+04  0.00000000000E+00 0. -1.
         23    2    1    2    0    0  0.28857396731E+02 -0.12299214426E+04  0.18286414127E+03  0.12469155590E+04  0.88428575208E+02 0.  0.
         11    1    3    3    0    0  0.21163962855E+02 -0.79326188314E+03  0.75105837326E+02  0.79709046875E+03  0.00000000000E+00 0.  1.
        -11    1    3    3    0    0  0.76934338760E+01 -0.43665955942E+03  0.10775830394E+03  0.44982509025E+03  0.00000000000E+00 0. -1.
         22    1    1    2    0    0 -0.28857396731E+02  0.12299214426E+04  0.31255224859E+03  0.12693417240E+04  0.00000000000E+00 0. -1.
<mgrwt>
<rscale>  0 0.24670049E+04</rscale>
<asrwt>0</asrwt>
<pdfrwt beam="1">  1        2 0.23166720E+00 0.24670049E+04</pdfrwt>
<pdfrwt beam="2">  1       -2 0.15544930E+00 0.24670049E+04</pdfrwt>
<totfact> 0.30693392E+00</totfact>
</mgrwt>
</event>
<event>
 6    1  0.2325157E-005  0.8429840E+03  0.7818608E-02  0.9499802E-01
          2   -1    0    0  501    0  0.00000000000E+00  0.00000000000E+00  0.10909401691E+04  0.10909401691E+04  0.00000000000E+00 0. -1.
         -2   -1    0    0    0  501 -0.00000000000E+00 -0.00000000000E+00 -0.16284625018E+03  0.16284625018E+03  0.00000000000E+00 0.  1.
         23    2    1    2    0    0  0.18350912992E+03  0.23531362872E+03  0.44155615434E+02  0.32083678023E+03  0.10926306122E+03 0.  0.
         13    1    3    3    0    0  0.22570770661E+02  0.91414939353E+02  0.46321280093E+02  0.10493708503E+03  0.00000000000E+00 0. -1.
        -13    1    3    3    0    0  0.16093835926E+03  0.14389868937E+03 -0.21656646597E+01  0.21589969520E+03  0.00000000000E+00 0.  1.
         22    1    1    2    0    0 -0.18350912992E+03 -0.23531362872E+03  0.88393830347E+03  0.93294963903E+03  0.00000000000E+00 0. -1.
<mgrwt>
<rscale>  0 0.84298402E+03</rscale>
<asrwt>0</asrwt>
<pdfrwt beam="1">  1        2 0.16783694E+00 0.84298402E+03</pdfrwt>
<pdfrwt beam="2">  1       -2 0.25053270E-01 0.84298402E+03</pdfrwt>
<totfact> 0.31626802E+02</totfact>
</mgrwt>
</event>
<event>
 6    1  0.2325157E-005  0.2061077E+04  0.7818608E-02  0.8578586E-01
         -2   -1    0    0    0  501 -0.00000000000E+00  0.00000000000E+00  0.70219591985E+03  0.70219591985E+03  0.00000000000E+00 0. -1.
          2   -1    0    0  501    0  0.00000000000E+00 -0.00000000000E+00 -0.15124126517E+04  0.15124126517E+04  0.00000000000E+00 0.  1.
         23    2    1    2    0    0 -0.10159894413E+04  0.96080590558E+02 -0.54232930749E+03  0.11595115633E+04  0.94233555339E+02 0.  0.
         13    1    3    3    0    0 -0.67618659437E+03  0.61507066946E+02 -0.30980452462E+03  0.74631780976E+03  0.00000000000E+00 0. -1.
        -13    1    3    3    0    0 -0.33980284693E+03  0.34573523612E+02 -0.23252478287E+03  0.41319375354E+03  0.00000000000E+00 0.  1.
         22    1    1    2    0    0  0.10159894413E+04 -0.96080590558E+02 -0.26788742438E+03  0.10550970083E+04  0.00000000000E+00 0.  1.
<mgrwt>
<rscale>  0 0.20610774E+04</rscale>
<asrwt>0</asrwt>
<pdfrwt beam="1">  1        2 0.23267886E+00 0.20610774E+04</pdfrwt>
<pdfrwt beam="2">  1       -2 0.10803014E+00 0.20610774E+04</pdfrwt>
<totfact> 0.79268607E+00</totfact>
</mgrwt>
</event>
<event>
 6    1  0.2325157E-005  0.2125442E+04  0.7818608E-02  0.8550118E-01
         -1   -1    0    0    0  501 -0.00000000000E+00  0.00000000000E+00  0.13577277729E+04  0.13577277729E+04  0.00000000000E+00 0. -1.
          1   -1    0    0  501    0  0.00000000000E+00 -0.00000000000E+00 -0.83181318725E+03  0.83181318725E+03  0.00000000000E+00 0.  1.
         23    2    1    2    0    0  0.57115080808E+03 -0.69078064315E+03 -0.32089849296E+03  0.95646207677E+03  0.91938669697E+02 0.  0.
         11    1    3    3    0    0  0.14424038398E+03 -0.23137036569E+03 -0.74442630853E+02  0.28262915593E+03  0.00000000000E+00 0. -1.
        -11    1    3    3    0    0  0.42691042411E+03 -0.45941027745E+03 -0.24645586211E+03  0.67383292084E+03  0.00000000000E+00 0.  1.
         22    1    1    2    0    0 -0.57115080808E+03  0.69078064315E+03  0.84681307858E+03  0.12330788834E+04  0.00000000000E+00 0. -1.
<mgrwt>
<rscale>  0 0.21254419E+04</rscale>
<asrwt>0</asrwt>
<pdfrwt beam="1">  1        1 0.12797126E+00 0.21254419E+04</pdfrwt>
<pdfrwt beam="2">  1       -1 0.20888120E+00 0.21254419E+04</pdfrwt>
<totfact> 0.24913457E+00</totfact>
</mgrwt>
</event>
<event>
 6    1  0.2325157E-005  0.8735287E+03  0.7818608E-02  0.9459290E-01
         -2   -1    0    0    0  501 -0.00000000000E+00  0.00000000000E+00  0.11269643555E+04  0.11269643555E+04  0.00000000000E+00 0. -1.
          2   -1    0    0  501    0  0.00000000000E+00 -0.00000000000E+00 -0.16927165201E+03  0.16927165201E+03  0.00000000000E+00 0.  1.
         23    2    1    2    0    0 -0.41708154279E+03  0.96767954909E+02  0.39898855434E+03  0.59233873041E+03  0.91390670283E+02 0.  0.
         13    1    3    3    0    0 -0.16692148679E+03  0.26408667575E+02  0.10068042959E+03  0.19671489363E+03  0.00000000000E+00 0. -1.
        -13    1    3    3    0    0 -0.25016005600E+03  0.70359287334E+02  0.29830812476E+03  0.39562383678E+03  0.00000000000E+00 0.  1.
         22    1    1    2    0    0  0.41708154279E+03 -0.96767954909E+02  0.55870414917E+03  0.70389727712E+03  0.00000000000E+00 0.  1.
<mgrwt>
<rscale>  0 0.87352875E+03</rscale>
<asrwt>0</asrwt>
<pdfrwt beam="1">  1        2 0.26041793E-01 0.87352875E+03</pdfrwt>
<pdfrwt beam="2">  1       -2 0.17337913E+00 0.87352875E+03</pdfrwt>
<totfact> 0.42433932E+01</totfact>
</mgrwt>
</event>
<event>
 6    1  0.2325157E-005  0.1853631E+04  0.7818608E-02  0.8678288E-01
         -2   -1    0    0    0  501 -0.00000000000E+00  0.00000000000E+00  0.12055828078E+04  0.12055828078E+04  0.00000000000E+00 0. -1.
          2   -1    0    0  501    0  0.00000000000E+00 -0.00000000000E+00 -0.71250730649E+03  0.71250730649E+03  0.00000000000E+00 0.  1.
         23    2    1    2    0    0 -0.27719884928E+03 -0.68615682685E+03  0.82041584131E+03  0.11088916891E+04  0.94383433364E+02 0.  0.
         13    1    3    3    0    0 -0.12096050442E+03 -0.38392585434E+03  0.49600629591E+03  0.63879006789E+03  0.00000000000E+00 0.  1.
        -13    1    3    3    0    0 -0.15623834486E+03 -0.30223097251E+03  0.32440954541E+03  0.47010162125E+03  0.00000000000E+00 0. -1.
         22    1    1    2    0    0  0.27719884928E+03  0.68615682685E+03 -0.32734034000E+03  0.80919842515E+03  0.00000000000E+00 0.  1.
<mgrwt>
<rscale>  0 0.18536306E+04</rscale>
<asrwt>0</asrwt>
<pdfrwt beam="1">  1        2 0.10961651E+00 0.18536306E+04</pdfrwt>
<pdfrwt beam="2">  1       -2 0.18547428E+00 0.18536306E+04</pdfrwt>
<totfact> 0.62585826E+00</totfact>
</mgrwt>
</event>
<event>
 6    1  0.2325157E-005  0.1090987E+04  0.7818608E-02  0.9214021E-01
         -2   -1    0    0    0  501 -0.00000000000E+00  0.00000000000E+00  0.62799570137E+03  0.62799570137E+03  0.00000000000E+00 0. -1.
          2   -1    0    0  501    0  0.00000000000E+00 -0.00000000000E+00 -0.47382999485E+03  0.47382999485E+03  0.00000000000E+00 0.  1.
         23    2    1    2    0    0  0.22345934824E+02 -0.45918005065E+03 -0.21110995341E+03  0.51465283627E+03  0.94628059977E+02 0.  0.
         13    1    3    3    0    0  0.13273646886E+02 -0.24823983848E+03 -0.16550397277E+03  0.29864824144E+03  0.00000000000E+00 0. -1.
        -13    1    3    3    0    0  0.90722879387E+01 -0.21094021218E+03 -0.45605980634E+02  0.21600459484E+03  0.00000000000E+00 0.  1.
         22    1    1    2    0    0 -0.22345934824E+02  0.45918005065E+03  0.36527565992E+03  0.58717285994E+03  0.00000000000E+00 0. -1.
<mgrwt>
<rscale>  0 0.10909871E+04</rscale>
<asrwt>0</asrwt>
<pdfrwt beam="1">  1        2 0.72896922E-01 0.10909871E+04</pdfrwt>
<pdfrwt beam="2">  1       -2 0.96614724E-01 0.10909871E+04</pdfrwt>
<totfact> 0.58350369E+01</totfact>
</mgrwt>
</event>
<event>
 6    1  0.2325157E-005  0.4501134E+04  0.7818608E-02  0.7910438E-01
          2   -1    0    0  501    0  0.00000000000E+00  0.00000000000E+00  0.20546458898E+04  0.20546458898E+04  0.00000000000E+00 0.  1.
         -2   -1    0    0    0  501 -0.00000000000E+00 -0.00000000000E+00 -0.24651700976E+04  0.24651700976E+04  0.00000000000E+00 0. -1.
         23    2    1    2    0    0  0.62826220089E+03  0.20312969810E+04  0.53256980149E+03  0.21938092960E+04  0.91037440936E+02 0.  0.
         13    1    3    3    0    0  0.11038898843E+03  0.25441499122E+03  0.74032785160E+02  0.28704280134E+03  0.00000000000E+00 0. -1.
        -13    1    3    3    0    0  0.51787321246E+03  0.17768819898E+04  0.45853701633E+03  0.19067664946E+04  0.00000000000E+00 0.  1.
         22    1    1    2    0    0 -0.62826220089E+03 -0.20312969810E+04 -0.94309400926E+03  0.23260066914E+04  0.00000000000E+00 0. -1.
<mgrwt>
<rscale>  0 0.45011339E+04</rscale>
<asrwt>0</asrwt>
<pdfrwt beam="1">  1        2 0.31609937E+00 0.45011339E+04</pdfrwt>
<pdfrwt beam="2">  1       -2 0.37925694E+00 0.45011339E+04</pdfrwt>
<totfact> 0.47774079E-02</totfact>
</mgrwt>
</event>
<event>
 6    1  0.2325157E-005  0.1107221E+04  0.7818608E-02  0.9198182E-01
         -2   -1    0    0    0  501 -0.00000000000E+00  0.00000000000E+00  0.10188492850E+03  0.10188492850E+03  0.00000000000E+00 0. -1.
          2   -1    0    0  501    0  0.00000000000E+00 -0.00000000000E+00 -0.30081464439E+04  0.30081464439E+04  0.00000000000E+00 0.  1.
         23    2    1    2    0    0  0.34546474198E+03 -0.17404219034E+03 -0.25604402814E+04  0.25911586540E+04  0.92801744693E+02 0.  0.
         13    1    3    3    0    0  0.16106193182E+03 -0.46254837839E+02 -0.13198558196E+04  0.13304509914E+04  0.00000000000E+00 0. -1.
        -13    1    3    3    0    0  0.18440281016E+03 -0.12778735250E+03 -0.12405844618E+04  0.12607076627E+04  0.00000000000E+00 0.  1.
         22    1    1    2    0    0 -0.34546474198E+03  0.17404219034E+03 -0.34582123401E+03  0.51887271836E+03  0.00000000000E+00 0. -1.
<mgrwt>
<rscale>  0 0.11072214E+04</rscale>
<asrwt>0</asrwt>
<pdfrwt beam="1">  1        2 0.46279183E+00 0.11072214E+04</pdfrwt>
<pdfrwt beam="2">  1       -2 0.15674602E-01 0.11072214E+04</pdfrwt>
<totfact> 0.56694591E+01</totfact>
</mgrwt>
</event>
<event>
 6    1  0.2325157E-005  0.4566227E+04  0.7818608E-02  0.7899144E-01
         -2   -1    0    0    0  501 -0.00000000000E+00  0.00000000000E+00  0.13311492049E+04  0.13311492049E+04  0.00000000000E+00 0. -1.
          2   -1    0    0  501    0  0.00000000000E+00 -0.00000000000E+00 -0.39158704431E+04  0.39158704431E+04  0.00000000000E+00 0.  1.
         23    2    1    2    0    0  0.42415712690E+03  0.15861646153E+04 -0.31143729970E+04  0.35218070696E+04  0.89321980173E+02 0.  0.
         13    1    3    3    0    0  0.16618118183E+03  0.46592247282E+03 -0.92001735096E+03  0.10445725738E+04  0.00000000000E+00 0. -1.
        -13    1    3    3    0    0  0.25797594507E+03  0.11202421424E+04 -0.21943556460E+04  0.24772344958E+04  0.00000000000E+00 0.  1.
         22    1    1    2    0    0 -0.42415712690E+03 -0.15861646153E+04  0.52965175872E+03  0.17252125784E+04  0.00000000000E+00 0. -1.
<mgrwt>
<rscale>  0 0.45662273E+04</rscale>
<asrwt>0</asrwt>
<pdfrwt beam="1">  1        2 0.60244160E+00 0.45662273E+04</pdfrwt>
<pdfrwt beam="2">  1       -2 0.20479219E+00 0.45662273E+04</pdfrwt>
<totfact> 0.37109719E-02</totfact>
</mgrwt>
</event>
<event>
 6    1  0.2325157E-005  0.1927707E+04  0.7818608E-02  0.8641187E-01
          2   -1    0    0  501    0  0.00000000000E+00  0.00000000000E+00  0.23510811997E+04  0.23510811997E+04  0.00000000000E+00 0.  1.
         -2   -1    0    0    0  501 -0.00000000000E+00 -0.00000000000E+00 -0.39514298053E+03  0.39514298053E+03  0.00000000000E+00 0. -1.
         23    2    1    2    0    0 -0.47924492362E+03  0.82796016282E+03  0.11203679124E+04  0.14760385774E+04  0.90949957795E+02 0.  0.
         11    1    3    3    0    0 -0.17891740289E+03  0.23141317213E+03  0.31794242467E+03  0.43203110848E+03  0.00000000000E+00 0. -1.
        -11    1    3    3    0    0 -0.30032752074E+03  0.59654699068E+03  0.80242548775E+03  0.10440074689E+04  0.00000000000E+00 0.  1.
         22    1    1    2    0    0  0.47924492362E+03 -0.82796016282E+03  0.83557030673E+03  0.12701856028E+04  0.00000000000E+00 0.  1.
<mgrwt>
<rscale>  0 0.19277067E+04</rscale>
<asrwt>0</asrwt>
<pdfrwt beam="1">  1        2 0.36170479E+00 0.19277067E+04</pdfrwt>
<pdfrwt beam="2">  1       -2 0.60791229E-01 0.19277067E+04</pdfrwt>
<totfact> 0.99846829E+00</totfact>
</mgrwt>
</event>
<event>
 6    1  0.2325157E-005  0.3769729E+04  0.7818608E-02  0.8052682E-01
          2   -1    0    0  501    0  0.00000000000E+00  0.00000000000E+00  0.29031872007E+04  0.29031872007E+04  0.00000000000E+00 0.  1.
         -2   -1    0    0    0  501 -0.00000000000E+00 -0.00000000000E+00 -0.12237287969E+04  0.12237287969E+04  0.00000000000E+00 0. -1.
         23    2    1    2    0    0  0.65172331681E+03 -0.11807342406E+04 -0.59952020667E+03  0.14787807792E+04  0.92149258900E+02 0.  0.
         11    1    3    3    0    0  0.28069770038E+03 -0.41670871160E+03 -0.22677825197E+03  0.55124016988E+03  0.00000000000E+00 0. -1.
        -11    1    3    3    0    0  0.37102561642E+03 -0.76402552903E+03 -0.37274195470E+03  0.92754060927E+03  0.00000000000E+00 0.  1.
         22    1    1    2    0    0 -0.65172331681E+03  0.11807342406E+04  0.22789786105E+04  0.26481352185E+04  0.00000000000E+00 0.  1.
<mgrwt>
<rscale>  0 0.37697288E+04</rscale>
<asrwt>0</asrwt>
<pdfrwt beam="1">  1        2 0.44664418E+00 0.37697288E+04</pdfrwt>
<pdfrwt beam="2">  1       -2 0.18826597E+00 0.37697288E+04</pdfrwt>
<totfact> 0.25584257E-01</totfact>
</mgrwt>
</event>
<event>
 6    1  0.2325157E-005  0.2294215E+04  0.7818608E-02  0.8480205E-01
         -2   -1    0    0    0  501 -0.00000000000E+00  0.00000000000E+00  0.38420874215E+03  0.38420874215E+03  0.00000000000E+00 0. -1.
          2   -1    0    0  501    0  0.00000000000E+00 -0.00000000000E+00 -0.34248466304E+04  0.34248466304E+04  0.00000000000E+00 0.  1.
         23    2    1    2    0    0 -0.85696613884E+03  0.67201654320E+03 -0.93316001974E+03  0.14368285361E+04  0.87700753616E+02 0.  0.
         11    1    3    3    0    0 -0.34575462009E+03  0.28870390588E+03 -0.33249313268E+03  0.55986416733E+03  0.00000000000E+00 0.  1.
        -11    1    3    3    0    0 -0.51121151876E+03  0.38331263732E+03 -0.60066688706E+03  0.87696436874E+03  0.00000000000E+00 0. -1.
         22    1    1    2    0    0  0.85696613884E+03 -0.67201654320E+03 -0.21074778685E+04  0.23722268365E+04  0.00000000000E+00 0.  1.
<mgrwt>
<rscale>  0 0.22942153E+04</rscale>
<asrwt>0</asrwt>
<pdfrwt beam="1">  1        2 0.52689945E+00 0.22942153E+04</pdfrwt>
<pdfrwt beam="2">  1       -2 0.59109041E-01 0.22942153E+04</pdfrwt>
<totfact> 0.22280502E+00</totfact>
</mgrwt>
</event>
<event>
 6    1  0.2325157E-005  0.2605026E+04  0.7818608E-02  0.8366496E-01
         -2   -1    0    0    0  501 -0.00000000000E+00  0.00000000000E+00  0.81077507293E+03  0.81077507293E+03  0.00000000000E+00 0. -1.
          2   -1    0    0  501    0  0.00000000000E+00 -0.00000000000E+00 -0.20924924338E+04  0.20924924338E+04  0.00000000000E+00 0.  1.
         23    2    1    2    0    0 -0.41750599857E+03  0.20459980794E+03  0.71239437282E+03  0.85567039140E+03  0.92161467144E+02 0.  0.
         11    1    3    3    0    0 -0.18478099857E+03  0.46721006353E+02  0.24826626111E+03  0.31299042521E+03  0.00000000000E+00 0.  1.
        -11    1    3    3    0    0 -0.23272500000E+03  0.15787880159E+03  0.46412811171E+03  0.54267996618E+03  0.00000000000E+00 0. -1.
         22    1    1    2    0    0  0.41750599857E+03 -0.20459980794E+03 -0.19941117337E+04  0.20475971153E+04  0.00000000000E+00 0.  1.
<mgrwt>
<rscale>  0 0.26050265E+04</rscale>
<asrwt>0</asrwt>
<pdfrwt beam="1">  1        2 0.32192191E+00 0.26050265E+04</pdfrwt>
<pdfrwt beam="2">  1       -2 0.12473463E+00 0.26050265E+04</pdfrwt>
<totfact> 0.25286835E+00</totfact>
</mgrwt>
</event>
<event>
 6    1  0.2325157E-005  0.4201043E+04  0.7818608E-02  0.7965174E-01
          2   -1    0    0  501    0  0.00000000000E+00  0.00000000000E+00  0.16802918276E+04  0.16802918276E+04  0.00000000000E+00 0.  1.
         -2   -1    0    0    0  501 -0.00000000000E+00 -0.00000000000E+00 -0.26258479341E+04  0.26258479341E+04  0.00000000000E+00 0. -1.
         23    2    1    2    0    0 -0.13041663576E+04  0.16213745668E+04 -0.75993994179E+03  0.22170828609E+04  0.90787239096E+02 0.  0.
         13    1    3    3    0    0 -0.40975545041E+03  0.55799705675E+03 -0.22085403214E+03  0.72666137093E+03  0.00000000000E+00 0.  1.
        -13    1    3    3    0    0 -0.89441090717E+03  0.10633775101E+04 -0.53908590965E+03  0.14904214900E+04  0.00000000000E+00 0. -1.
         22    1    1    2    0    0  0.13041663576E+04 -0.16213745668E+04 -0.18561616468E+03  0.20890569008E+04  0.00000000000E+00 0.  1.
<mgrwt>
<rscale>  0 0.42010431E+04</rscale>
<asrwt>0</asrwt>
<pdfrwt beam="1">  1        2 0.25850643E+00 0.42010431E+04</pdfrwt>
<pdfrwt beam="2">  1       -2 0.40397661E+00 0.42010431E+04</pdfrwt>
<totfact> 0.54560635E-02</totfact>
</mgrwt>
</event>
<event>
 6    1  0.2325157E-005  0.1697787E+04  0.7818608E-02  0.8762627E-01
         -2   -1    0    0    0  501 -0.00000000000E+00  0.00000000000E+00  0.18776224939E+03  0.18776224939E+03  0.00000000000E+00 0. -1.
          2   -1    0    0  501    0  0.00000000000E+00 -0.00000000000E+00 -0.38379415672E+04  0.38379415672E+04  0.00000000000E+00 0.  1.
         23    2    1    2    0    0 -0.35558599158E+03  0.13517174484E+02 -0.36515763276E+04  0.36698582559E+04  0.85004885170E+02 0.  0.
         11    1    3    3    0    0 -0.10794644327E+03  0.43281089862E+02 -0.12078217160E+04  0.12134080044E+04  0.00000000000E+00 0. -1.
        -11    1    3    3    0    0 -0.24763954832E+03 -0.29763915378E+02 -0.24437546115E+04  0.24564502515E+04  0.00000000000E+00 0.  1.
         22    1    1    2    0    0  0.35558599158E+03 -0.13517174484E+02  0.13970098208E+01  0.35584556068E+03  0.00000000000E+00 0. -1.
<mgrwt>
<rscale>  0 0.16977874E+04</rscale>
<asrwt>0</asrwt>
<pdfrwt beam="1">  1        2 0.59045253E+00 0.16977874E+04</pdfrwt>
<pdfrwt beam="2">  1       -2 0.28886501E-01 0.16977874E+04</pdfrwt>
<totfact> 0.48814413E+00</totfact>
</mgrwt>
</event>
<event>
 6    1  0.2325157E-005  0.2781684E+04  0.7818608E-02  0.8308977E-01
          1   -1    0    0  501    0  0.00000000000E+00  0.00000000000E+00  0.26789655616E+04  0.26789655616E+04  0.00000000000E+00 0.  1.
         -1   -1    0    0    0  501 -0.00000000000E+00 -0.00000000000E+00 -0.72208543504E+03  0.72208543504E+03  0.00000000000E+00 0. -1.
         23    2    1    2    0    0 -0.45281132605E+03 -0.10319524125E+04 -0.14036175009E+02  0.11307041187E+04  0.91273825113E+02 0.  0.
         11    1    3    3    0    0 -0.35512116912E+03 -0.73181542753E+03 -0.36708198959E+02  0.81425570714E+03  0.00000000000E+00 0.  1.
        -11    1    3    3    0    0 -0.97690156929E+02 -0.30013698493E+03  0.22672023950E+02  0.31644841152E+03  0.00000000000E+00 0. -1.
         22    1    1    2    0    0  0.45281132605E+03  0.10319524125E+04  0.19709163015E+04  0.22703468780E+04  0.00000000000E+00 0. -1.
<mgrwt>
<rscale>  0 0.27816844E+04</rscale>
<asrwt>0</asrwt>
<pdfrwt beam="1">  1        1 0.41214854E+00 0.27816844E+04</pdfrwt>
<pdfrwt beam="2">  1       -1 0.11109007E+00 0.27816844E+04</pdfrwt>
<totfact> 0.65611914E-01</totfact>
</mgrwt>
</event>
<event>
 6    1  0.2325157E-005  0.4120488E+04  0.7818608E-02  0.7980672E-01
          2   -1    0    0  501    0  0.00000000000E+00  0.00000000000E+00  0.26915666059E+04  0.26915666059E+04  0.00000000000E+00 0.  1.
         -2   -1    0    0    0  501 -0.00000000000E+00 -0.00000000000E+00 -0.15770019837E+04  0.15770019837E+04  0.00000000000E+00 0. -1.
         23    2    1    2    0    0  0.14423356592E+04  0.14460022974E+04  0.83053675635E+03  0.22065485541E+04  0.88376580471E+02 0.  0.
         13    1    3    3    0    0  0.61721077076E+03  0.66743369522E+03  0.39902626599E+03  0.99279344982E+03  0.00000000000E+00 0.  1.
        -13    1    3    3    0    0  0.82512488844E+03  0.77856860222E+03  0.43151049035E+03  0.12137551043E+04  0.00000000000E+00 0. -1.
         22    1    1    2    0    0 -0.14423356592E+04 -0.14460022974E+04  0.28402786582E+03  0.20620200354E+04  0.00000000000E+00 0.  1.
<mgrwt>
<rscale>  0 0.41204883E+04</rscale>
<asrwt>0</asrwt>
<pdfrwt beam="1">  1        2 0.41408717E+00 0.41204883E+04</pdfrwt>
<pdfrwt beam="2">  1       -2 0.24261569E+00 0.41204883E+04</pdfrwt>
<totfact> 0.14975991E-01</totfact>
</mgrwt>
</event>
<event>
 6    1  0.2325157E-005  0.2131851E+04  0.7818608E-02  0.8547341E-01
         -2   -1    0    0    0  501 -0.00000000000E+00  0.00000000000E+00  0.11000212619E+04  0.11000212619E+04  0.00000000000E+00 0. -1.
          2   -1    0    0  501    0  0.00000000000E+00 -0.00000000000E+00 -0.10328867930E+04  0.10328867930E+04  0.00000000000E+00 0.  1.
         23    2    1    2    0    0 -0.10182191214E+04 -0.13437573446E+03 -0.24731590697E+03  0.10588009578E+04  0.71184921750E+02 0.  0.
         11    1    3    3    0    0 -0.61160895974E+03 -0.10746192769E+03 -0.17247756222E+03  0.64448591529E+03  0.00000000000E+00 0.  1.
        -11    1    3    3    0    0 -0.40661016168E+03 -0.26913806774E+02 -0.74838344751E+02  0.41431504247E+03  0.00000000000E+00 0. -1.
         22    1    1    2    0    0  0.10182191214E+04  0.13437573446E+03  0.31445037594E+03  0.10741070972E+04  0.00000000000E+00 0. -1.
<mgrwt>
<rscale>  0 0.21318512E+04</rscale>
<asrwt>0</asrwt>
<pdfrwt beam="1">  1        2 0.15890566E+00 0.21318512E+04</pdfrwt>
<pdfrwt beam="2">  1       -2 0.16923404E+00 0.21318512E+04</pdfrwt>
<totfact> 0.47602625E+00</totfact>
</mgrwt>
</event>
<event>
 6    1  0.2325157E-005  0.6874715E+04  0.7818608E-02  0.7590496E-01
         -2   -1    0    0    0  501 -0.00000000000E+00  0.00000000000E+00  0.39903289711E+04  0.39903289711E+04  0.00000000000E+00 0. -1.
          2   -1    0    0  501    0  0.00000000000E+00 -0.00000000000E+00 -0.29610152726E+04  0.29610152726E+04  0.00000000000E+00 0.  1.
         23    2    1    2    0    0  0.31566539610E+04  0.98302723405E+02 -0.85580441070E+03  0.32733287542E+04  0.90290027951E+02 0.  0.
         11    1    3    3    0    0  0.13324655893E+04  0.33050705497E+02 -0.40659477425E+03  0.13935121837E+04  0.00000000000E+00 0.  1.
        -11    1    3    3    0    0  0.18241883717E+04  0.65252017908E+02 -0.44920963645E+03  0.18798165705E+04  0.00000000000E+00 0. -1.
         22    1    1    2    0    0 -0.31566539610E+04 -0.98302723405E+02  0.18851181092E+04  0.36780154894E+04  0.00000000000E+00 0. -1.
<mgrwt>
<rscale>  0 0.68747145E+04</rscale>
<asrwt>0</asrwt>
<pdfrwt beam="1">  1        2 0.45554081E+00 0.68747145E+04</pdfrwt>
<pdfrwt beam="2">  1       -2 0.61389677E+00 0.68747145E+04</pdfrwt>
<totfact> 0.53593859E-04</totfact>
</mgrwt>
</event>
<event>
 6    1  0.2325157E-005  0.3184718E+04  0.7818608E-02  0.8192865E-01
         -2   -1    0    0    0  501 -0.00000000000E+00  0.00000000000E+00  0.14464907970E+04  0.14464907970E+04  0.00000000000E+00 0. -1.
          2   -1    0    0  501    0  0.00000000000E+00 -0.00000000000E+00 -0.17529369687E+04  0.17529369687E+04  0.00000000000E+00 0.  1.
         23    2    1    2    0    0 -0.10071013990E+04 -0.10420700228E+04  0.50633443390E+03  0.15378696195E+04  0.92223897239E+02 0.  0.
         13    1    3    3    0    0 -0.54093182534E+03 -0.51460447318E+03  0.22481290099E+03  0.77972164516E+03  0.00000000000E+00 0. -1.
        -13    1    3    3    0    0 -0.46616957370E+03 -0.52746554966E+03  0.28152153291E+03  0.75814797435E+03  0.00000000000E+00 0.  1.
         22    1    1    2    0    0  0.10071013990E+04  0.10420700228E+04 -0.81278060560E+03  0.16615581462E+04  0.00000000000E+00 0.  1.
<mgrwt>
<rscale>  0 0.31847180E+04</rscale>
<asrwt>0</asrwt>
<pdfrwt beam="1">  1        2 0.26968261E+00 0.31847180E+04</pdfrwt>
<pdfrwt beam="2">  1       -2 0.22253705E+00 0.31847180E+04</pdfrwt>
<totfact> 0.73599595E-01</totfact>
</mgrwt>
</event>
<event>
 6    1  0.2325157E-005  0.3794347E+04  0.7818608E-02  0.8047369E-01
          2   -1    0    0  501    0  0.00000000000E+00  0.00000000000E+00  0.29348314763E+04  0.29348314763E+04  0.00000000000E+00 0.  1.
         -2   -1    0    0    0  501 -0.00000000000E+00 -0.00000000000E+00 -0.12263968838E+04  0.12263968838E+04  0.00000000000E+00 0. -1.
         23    2    1    2    0    0  0.12807500260E+04  0.13078290255E+04  0.13968616100E+04  0.23043990431E+04  0.91078007541E+02 0.  0.
         11    1    3    3    0    0  0.40961202459E+03  0.38526631434E+03  0.47355129195E+03  0.73516186637E+03  0.00000000000E+00 0. -1.
        -11    1    3    3    0    0  0.87113800140E+03  0.92256271115E+03  0.92331031808E+03  0.15692371768E+04  0.00000000000E+00 0.  1.
         22    1    1    2    0    0 -0.12807500260E+04 -0.13078290255E+04  0.31157298249E+03  0.18568293170E+04  0.00000000000E+00 0.  1.
<mgrwt>
<rscale>  0 0.37943475E+04</rscale>
<asrwt>0</asrwt>
<pdfrwt beam="1">  1        2 0.45151253E+00 0.37943475E+04</pdfrwt>
<pdfrwt beam="2">  1       -2 0.18867644E+00 0.37943475E+04</pdfrwt>
<totfact> 0.24252263E-01</totfact>
</mgrwt>
</event>
<event>
 6    1  0.2325157E-005  0.2725751E+04  0.7818608E-02  0.8326698E-01
          2   -1    0    0  501    0  0.00000000000E+00  0.00000000000E+00  0.23330637833E+04  0.23330637833E+04  0.00000000000E+00 0.  1.
         -2   -1    0    0    0  501 -0.00000000000E+00 -0.00000000000E+00 -0.79613322654E+03  0.79613322654E+03  0.00000000000E+00 0. -1.
         23    2    1    2    0    0  0.24168131646E+02  0.13158933125E+04  0.36955872550E+03  0.13699595896E+04  0.89756988918E+02 0.  0.
         13    1    3    3    0    0 -0.18105913653E+02  0.22486750118E+03  0.90069434436E+02  0.24291093062E+03  0.00000000000E+00 0.  1.
        -13    1    3    3    0    0  0.42274045299E+02  0.10910258113E+04  0.27948929106E+03  0.11270486590E+04  0.00000000000E+00 0. -1.
         22    1    1    2    0    0 -0.24168131646E+02 -0.13158933125E+04  0.11673718313E+04  0.17592374203E+04  0.00000000000E+00 0.  1.
<mgrwt>
<rscale>  0 0.27257510E+04</rscale>
<asrwt>0</asrwt>
<pdfrwt beam="1">  1        2 0.35893289E+00 0.27257510E+04</pdfrwt>
<pdfrwt beam="2">  1       -2 0.12248204E+00 0.27257510E+04</pdfrwt>
<totfact> 0.19174854E+00</totfact>
</mgrwt>
</event>
<event>
 6    1  0.2325157E-005  0.4872667E+04  0.7818608E-02  0.7848455E-01
          2   -1    0    0  501    0  0.00000000000E+00  0.00000000000E+00  0.21001754978E+04  0.21001754978E+04  0.00000000000E+00 0.  1.
         -2   -1    0    0    0  501 -0.00000000000E+00 -0.00000000000E+00 -0.28262972052E+04  0.28262972052E+04  0.00000000000E+00 0. -1.
         23    2    1    2    0    0 -0.19307925717E+04  0.12315561254E+04  0.47550219824E+03  0.23402417668E+04  0.77063229148E+02 0.  0.
         13    1    3    3    0    0 -0.45776161467E+03  0.31449519555E+03  0.14299450870E+03  0.57349834647E+03  0.00000000000E+00 0. -1.
        -13    1    3    3    0    0 -0.14730309571E+04  0.91706092982E+03  0.33250768955E+03  0.17667434203E+04  0.00000000000E+00 0.  1.
         22    1    1    2    0    0  0.19307925717E+04 -0.12315561254E+04 -0.12016239056E+04  0.25862309362E+04  0.00000000000E+00 0. -1.
<mgrwt>
<rscale>  0 0.48726667E+04</rscale>
<asrwt>0</asrwt>
<pdfrwt beam="1">  1        2 0.32310392E+00 0.48726667E+04</pdfrwt>
<pdfrwt beam="2">  1       -2 0.43481496E+00 0.48726667E+04</pdfrwt>
<totfact> 0.18932242E-02</totfact>
</mgrwt>
</event>
<event>
 6    1  0.2325157E-005  0.1890077E+04  0.7818608E-02  0.8659811E-01
         -2   -1    0    0    0  501 -0.00000000000E+00  0.00000000000E+00  0.63759328049E+03  0.63759328049E+03  0.00000000000E+00 0. -1.
          2   -1    0    0  501    0  0.00000000000E+00 -0.00000000000E+00 -0.14007327297E+04  0.14007327297E+04  0.00000000000E+00 0.  1.
         23    2    1    2    0    0 -0.64217762730E+03 -0.42291998627E+03 -0.97082656715E+03  0.12418416358E+04  0.91722435062E+02 0.  0.
         13    1    3    3    0    0 -0.51474801811E+03 -0.29390943974E+03 -0.72853946058E+03  0.93921138544E+03  0.00000000000E+00 0. -1.
        -13    1    3    3    0    0 -0.12742960919E+03 -0.12901054653E+03 -0.24228710657E+03  0.30263025035E+03  0.00000000000E+00 0.  1.
         22    1    1    2    0    0  0.64217762730E+03  0.42291998627E+03  0.20768711789E+03  0.79648437444E+03  0.00000000000E+00 0. -1.
<mgrwt>
<rscale>  0 0.18900770E+04</rscale>
<asrwt>0</asrwt>
<pdfrwt beam="1">  1        2 0.21549734E+00 0.18900770E+04</pdfrwt>
<pdfrwt beam="2">  1       -2 0.98091275E-01 0.18900770E+04</pdfrwt>
<totfact> 0.11715727E+01</totfact>
</mgrwt>
</event>
<event>
 6    1  0.2325157E-005  0.2402557E+04  0.7818608E-02  0.8438547E-01
         -2   -1    0    0    0  501 -0.00000000000E+00  0.00000000000E+00  0.10585125652E+04  0.10585125652E+04  0.00000000000E+00 0. -1.
          2   -1    0    0  501    0  0.00000000000E+00 -0.00000000000E+00 -0.13633002241E+04  0.13633002241E+04  0.00000000000E+00 0.  1.
         23    2    1    2    0    0  0.12928357752E+03  0.45787612647E+03  0.95730203031E+03  0.10730225260E+04  0.92657290670E+02 0.  0.
         11    1    3    3    0    0  0.23720504439E+01  0.60695395795E+02  0.19363241239E+03  0.20293612005E+03  0.00000000000E+00 0.  1.
        -11    1    3    3    0    0  0.12691152708E+03  0.39718073068E+03  0.76366961792E+03  0.87008640598E+03  0.00000000000E+00 0. -1.
         22    1    1    2    0    0 -0.12928357752E+03 -0.45787612647E+03 -0.12620896892E+04  0.13487902632E+04  0.00000000000E+00 0.  1.
<mgrwt>
<rscale>  0 0.24025573E+04</rscale>
<asrwt>0</asrwt>
<pdfrwt beam="1">  1        2 0.20973850E+00 0.24025573E+04</pdfrwt>
<pdfrwt beam="2">  1       -2 0.16284809E+00 0.24025573E+04</pdfrwt>
<totfact> 0.32785369E+00</totfact>
</mgrwt>
</event>
<event>
 6    1  0.2325157E-005  0.5309556E+04  0.7818608E-02  0.7782452E-01
         -2   -1    0    0    0  501 -0.00000000000E+00  0.00000000000E+00  0.18747312326E+04  0.18747312326E+04  0.00000000000E+00 0. -1.
          2   -1    0    0  501    0  0.00000000000E+00 -0.00000000000E+00 -0.37593908845E+04  0.37593908845E+04  0.00000000000E+00 0.  1.
         23    2    1    2    0    0  0.22532437286E+04  0.45401031262E+03  0.46526744177E+03  0.23469668104E+04  0.92448645816E+02 0.  0.
         13    1    3    3    0    0  0.89126639624E+03  0.20663260740E+03  0.22260454424E+03  0.94159736970E+03  0.00000000000E+00 0. -1.
        -13    1    3    3    0    0  0.13619773324E+04  0.24737770523E+03  0.24266289753E+03  0.14053694407E+04  0.00000000000E+00 0.  1.
         22    1    1    2    0    0 -0.22532437286E+04 -0.45401031262E+03 -0.23499270937E+04  0.32871553067E+04  0.00000000000E+00 0.  1.
<mgrwt>
<rscale>  0 0.53095565E+04</rscale>
<asrwt>0</asrwt>
<pdfrwt beam="1">  1        2 0.57836782E+00 0.53095565E+04</pdfrwt>
<pdfrwt beam="2">  1       -2 0.28842019E+00 0.53095565E+04</pdfrwt>
<totfact> 0.13962971E-02</totfact>
</mgrwt>
</event>
<event>
 6    1  0.2325157E-005  0.2561543E+04  0.7818608E-02  0.8381383E-01
         -2   -1    0    0    0  501 -0.00000000000E+00  0.00000000000E+00  0.13624747905E+04  0.13624747905E+04  0.00000000000E+00 0. -1.
          2   -1    0    0  501    0  0.00000000000E+00 -0.00000000000E+00 -0.12039676673E+04  0.12039676673E+04  0.00000000000E+00 0.  1.
         23    2    1    2    0    0  0.97892300298E+03 -0.36220415057E+03  0.81925790391E+03  0.13310989078E+04  0.10563473279E+03 0.  0.
         11    1    3    3    0    0  0.14879541300E+03 -0.18454902690E+02  0.13450491480E+03  0.20142549608E+03  0.00000000000E+00 0. -1.
        -11    1    3    3    0    0  0.83012758997E+03 -0.34374924788E+03  0.68475298911E+03  0.11296734117E+04  0.00000000000E+00 0.  1.
         22    1    1    2    0    0 -0.97892300298E+03  0.36220415057E+03 -0.66075078063E+03  0.12353435500E+04  0.00000000000E+00 0.  1.
<mgrwt>
<rscale>  0 0.25615430E+04</rscale>
<asrwt>0</asrwt>
<pdfrwt beam="1">  1        2 0.18522579E+00 0.25615430E+04</pdfrwt>
<pdfrwt beam="2">  1       -2 0.20961151E+00 0.25615430E+04</pdfrwt>
<totfact> 0.19251300E+00</totfact>
</mgrwt>
</event>
<event>
 6    1  0.2325157E-005  0.1646022E+04  0.7818608E-02  0.8792763E-01
         -2   -1    0    0    0  501 -0.00000000000E+00  0.00000000000E+00  0.96799479277E+03  0.96799479277E+03  0.00000000000E+00 0. -1.
          2   -1    0    0  501    0  0.00000000000E+00 -0.00000000000E+00 -0.69974231987E+03  0.69974231987E+03  0.00000000000E+00 0.  1.
         23    2    1    2    0    0  0.54295327196E+03 -0.27486532731E+03  0.69221384697E+03  0.92605493651E+03  0.89825006587E+02 0.  0.
         13    1    3    3    0    0  0.15704712199E+02 -0.10365825141E+02  0.53083967557E+02  0.56320475208E+02  0.00000000000E+00 0. -1.
        -13    1    3    3    0    0  0.52724855976E+03 -0.26449950217E+03  0.63912987941E+03  0.86973446130E+03  0.00000000000E+00 0.  1.
         22    1    1    2    0    0 -0.54295327196E+03  0.27486532731E+03 -0.42396137407E+03  0.74168217613E+03  0.00000000000E+00 0.  1.
<mgrwt>
<rscale>  0 0.16460218E+04</rscale>
<asrwt>0</asrwt>
<pdfrwt beam="1">  1        2 0.10765266E+00 0.16460218E+04</pdfrwt>
<pdfrwt beam="2">  1       -2 0.14892228E+00 0.16460218E+04</pdfrwt>
<totfact> 0.11955999E+01</totfact>
</mgrwt>
</event>
<event>
 6    1  0.2325157E-005  0.2346898E+04  0.7818608E-02  0.8459656E-01
          1   -1    0    0  501    0  0.00000000000E+00  0.00000000000E+00  0.13544445686E+04  0.13544445686E+04  0.00000000000E+00 0.  1.
         -1   -1    0    0    0  501 -0.00000000000E+00 -0.00000000000E+00 -0.10166400874E+04  0.10166400874E+04  0.00000000000E+00 0. -1.
         23    2    1    2    0    0 -0.10323268232E+04  0.36222159183E+03  0.59300337826E+03  0.12476837352E+04  0.90324664800E+02 0.  0.
         11    1    3    3    0    0 -0.33854412289E+03  0.16413644542E+03  0.20059495346E+03  0.42636982916E+03  0.00000000000E+00 0. -1.
        -11    1    3    3    0    0 -0.69378270032E+03  0.19808514640E+03  0.39240842479E+03  0.82131390609E+03  0.00000000000E+00 0.  1.
         22    1    1    2    0    0  0.10323268232E+04 -0.36222159183E+03 -0.25519889707E+03  0.11234009207E+04  0.00000000000E+00 0. -1.
<mgrwt>
<rscale>  0 0.23468981E+04</rscale>
<asrwt>0</asrwt>
<pdfrwt beam="1">  1        1 0.20837609E+00 0.23468981E+04</pdfrwt>
<pdfrwt beam="2">  1       -1 0.15640617E+00 0.23468981E+04</pdfrwt>
<totfact> 0.23185377E+00</totfact>
</mgrwt>
</event>
<event>
 6    1  0.2325157E-005  0.1709641E+04  0.7818608E-02  0.8755885E-01
         -2   -1    0    0    0  501 -0.00000000000E+00  0.00000000000E+00  0.27551816107E+03  0.27551816107E+03  0.00000000000E+00 0. -1.
          2   -1    0    0  501    0  0.00000000000E+00 -0.00000000000E+00 -0.26521600055E+04  0.26521600055E+04  0.00000000000E+00 0.  1.
         23    2    1    2    0    0  0.57440688893E+03 -0.62895080648E+03 -0.12271700137E+04  0.14970112310E+04  0.97846778455E+02 0.  0.
         11    1    3    3    0    0  0.30685169903E+03 -0.38907598440E+03 -0.65414780035E+03  0.82063842923E+03  0.00000000000E+00 0. -1.
        -11    1    3    3    0    0  0.26755518990E+03 -0.23987482208E+03 -0.57302221337E+03  0.67637280174E+03  0.00000000000E+00 0.  1.
         22    1    1    2    0    0 -0.57440688893E+03  0.62895080648E+03 -0.11494718307E+04  0.14306669356E+04  0.00000000000E+00 0. -1.
<mgrwt>
<rscale>  0 0.17096412E+04</rscale>
<asrwt>0</asrwt>
<pdfrwt beam="1">  1        2 0.40802458E+00 0.17096412E+04</pdfrwt>
<pdfrwt beam="2">  1       -2 0.42387413E-01 0.17096412E+04</pdfrwt>
<totfact> 0.14255556E+01</totfact>
</mgrwt>
</event>
<event>
 6    1  0.2696342E-005  0.4699314E+04  0.7818608E-02  0.7876642E-01
         -2   -1    0    0    0  501 -0.00000000000E+00  0.00000000000E+00  0.17667843323E+04  0.17667843323E+04  0.00000000000E+00 0. -1.
          2   -1    0    0  501    0  0.00000000000E+00 -0.00000000000E+00 -0.31248233996E+04  0.31248233996E+04  0.00000000000E+00 0.  1.
         23    2    1    2    0    0  0.31335977888E+03  0.22985956467E+04 -0.10617686689E+04  0.25529088529E+04  0.90854867838E+02 0.  0.
         11    1    3    3    0    0  0.96396773126E+02  0.66483676382E+03 -0.26291610145E+03  0.72140497420E+03  0.00000000000E+00 0.  1.
        -11    1    3    3    0    0  0.21696300576E+03  0.16337588829E+04 -0.79885256741E+03  0.18315038787E+04  0.00000000000E+00 0. -1.
         22    1    1    2    0    0 -0.31335977888E+03 -0.22985956467E+04 -0.29627039844E+03  0.23386988791E+04  0.00000000000E+00 0. -1.
<mgrwt>
<rscale>  0 0.46993144E+04</rscale>
<asrwt>0</asrwt>
<pdfrwt beam="1">  1        2 0.48074205E+00 0.46993144E+04</pdfrwt>
<pdfrwt beam="2">  1       -2 0.27181298E+00 0.46993144E+04</pdfrwt>
<totfact> 0.51064746E-02</totfact>
</mgrwt>
</event>
<event>
 6    1  0.2325157E-005  0.1431141E+04  0.7818608E-02  0.8931580E-01
          2   -1    0    0  501    0  0.00000000000E+00  0.00000000000E+00  0.11496857968E+04  0.11496857968E+04  0.00000000000E+00 0.  1.
         -2   -1    0    0    0  501 -0.00000000000E+00 -0.00000000000E+00 -0.44537506288E+03  0.44537506288E+03  0.00000000000E+00 0. -1.
         23    2    1    2    0    0  0.11446488593E+03  0.58047142597E+03  0.79642551937E+03  0.99628342170E+03  0.90762117483E+02 0.  0.
         13    1    3    3    0    0  0.13249629866E+02  0.22742596226E+03  0.25373063461E+03  0.34099465676E+03  0.00000000000E+00 0. -1.
        -13    1    3    3    0    0  0.10121525606E+03  0.35304546371E+03  0.54269488476E+03  0.65528876493E+03  0.00000000000E+00 0.  1.
         22    1    1    2    0    0 -0.11446488593E+03 -0.58047142597E+03 -0.92114785501E+02  0.59877743793E+03  0.00000000000E+00 0. -1.
<mgrwt>
<rscale>  0 0.14311413E+04</rscale>
<asrwt>0</asrwt>
<pdfrwt beam="1">  1        2 0.17687474E+00 0.14311413E+04</pdfrwt>
<pdfrwt beam="2">  1       -2 0.68519241E-01 0.14311413E+04</pdfrwt>
<totfact> 0.38421633E+01</totfact>
</mgrwt>
</event>
<event>
 6    1  0.2325157E-005  0.2970138E+04  0.7818608E-02  0.8252310E-01
          2   -1    0    0  501    0  0.00000000000E+00  0.00000000000E+00  0.23210738286E+04  0.23210738286E+04  0.00000000000E+00 0.  1.
         -2   -1    0    0    0  501 -0.00000000000E+00 -0.00000000000E+00 -0.95017669660E+03  0.95017669660E+03  0.00000000000E+00 0. -1.
         23    2    1    2    0    0 -0.12026503723E+04  0.82242510475E+03  0.99932628724E+03  0.17676495596E+04  0.56400057016E+02 0.  0.
         13    1    3    3    0    0 -0.89958968822E+03  0.64045285362E+03  0.74210780559E+03  0.13304756518E+04  0.00000000000E+00 0.  1.
        -13    1    3    3    0    0 -0.30306068408E+03  0.18197225113E+03  0.25721848165E+03  0.43717390786E+03  0.00000000000E+00 0. -1.
         22    1    1    2    0    0  0.12026503723E+04 -0.82242510475E+03  0.37157084473E+03  0.15036009655E+04  0.00000000000E+00 0. -1.
<mgrwt>
<rscale>  0 0.29701382E+04</rscale>
<asrwt>0</asrwt>
<pdfrwt beam="1">  1        2 0.35708828E+00 0.29701382E+04</pdfrwt>
<pdfrwt beam="2">  1       -2 0.14618103E+00 0.29701382E+04</pdfrwt>
<totfact> 0.12138062E+00</totfact>
</mgrwt>
</event>
<event>
 6    1  0.2325157E-005  0.2602439E+04  0.7818608E-02  0.8367373E-01
          1   -1    0    0  501    0  0.00000000000E+00  0.00000000000E+00  0.10438286244E+04  0.10438286244E+04  0.00000000000E+00 0.  1.
         -1   -1    0    0    0  501 -0.00000000000E+00 -0.00000000000E+00 -0.16220787088E+04  0.16220787088E+04  0.00000000000E+00 0. -1.
         23    2    1    2    0    0  0.62791070124E+03  0.11372557299E+04 -0.32808140192E+03  0.13429535118E+04  0.90908111323E+02 0.  0.
         11    1    3    3    0    0  0.31970537031E+03  0.66478922930E+03 -0.20409569910E+03  0.76538310511E+03  0.00000000000E+00 0.  1.
        -11    1    3    3    0    0  0.30820533093E+03  0.47246650057E+03 -0.12398570282E+03  0.57757040668E+03  0.00000000000E+00 0. -1.
         22    1    1    2    0    0 -0.62791070124E+03 -0.11372557299E+04 -0.25016868251E+03  0.13229538214E+04  0.00000000000E+00 0. -1.
<mgrwt>
<rscale>  0 0.26024390E+04</rscale>
<asrwt>0</asrwt>
<pdfrwt beam="1">  1        1 0.16058902E+00 0.26024390E+04</pdfrwt>
<pdfrwt beam="2">  1       -1 0.24955057E+00 0.26024390E+04</pdfrwt>
<totfact> 0.86472877E-01</totfact>
</mgrwt>
</event>
<event>
 6    1  0.2325157E-005  0.2398379E+04  0.7818608E-02  0.8440111E-01
         -2   -1    0    0    0  501 -0.00000000000E+00  0.00000000000E+00  0.89335747526E+03  0.89335747526E+03  0.00000000000E+00 0. -1.
          2   -1    0    0  501    0  0.00000000000E+00 -0.00000000000E+00 -0.16097204390E+04  0.16097204390E+04  0.00000000000E+00 0.  1.
         23    2    1    2    0    0  0.69674210254E+03 -0.24427973933E+03  0.62501287474E+03  0.97193086431E+03  0.94267507175E+02 0.  0.
         13    1    3    3    0    0  0.27871576823E+03 -0.13675736102E+03  0.22473622987E+03  0.38326417556E+03  0.00000000000E+00 0. -1.
        -13    1    3    3    0    0  0.41802633432E+03 -0.10752237831E+03  0.40027664487E+03  0.58866668875E+03  0.00000000000E+00 0.  1.
         22    1    1    2    0    0 -0.69674210254E+03  0.24427973933E+03 -0.13413758385E+04  0.15311470499E+04  0.00000000000E+00 0.  1.
<mgrwt>
<rscale>  0 0.23983793E+04</rscale>
<asrwt>0</asrwt>
<pdfrwt beam="1">  1        2 0.24764930E+00 0.23983793E+04</pdfrwt>
<pdfrwt beam="2">  1       -2 0.13743961E+00 0.23983793E+04</pdfrwt>
<totfact> 0.37324318E+00</totfact>
</mgrwt>
</event>
<event>
 6    1  0.2325157E-005  0.1405797E+04  0.7818608E-02  0.8949633E-01
          2   -1    0    0  501    0  0.00000000000E+00  0.00000000000E+00  0.36814664572E+04  0.36814664572E+04  0.00000000000E+00 0.  1.
         -2   -1    0    0    0  501 -0.00000000000E+00 -0.00000000000E+00 -0.13420375288E+03  0.13420375288E+03  0.00000000000E+00 0. -1.
         23    2    1    2    0    0  0.55287015186E+03 -0.29303435414E+03  0.26326073312E+04  0.27074603973E+04  0.90475993158E+02 0.  0.
         11    1    3    3    0    0  0.18972327745E+03 -0.15028387344E+03  0.10028488746E+04  0.10316423944E+04  0.00000000000E+00 0. -1.
        -11    1    3    3    0    0  0.36314687440E+03 -0.14275048070E+03  0.16297584566E+04  0.16758180029E+04  0.00000000000E+00 0.  1.
         22    1    1    2    0    0 -0.55287015186E+03  0.29303435414E+03  0.91465537317E+03  0.11082098128E+04  0.00000000000E+00 0. -1.
<mgrwt>
<rscale>  0 0.14057974E+04</rscale>
<asrwt>0</asrwt>
<pdfrwt beam="1">  1        2 0.56637938E+00 0.14057974E+04</pdfrwt>
<pdfrwt beam="2">  1       -2 0.20646734E-01 0.14057974E+04</pdfrwt>
<totfact> 0.12090049E+01</totfact>
</mgrwt>
</event>
<event>
 6    1  0.2325157E-005  0.6270417E+03  0.7818608E-02  0.9850839E-01
         -2   -1    0    0    0  501 -0.00000000000E+00  0.00000000000E+00  0.89960740051E+02  0.89960740051E+02  0.00000000000E+00 0. -1.
          2   -1    0    0  501    0  0.00000000000E+00 -0.00000000000E+00 -0.10926469291E+04  0.10926469291E+04  0.00000000000E+00 0.  1.
         23    2    1    2    0    0 -0.27471346687E+03  0.84976531475E+02 -0.71081896347E+03  0.77288217915E+03  0.96926591996E+02 0.  0.
         13    1    3    3    0    0 -0.59006023855E+02 -0.21564381888E+02 -0.14183778975E+03  0.15512798593E+03  0.00000000000E+00 0.  1.
        -13    1    3    3    0    0 -0.21570744302E+03  0.10654091336E+03 -0.56898117372E+03  0.61775419322E+03  0.00000000000E+00 0. -1.
         22    1    1    2    0    0  0.27471346687E+03 -0.84976531475E+02 -0.29186722555E+03  0.40972548997E+03  0.00000000000E+00 0. -1.
<mgrwt>
<rscale>  0 0.62704171E+03</rscale>
<asrwt>0</asrwt>
<pdfrwt beam="1">  1        2 0.16809953E+00 0.62704171E+03</pdfrwt>
<pdfrwt beam="2">  1       -2 0.13840114E-01 0.62704171E+03</pdfrwt>
<totfact> 0.89168479E+02</totfact>
</mgrwt>
</event>
<event>
 6    1  0.2325157E-005  0.1518241E+04  0.7818608E-02  0.8872413E-01
          2   -1    0    0  501    0  0.00000000000E+00  0.00000000000E+00  0.90710465935E+03  0.90710465935E+03  0.00000000000E+00 0.  1.
         -2   -1    0    0    0  501 -0.00000000000E+00 -0.00000000000E+00 -0.63527828818E+03  0.63527828818E+03  0.00000000000E+00 0. -1.
         23    2    1    2    0    0 -0.12773077524E+03 -0.15374257802E+03 -0.60583343836E+03  0.64225036147E+03  0.74158212903E+02 0.  0.
         13    1    3    3    0    0 -0.12282295969E+03 -0.98026714653E+02 -0.45597664611E+03  0.48229598590E+03  0.00000000000E+00 0.  1.
        -13    1    3    3    0    0 -0.49078155532E+01 -0.55715863367E+02 -0.14985679224E+03  0.15995437558E+03  0.00000000000E+00 0. -1.
         22    1    1    2    0    0  0.12773077524E+03  0.15374257802E+03  0.87765980952E+03  0.90013258606E+03  0.00000000000E+00 0.  1.
<mgrwt>
<rscale>  0 0.15182409E+04</rscale>
<asrwt>0</asrwt>
<pdfrwt beam="1">  1        2 0.13955456E+00 0.15182409E+04</pdfrwt>
<pdfrwt beam="2">  1       -2 0.97735121E-01 0.15182409E+04</pdfrwt>
<totfact> 0.24402616E+01</totfact>
</mgrwt>
</event>
<event>
 6    1  0.2325157E-005  0.1937815E+04  0.7818608E-02  0.8636259E-01
         -2   -1    0    0    0  501 -0.00000000000E+00  0.00000000000E+00  0.68406584007E+03  0.68406584007E+03  0.00000000000E+00 0. -1.
          2   -1    0    0  501    0  0.00000000000E+00 -0.00000000000E+00 -0.13723553260E+04  0.13723553260E+04  0.00000000000E+00 0.  1.
         23    2    1    2    0    0  0.92109819385E+03 -0.27233861364E+03 -0.22883446987E+03  0.99167278501E+03  0.91975511572E+02 0.  0.
         13    1    3    3    0    0  0.31124604842E+03 -0.90617521615E+02 -0.12226745992E+03  0.34646063216E+03  0.00000000000E+00 0.  1.
        -13    1    3    3    0    0  0.60985214543E+03 -0.18172109203E+03 -0.10656700995E+03  0.64521215285E+03  0.00000000000E+00 0. -1.
         22    1    1    2    0    0 -0.92109819385E+03  0.27233861364E+03 -0.45945501608E+03  0.10647483811E+04  0.00000000000E+00 0.  1.
<mgrwt>
<rscale>  0 0.19378146E+04</rscale>
<asrwt>0</asrwt>
<pdfrwt beam="1">  1        2 0.21113159E+00 0.19378146E+04</pdfrwt>
<pdfrwt beam="2">  1       -2 0.10524090E+00 0.19378146E+04</pdfrwt>
<totfact> 0.10247088E+01</totfact>
</mgrwt>
</event>
<event>
 6    1  0.2325157E-005  0.3058413E+04  0.7818608E-02  0.8227245E-01
         -2   -1    0    0    0  501 -0.00000000000E+00  0.00000000000E+00  0.17607591932E+04  0.17607591932E+04  0.00000000000E+00 0. -1.
          2   -1    0    0  501    0  0.00000000000E+00 -0.00000000000E+00 -0.13281043649E+04  0.13281043649E+04  0.00000000000E+00 0.  1.
         23    2    1    2    0    0 -0.11344143081E+04 -0.60408450697E+03  0.10508616104E+04  0.16626821043E+04  0.91584614217E+02 0.  0.
         13    1    3    3    0    0 -0.36934379785E+03 -0.14919991585E+03  0.31741281290E+03  0.50933913034E+03  0.00000000000E+00 0.  1.
        -13    1    3    3    0    0 -0.76507051024E+03 -0.45488459112E+03  0.73344879755E+03  0.11533429739E+04  0.00000000000E+00 0. -1.
         22    1    1    2    0    0  0.11344143081E+04  0.60408450697E+03 -0.61820678209E+03  0.14261814539E+04  0.00000000000E+00 0.  1.
<mgrwt>
<rscale>  0 0.30584126E+04</rscale>
<asrwt>0</asrwt>
<pdfrwt beam="1">  1        2 0.20432375E+00 0.30584126E+04</pdfrwt>
<pdfrwt beam="2">  1       -2 0.27088603E+00 0.30584126E+04</pdfrwt>
<totfact> 0.64919001E-01</totfact>
</mgrwt>
</event>
<event>
 6    1  0.2325157E-005  0.2676101E+04  0.7818608E-02  0.8342801E-01
         -2   -1    0    0    0  501 -0.00000000000E+00  0.00000000000E+00  0.56952537109E+03  0.56952537109E+03  0.00000000000E+00 0. -1.
          2   -1    0    0  501    0  0.00000000000E+00 -0.00000000000E+00 -0.31436328852E+04  0.31436328852E+04  0.00000000000E+00 0.  1.
         23    2    1    2    0    0  0.67604907545E+03  0.44613927515E+02 -0.28872780047E+04  0.29667612366E+04  0.79153038162E+02 0.  0.
         11    1    3    3    0    0  0.19679116969E+03 -0.22254131107E+02 -0.86991455688E+03  0.89217338398E+03  0.00000000000E+00 0.  1.
        -11    1    3    3    0    0  0.47925790576E+03  0.66868058622E+02 -0.20173634478E+04  0.20745878526E+04  0.00000000000E+00 0. -1.
         22    1    1    2    0    0 -0.67604907545E+03 -0.44613927515E+02  0.31317049056E+03  0.74639701976E+03  0.00000000000E+00 0. -1.
<mgrwt>
<rscale>  0 0.26761007E+04</rscale>
<asrwt>0</asrwt>
<pdfrwt beam="1">  1        2 0.48363582E+00 0.26761007E+04</pdfrwt>
<pdfrwt beam="2">  1       -2 0.87619289E-01 0.26761007E+04</pdfrwt>
<totfact> 0.13937696E+00</totfact>
</mgrwt>
</event>
<event>
 6    1  0.2325157E-005  0.2974711E+04  0.7818608E-02  0.8250989E-01
          2   -1    0    0  501    0  0.00000000000E+00  0.00000000000E+00  0.19932040184E+04  0.19932040184E+04  0.00000000000E+00 0.  1.
         -2   -1    0    0    0  501 -0.00000000000E+00 -0.00000000000E+00 -0.11098843238E+04  0.11098843238E+04  0.00000000000E+00 0. -1.
         23    2    1    2    0    0  0.99355204875E+03 -0.45693442055E+03 -0.60722673192E+03  0.12543959969E+04  0.94075898779E+02 0.  0.
         13    1    3    3    0    0  0.44600454957E+03 -0.20423468193E+03 -0.32607332471E+03  0.58902943613E+03  0.00000000000E+00 0.  1.
        -13    1    3    3    0    0  0.54754749918E+03 -0.25269973862E+03 -0.28115340721E+03  0.66536656073E+03  0.00000000000E+00 0. -1.
         22    1    1    2    0    0 -0.99355204875E+03  0.45693442055E+03  0.14905464264E+04  0.18486923453E+04  0.00000000000E+00 0.  1.
<mgrwt>
<rscale>  0 0.29747107E+04</rscale>
<asrwt>0</asrwt>
<pdfrwt beam="1">  1        2 0.30664677E+00 0.29747107E+04</pdfrwt>
<pdfrwt beam="2">  1       -2 0.17075143E+00 0.29747107E+04</pdfrwt>
<totfact> 0.12172118E+00</totfact>
</mgrwt>
</event>
<event>
 6    1  0.2325157E-005  0.3544700E+04  0.7818608E-02  0.8103278E-01
         -2   -1    0    0    0  501 -0.00000000000E+00  0.00000000000E+00  0.10350228436E+04  0.10350228436E+04  0.00000000000E+00 0. -1.
          2   -1    0    0  501    0  0.00000000000E+00 -0.00000000000E+00 -0.30349323160E+04  0.30349323160E+04  0.00000000000E+00 0.  1.
         23    2    1    2    0    0  0.54918814238E+03  0.16292744996E+04 -0.51225067372E+03  0.17963519153E+04  0.91304107406E+02 0.  0.
         11    1    3    3    0    0  0.23049573838E+03  0.82552077812E+03 -0.24881577343E+03  0.89248088474E+03  0.00000000000E+00 0. -1.
        -11    1    3    3    0    0  0.31869240400E+03  0.80375372149E+03 -0.26343490028E+03  0.90387103055E+03  0.00000000000E+00 0.  1.
         22    1    1    2    0    0 -0.54918814238E+03 -0.16292744996E+04 -0.14876587987E+04  0.22736032442E+04  0.00000000000E+00 0.  1.
<mgrwt>
<rscale>  0 0.35446999E+04</rscale>
<asrwt>0</asrwt>
<pdfrwt beam="1">  1        2 0.46691267E+00 0.35446999E+04</pdfrwt>
<pdfrwt beam="2">  1       -2 0.15923428E+00 0.35446999E+04</pdfrwt>
<totfact> 0.34557527E-01</totfact>
</mgrwt>
</event>
<event>
 6    1  0.2325157E-005  0.3436225E+04  0.7818608E-02  0.8129072E-01
         -2   -1    0    0    0  501 -0.00000000000E+00  0.00000000000E+00  0.14826861414E+04  0.14826861414E+04  0.00000000000E+00 0. -1.
          2   -1    0    0  501    0  0.00000000000E+00 -0.00000000000E+00 -0.19909205914E+04  0.19909205914E+04  0.00000000000E+00 0.  1.
         23    2    1    2    0    0  0.61347093928E+03 -0.16024195759E+04 -0.31679420563E+03  0.17471234697E+04  0.89368669712E+02 0.  0.
         11    1    3    3    0    0  0.51851097149E+03 -0.12525973598E+04 -0.25184239219E+03  0.13788685086E+04  0.00000000000E+00 0.  1.
        -11    1    3    3    0    0  0.94959967790E+02 -0.34982221610E+03 -0.64951813435E+02  0.36825496117E+03  0.00000000000E+00 0. -1.
         22    1    1    2    0    0 -0.61347093928E+03  0.16024195759E+04 -0.19144024439E+03  0.17264832631E+04  0.00000000000E+00 0.  1.
<mgrwt>
<rscale>  0 0.34362249E+04</rscale>
<asrwt>0</asrwt>
<pdfrwt beam="1">  1        2 0.30629548E+00 0.34362249E+04</pdfrwt>
<pdfrwt beam="2">  1       -2 0.22810556E+00 0.34362249E+04</pdfrwt>
<totfact> 0.49062580E-01</totfact>
</mgrwt>
</event>
<event>
 6    1  0.2325157E-005  0.1736302E+04  0.7818608E-02  0.8740926E-01
          2   -1    0    0  501    0  0.00000000000E+00  0.00000000000E+00  0.71790144219E+03  0.71790144219E+03  0.00000000000E+00 0.  1.
         -2   -1    0    0    0  501 -0.00000000000E+00 -0.00000000000E+00 -0.10498465226E+04  0.10498465226E+04  0.00000000000E+00 0. -1.
         23    2    1    2    0    0  0.61025900689E+03 -0.39348180605E+03  0.31152618427E+03  0.79754218474E+03  0.10854024955E+03 0.  0.
         11    1    3    3    0    0  0.87169623754E+02 -0.61824755818E+02  0.90101795796E+02  0.13978260744E+03  0.00000000000E+00 0.  1.
        -11    1    3    3    0    0  0.52308938314E+03 -0.33165705023E+03  0.22142438847E+03  0.65775957730E+03  0.00000000000E+00 0. -1.
         22    1    1    2    0    0 -0.61025900689E+03  0.39348180605E+03 -0.64347126468E+03  0.97020578006E+03  0.00000000000E+00 0. -1.
<mgrwt>
<rscale>  0 0.17363022E+04</rscale>
<asrwt>0</asrwt>
<pdfrwt beam="1">  1        2 0.11044638E+00 0.17363022E+04</pdfrwt>
<pdfrwt beam="2">  1       -2 0.16151485E+00 0.17363022E+04</pdfrwt>
<totfact> 0.92361723E+00</totfact>
</mgrwt>
</event>
<event>
 6    1  0.2325157E-005  0.1853158E+04  0.7818608E-02  0.8678530E-01
         -1   -1    0    0    0  501 -0.00000000000E+00  0.00000000000E+00  0.12800276203E+04  0.12800276203E+04  0.00000000000E+00 0. -1.
          1   -1    0    0  501    0  0.00000000000E+00 -0.00000000000E+00 -0.67072689691E+03  0.67072689691E+03  0.00000000000E+00 0.  1.
         23    2    1    2    0    0  0.29760305350E+03  0.82411823103E+03 -0.42016795596E+01  0.88111736631E+03  0.92799369226E+02 0.  0.
         11    1    3    3    0    0  0.80019555602E+02  0.35406839603E+03  0.60738524589E+01  0.36304882596E+03  0.00000000000E+00 0. -1.
        -11    1    3    3    0    0  0.21758349790E+03  0.47004983500E+03 -0.10275532018E+02  0.51806854035E+03  0.00000000000E+00 0.  1.
         22    1    1    2    0    0 -0.29760305350E+03 -0.82411823103E+03  0.61350240297E+03  0.10696371509E+04  0.00000000000E+00 0. -1.
<mgrwt>
<rscale>  0 0.18531583E+04</rscale>
<asrwt>0</asrwt>
<pdfrwt beam="1">  1        1 0.10318875E+00 0.18531583E+04</pdfrwt>
<pdfrwt beam="2">  1       -1 0.19692733E+00 0.18531583E+04</pdfrwt>
<totfact> 0.43142677E+00</totfact>
</mgrwt>
</event>
<event>
 6    1  0.2325157E-005  0.2091025E+04  0.7818608E-02  0.8565207E-01
          2   -1    0    0  501    0  0.00000000000E+00  0.00000000000E+00  0.10606559129E+04  0.10606559129E+04  0.00000000000E+00 0.  1.
         -2   -1    0    0    0  501 -0.00000000000E+00 -0.00000000000E+00 -0.10305850247E+04  0.10305850247E+04  0.00000000000E+00 0. -1.
         23    2    1    2    0    0 -0.13004772740E+03  0.65919381590E+03 -0.78387641537E+03  0.10357983237E+04  0.83468763890E+02 0.  0.
         11    1    3    3    0    0 -0.25190547201E+02  0.25407483463E+03 -0.34732628479E+03  0.43107323435E+03  0.00000000000E+00 0. -1.
        -11    1    3    3    0    0 -0.10485718020E+03  0.40511898127E+03 -0.43655013058E+03  0.60472508938E+03  0.00000000000E+00 0.  1.
         22    1    1    2    0    0  0.13004772740E+03 -0.65919381590E+03  0.81394730355E+03  0.10554426139E+04  0.00000000000E+00 0.  1.
<mgrwt>
<rscale>  0 0.20910247E+04</rscale>
<asrwt>0</asrwt>
<pdfrwt beam="1">  1        2 0.16317783E+00 0.20910247E+04</pdfrwt>
<pdfrwt beam="2">  1       -2 0.15855154E+00 0.20910247E+04</pdfrwt>
<totfact> 0.54883270E+00</totfact>
</mgrwt>
</event>
<event>
 6    1  0.2325157E-005  0.1036444E+04  0.7818608E-02  0.9269453E-01
         -2   -1    0    0    0  501 -0.00000000000E+00  0.00000000000E+00  0.10642082855E+04  0.10642082855E+04  0.00000000000E+00 0. -1.
          2   -1    0    0  501    0  0.00000000000E+00 -0.00000000000E+00 -0.25235080737E+03  0.25235080737E+03  0.00000000000E+00 0.  1.
         23    2    1    2    0    0  0.19647983727E+03 -0.29029159576E+03  0.88685974481E+03  0.95809169265E+03  0.92444294228E+02 0.  0.
         11    1    3    3    0    0  0.58530708536E+02 -0.64840719550E+02  0.13189006240E+03  0.15819339845E+03  0.00000000000E+00 0. -1.
        -11    1    3    3    0    0  0.13794912873E+03 -0.22545087621E+03  0.75496968241E+03  0.79989829420E+03  0.00000000000E+00 0.  1.
         22    1    1    2    0    0 -0.19647983727E+03  0.29029159576E+03 -0.75002266674E+02  0.35846740023E+03  0.00000000000E+00 0.  1.
<mgrwt>
<rscale>  0 0.10364436E+04</rscale>
<asrwt>0</asrwt>
<pdfrwt beam="1">  1        2 0.38823202E-01 0.10364436E+04</pdfrwt>
<pdfrwt beam="2">  1       -2 0.16372435E+00 0.10364436E+04</pdfrwt>
<totfact> 0.31359785E+01</totfact>
</mgrwt>
</event>
<event>
 6    1  0.2325157E-005  0.6979487E+03  0.7818608E-02  0.9720747E-01
          1   -1    0    0  501    0  0.00000000000E+00  0.00000000000E+00  0.20667566986E+03  0.20667566986E+03  0.00000000000E+00 0.  1.
         -1   -1    0    0    0  501 -0.00000000000E+00 -0.00000000000E+00 -0.58924732055E+03  0.58924732055E+03  0.00000000000E+00 0. -1.
         23    2    1    2    0    0  0.44698511266E+02  0.22130578083E+03 -0.48970697460E+03  0.54601864238E+03  0.85727657823E+02 0.  0.
         13    1    3    3    0    0  0.35380862075E+02  0.18599477755E+03 -0.31487132039E+03  0.36740959579E+03  0.00000000000E+00 0. -1.
        -13    1    3    3    0    0  0.93176491902E+01  0.35311003281E+02 -0.17483565422E+03  0.17860904659E+03  0.00000000000E+00 0.  1.
         22    1    1    2    0    0 -0.44698511266E+02 -0.22130578083E+03  0.10713532391E+03  0.24990434804E+03  0.00000000000E+00 0.  1.
<mgrwt>
<rscale>  0 0.69794866E+03</rscale>
<asrwt>0</asrwt>
<pdfrwt beam="1">  1        1 0.31796258E-01 0.69794866E+03</pdfrwt>
<pdfrwt beam="2">  1       -1 0.90653432E-01 0.69794866E+03</pdfrwt>
<totfact> 0.17203836E+02</totfact>
</mgrwt>
</event>
<event>
 6    1  0.2325157E-005  0.1208835E+04  0.7818608E-02  0.9105158E-01
         -2   -1    0    0    0  501 -0.00000000000E+00  0.00000000000E+00  0.56717792254E+03  0.56717792254E+03  0.00000000000E+00 0. -1.
          2   -1    0    0  501    0  0.00000000000E+00 -0.00000000000E+00 -0.64410259111E+03  0.64410259111E+03  0.00000000000E+00 0.  1.
         23    2    1    2    0    0  0.11475473695E+03 -0.18186195292E+01  0.55321551034E+03  0.57077399369E+03  0.81016010579E+02 0.  0.
         11    1    3    3    0    0  0.45921493153E+02 -0.40490262267E+02  0.26050462425E+03  0.26760213774E+03  0.00000000000E+00 0. -1.
        -11    1    3    3    0    0  0.68833243793E+02  0.38671642737E+02  0.29271088609E+03  0.30317185595E+03  0.00000000000E+00 0.  1.
         22    1    1    2    0    0 -0.11475473695E+03  0.18186195292E+01 -0.63014017890E+03  0.64050651995E+03  0.00000000000E+00 0.  1.
<mgrwt>
<rscale>  0 0.12088354E+04</rscale>
<asrwt>0</asrwt>
<pdfrwt beam="1">  1        2 0.99092706E-01 0.12088354E+04</pdfrwt>
<pdfrwt beam="2">  1       -2 0.87258142E-01 0.12088354E+04</pdfrwt>
<totfact> 0.50912606E+01</totfact>
</mgrwt>
</event>
<event>
 6    1  0.2325157E-005  0.5185963E+04  0.7818608E-02  0.7800444E-01
          2   -1    0    0  501    0  0.00000000000E+00  0.00000000000E+00  0.33190976804E+04  0.33190976804E+04  0.00000000000E+00 0.  1.
         -2   -1    0    0    0  501 -0.00000000000E+00 -0.00000000000E+00 -0.20257174769E+04  0.20257174769E+04  0.00000000000E+00 0. -1.
         23    2    1    2    0    0  0.98080219372E+03 -0.19681387702E+04 -0.76769287308E+03  0.23309197728E+04  0.91057552430E+02 0.  0.
         13    1    3    3    0    0  0.15162361374E+03 -0.38186203514E+03 -0.13516438056E+03  0.43252484772E+03  0.00000000000E+00 0. -1.
        -13    1    3    3    0    0  0.82917857998E+03 -0.15862767350E+04 -0.63252849252E+03  0.18983949251E+04  0.00000000000E+00 0.  1.
         22    1    1    2    0    0 -0.98080219372E+03  0.19681387702E+04  0.20610730766E+04  0.30138953845E+04  0.00000000000E+00 0.  1.
<mgrwt>
<rscale>  0 0.51859634E+04</rscale>
<asrwt>0</asrwt>
<pdfrwt beam="1">  1        2 0.51063041E+00 0.51859634E+04</pdfrwt>
<pdfrwt beam="2">  1       -2 0.31164884E+00 0.51859634E+04</pdfrwt>
<totfact> 0.20888833E-02</totfact>
</mgrwt>
</event>
<event>
 6    1  0.2325157E-005  0.1041242E+04  0.7818608E-02  0.9264433E-01
         -2   -1    0    0    0  501 -0.00000000000E+00  0.00000000000E+00  0.55855986149E+03  0.55855986149E+03  0.00000000000E+00 0.  1.
          2   -1    0    0  501    0  0.00000000000E+00 -0.00000000000E+00 -0.48525943435E+03  0.48525943435E+03  0.00000000000E+00 0. -1.
         23    2    1    2    0    0  0.49048067807E+03 -0.21089231205E+02 -0.12408110408E+03  0.51469216547E+03  0.92172954673E+02 0.  0.
         13    1    3    3    0    0  0.20880654211E+03 -0.47746058786E+02 -0.78413352633E+02  0.22809759321E+03  0.00000000000E+00 0.  1.
        -13    1    3    3    0    0  0.28167413596E+03  0.26656827582E+02 -0.45667751442E+02  0.28659457226E+03  0.00000000000E+00 0. -1.
         22    1    1    2    0    0 -0.49048067807E+03  0.21089231205E+02  0.19738153121E+03  0.52912713037E+03  0.00000000000E+00 0.  1.
<mgrwt>
<rscale>  0 0.10412424E+04</rscale>
<asrwt>0</asrwt>
<pdfrwt beam="1">  1        2 0.74655297E-01 0.10412424E+04</pdfrwt>
<pdfrwt beam="2">  1       -2 0.85932287E-01 0.10412424E+04</pdfrwt>
<totfact> 0.74694724E+01</totfact>
</mgrwt>
</event>
<event>
 6    1  0.2325157E-005  0.2230120E+04  0.7818608E-02  0.8505995E-01
         -1   -1    0    0    0  501 -0.00000000000E+00  0.00000000000E+00  0.17827286639E+04  0.17827286639E+04  0.00000000000E+00 0. -1.
          1   -1    0    0  501    0  0.00000000000E+00 -0.00000000000E+00 -0.69744695554E+03  0.69744695554E+03  0.00000000000E+00 0.  1.
         23    2    1    2    0    0 -0.61684653088E+03 -0.90737869688E+03  0.75371276778E+03  0.13339759402E+04  0.87023735833E+02 0.  0.
         11    1    3    3    0    0 -0.16566251681E+03 -0.20661732801E+03  0.14517426862E+03  0.30201052627E+03  0.00000000000E+00 0.  1.
        -11    1    3    3    0    0 -0.45118401407E+03 -0.70076136887E+03  0.60853849916E+03  0.10319654140E+04  0.00000000000E+00 0. -1.
         22    1    1    2    0    0  0.61684653088E+03  0.90737869688E+03  0.33156894053E+03  0.11461996792E+04  0.00000000000E+00 0. -1.
<mgrwt>
<rscale>  0 0.22301199E+04</rscale>
<asrwt>0</asrwt>
<pdfrwt beam="1">  1        1 0.10729953E+00 0.22301199E+04</pdfrwt>
<pdfrwt beam="2">  1       -1 0.27426595E+00 0.22301199E+04</pdfrwt>
<totfact> 0.12078729E+00</totfact>
</mgrwt>
</event>
<event>
 6    1  0.2325157E-005  0.8178956E+03  0.7818608E-02  0.9534469E-01
          2   -1    0    0  501    0  0.00000000000E+00  0.00000000000E+00  0.62875574096E+03  0.62875574096E+03  0.00000000000E+00 0. -1.
         -2   -1    0    0    0  501 -0.00000000000E+00 -0.00000000000E+00 -0.26598296052E+03  0.26598296052E+03  0.00000000000E+00 0.  1.
         23    2    1    2    0    0  0.39758374159E+03 -0.65036272692E+02  0.15449217723E+03  0.44121542973E+03  0.92199101197E+02 0.  0.
         11    1    3    3    0    0  0.58862097129E+02 -0.44385791653E+02  0.22216806129E+02  0.76996308052E+02  0.00000000000E+00 0. -1.
        -11    1    3    3    0    0  0.33872164446E+03 -0.20650481038E+02  0.13227537110E+03  0.36421912168E+03  0.00000000000E+00 0.  1.
         22    1    1    2    0    0 -0.39758374159E+03  0.65036272692E+02  0.20828060321E+03  0.45352327175E+03  0.00000000000E+00 0.  1.
<mgrwt>
<rscale>  0 0.81789563E+03</rscale>
<asrwt>0</asrwt>
<pdfrwt beam="1">  1        2 0.96731652E-01 0.81789563E+03</pdfrwt>
<pdfrwt beam="2">  1       -2 0.40920456E-01 0.81789563E+03</pdfrwt>
<totfact> 0.26639367E+02</totfact>
</mgrwt>
</event>
<event>
 6    1  0.2325157E-005  0.2066728E+04  0.7818608E-02  0.8576043E-01
          2   -1    0    0  501    0  0.00000000000E+00  0.00000000000E+00  0.48897018079E+03  0.48897018079E+03  0.00000000000E+00 0.  1.
         -2   -1    0    0    0  501 -0.00000000000E+00 -0.00000000000E+00 -0.21838582959E+04  0.21838582959E+04  0.00000000000E+00 0. -1.
         23    2    1    2    0    0  0.79224738088E+02 -0.66181119627E+03  0.16875777959E+03  0.69357441532E+03  0.91080529115E+02 0.  0.
         11    1    3    3    0    0  0.44957326119E+02 -0.45885500261E+03  0.73891625651E+02  0.46693580601E+03  0.00000000000E+00 0.  1.
        -11    1    3    3    0    0  0.34267411969E+02 -0.20295619366E+03  0.94866153940E+02  0.22663860931E+03  0.00000000000E+00 0. -1.
         22    1    1    2    0    0 -0.79224738088E+02  0.66181119627E+03 -0.18636458947E+04  0.19792540614E+04  0.00000000000E+00 0. -1.
<mgrwt>
<rscale>  0 0.20667284E+04</rscale>
<asrwt>0</asrwt>
<pdfrwt beam="1">  1        2 0.75226182E-01 0.20667284E+04</pdfrwt>
<pdfrwt beam="2">  1       -2 0.33597820E+00 0.20667284E+04</pdfrwt>
<totfact> 0.11145691E+00</totfact>
</mgrwt>
</event>
<event>
 6    1  0.2325157E-005  0.1836829E+04  0.7818608E-02  0.8686956E-01
         -2   -1    0    0    0  501 -0.00000000000E+00  0.00000000000E+00  0.48953988404E+03  0.48953988404E+03  0.00000000000E+00 0. -1.
          2   -1    0    0  501    0  0.00000000000E+00 -0.00000000000E+00 -0.17230169194E+04  0.17230169194E+04  0.00000000000E+00 0.  1.
         23    2    1    2    0    0  0.28610872506E+03 -0.82597083126E+03 -0.28795853605E+03  0.92488788280E+03  0.91714015369E+02 0.  0.
         11    1    3    3    0    0  0.12638861303E+03 -0.33682750352E+03 -0.72245291504E+02  0.36694172667E+03  0.00000000000E+00 0.  1.
        -11    1    3    3    0    0  0.15972011203E+03 -0.48914332775E+03 -0.21571324455E+03  0.55794615613E+03  0.00000000000E+00 0. -1.
         22    1    1    2    0    0 -0.28610872506E+03  0.82597083126E+03 -0.94551849934E+03  0.12876689207E+04  0.00000000000E+00 0.  1.
<mgrwt>
<rscale>  0 0.18368293E+04</rscale>
<asrwt>0</asrwt>
<pdfrwt beam="1">  1        2 0.26507953E+00 0.18368293E+04</pdfrwt>
<pdfrwt beam="2">  1       -2 0.75313826E-01 0.18368293E+04</pdfrwt>
<totfact> 0.14178620E+01</totfact>
</mgrwt>
</event>
<event>
 6    1  0.2325157E-005  0.1321131E+04  0.7818608E-02  0.9012974E-01
          2   -1    0    0  501    0  0.00000000000E+00  0.00000000000E+00  0.10049391226E+03  0.10049391226E+03  0.00000000000E+00 0. -1.
         -2   -1    0    0    0  501 -0.00000000000E+00 -0.00000000000E+00 -0.43420216086E+04  0.43420216086E+04  0.00000000000E+00 0.  1.
         23    2    1    2    0    0 -0.61713496404E+03  0.11128981193E+03 -0.27944319337E+04  0.28653892949E+04  0.91460339048E+02 0.  0.
         11    1    3    3    0    0 -0.24249003353E+03  0.17961005744E+02 -0.12498696617E+04  0.12733020794E+04  0.00000000000E+00 0. -1.
        -11    1    3    3    0    0 -0.37464493051E+03  0.93328806183E+02 -0.15445622719E+04  0.15920872156E+04  0.00000000000E+00 0.  1.
         22    1    1    2    0    0  0.61713496404E+03 -0.11128981193E+03 -0.14470957627E+04  0.15771262259E+04  0.00000000000E+00 0. -1.
<mgrwt>
<rscale>  0 0.13211309E+04</rscale>
<asrwt>0</asrwt>
<pdfrwt beam="1">  1        2 0.15460604E-01 0.13211309E+04</pdfrwt>
<pdfrwt beam="2">  1       -2 0.66800325E+00 0.13211309E+04</pdfrwt>
<totfact> 0.11039066E-01</totfact>
</mgrwt>
</event>
<event>
 6    1  0.2325157E-005  0.1320732E+04  0.7818608E-02  0.9013284E-01
          2   -1    0    0  501    0  0.00000000000E+00  0.00000000000E+00  0.57392491231E+03  0.57392491231E+03  0.00000000000E+00 0.  1.
         -2   -1    0    0    0  501 -0.00000000000E+00 -0.00000000000E+00 -0.75982637066E+03  0.75982637066E+03  0.00000000000E+00 0. -1.
         23    2    1    2    0    0  0.61489604705E+03  0.22834051014E+03 -0.13436035112E+03  0.67580521908E+03  0.91779370951E+02 0.  0.
         13    1    3    3    0    0  0.24813579856E+03  0.62057222143E+02 -0.87797627764E+02  0.27042724860E+03  0.00000000000E+00 0.  1.
        -13    1    3    3    0    0  0.36676024850E+03  0.16628328799E+03 -0.46562723358E+02  0.40537797048E+03  0.00000000000E+00 0. -1.
         22    1    1    2    0    0 -0.61489604705E+03 -0.22834051014E+03 -0.51541107229E+02  0.65794606389E+03  0.00000000000E+00 0. -1.
<mgrwt>
<rscale>  0 0.13207320E+04</rscale>
<asrwt>0</asrwt>
<pdfrwt beam="1">  1        2 0.88296140E-01 0.13207320E+04</pdfrwt>
<pdfrwt beam="2">  1       -2 0.11689637E+00 0.13207320E+04</pdfrwt>
<totfact> 0.29008788E+01</totfact>
</mgrwt>
</event>
<event>
 6    1  0.2325157E-005  0.7540237E+03  0.7818608E-02  0.9629059E-01
         -2   -1    0    0    0  501 -0.00000000000E+00  0.00000000000E+00  0.36158572678E+03  0.36158572678E+03  0.00000000000E+00 0.  1.
          2   -1    0    0  501    0  0.00000000000E+00 -0.00000000000E+00 -0.39309604459E+03  0.39309604459E+03  0.00000000000E+00 0. -1.
         23    2    1    2    0    0 -0.69386735018E+02  0.29063194093E+03  0.20462712499E+03  0.37383753026E+03  0.92740469388E+02 0.  0.
         13    1    3    3    0    0  0.21725072486E+02  0.84332090709E+02  0.50349616932E+02  0.10059306250E+03  0.00000000000E+00 0. -1.
        -13    1    3    3    0    0 -0.91111807504E+02  0.20629985023E+03  0.15427750806E+03  0.27324446776E+03  0.00000000000E+00 0.  1.
         22    1    1    2    0    0  0.69386735018E+02 -0.29063194093E+03 -0.23613744280E+03  0.38084424110E+03  0.00000000000E+00 0. -1.
<mgrwt>
<rscale>  0 0.75402366E+03</rscale>
<asrwt>0</asrwt>
<pdfrwt beam="1">  1        2 0.60476315E-01 0.75402366E+03</pdfrwt>
<pdfrwt beam="2">  1       -2 0.55628573E-01 0.75402366E+03</pdfrwt>
<totfact> 0.24836589E+02</totfact>
</mgrwt>
</event>
<event>
 6    1  0.2325157E-005  0.3600104E+04  0.7818608E-02  0.8090468E-01
          1   -1    0    0  501    0  0.00000000000E+00  0.00000000000E+00  0.31014053564E+04  0.31014053564E+04  0.00000000000E+00 0.  1.
         -1   -1    0    0    0  501 -0.00000000000E+00 -0.00000000000E+00 -0.10447481564E+04  0.10447481564E+04  0.00000000000E+00 0. -1.
         23    2    1    2    0    0 -0.12412023333E+04 -0.12733004735E+04  0.13429462805E+04  0.22301001199E+04  0.89244072877E+02 0.  0.
         11    1    3    3    0    0 -0.26670108489E+03 -0.24255825292E+03  0.23695716057E+03  0.43140777773E+03  0.00000000000E+00 0. -1.
        -11    1    3    3    0    0 -0.97450124843E+03 -0.10307422205E+04  0.11059891199E+04  0.17986923422E+04  0.00000000000E+00 0.  1.
         22    1    1    2    0    0  0.12412023333E+04  0.12733004735E+04  0.71371091940E+03  0.19160533929E+04  0.00000000000E+00 0.  1.
<mgrwt>
<rscale>  0 0.36001042E+04</rscale>
<asrwt>0</asrwt>
<pdfrwt beam="1">  1        1 0.47713928E+00 0.36001042E+04</pdfrwt>
<pdfrwt beam="2">  1       -1 0.16073049E+00 0.36001042E+04</pdfrwt>
<totfact> 0.11742450E-01</totfact>
</mgrwt>
</event>
<event>
 6    1  0.2325157E-005  0.5180137E+04  0.7818608E-02  0.7801305E-01
          2   -1    0    0  501    0  0.00000000000E+00  0.00000000000E+00  0.27035644777E+04  0.27035644777E+04  0.00000000000E+00 0.  1.
         -2   -1    0    0    0  501 -0.00000000000E+00 -0.00000000000E+00 -0.24813374383E+04  0.24813374383E+04  0.00000000000E+00 0. -1.
         23    2    1    2    0    0 -0.12855632179E+04  0.41185683255E+02  0.23604030689E+04  0.26896733130E+04  0.92037140753E+02 0.  0.
         13    1    3    3    0    0 -0.75774024586E+03 -0.33402061540E+01  0.13136853445E+04  0.15165588091E+04  0.00000000000E+00 0. -1.
        -13    1    3    3    0    0 -0.52782297209E+03  0.44525889409E+02  0.10467177244E+04  0.11731145039E+04  0.00000000000E+00 0.  1.
         22    1    1    2    0    0  0.12855632179E+04 -0.41185683255E+02 -0.21381760295E+04  0.24952286030E+04  0.00000000000E+00 0. -1.
<mgrwt>
<rscale>  0 0.51801374E+04</rscale>
<asrwt>0</asrwt>
<pdfrwt beam="1">  1        2 0.41593300E+00 0.51801374E+04</pdfrwt>
<pdfrwt beam="2">  1       -2 0.38174422E+00 0.51801374E+04</pdfrwt>
<totfact> 0.18509630E-02</totfact>
</mgrwt>
</event>
<event>
 6    1  0.2325157E-005  0.1056321E+04  0.7818608E-02  0.9248842E-01
          2   -1    0    0  501    0  0.00000000000E+00  0.00000000000E+00  0.10376760383E+04  0.10376760383E+04  0.00000000000E+00 0.  1.
         -2   -1    0    0    0  501 -0.00000000000E+00 -0.00000000000E+00 -0.26882511333E+03  0.26882511333E+03  0.00000000000E+00 0. -1.
         23    2    1    2    0    0 -0.19601879541E+03 -0.21586009199E+03 -0.15135697851E+03  0.34120247605E+03  0.92147963902E+02 0.  0.
         13    1    3    3    0    0 -0.16966809682E+03 -0.22100440241E+03 -0.13346428623E+03  0.30893838327E+03  0.00000000000E+00 0. -1.
        -13    1    3    3    0    0 -0.26350698588E+02  0.51443104123E+01 -0.17892692280E+02  0.32264092777E+02  0.00000000000E+00 0.  1.
         22    1    1    2    0    0  0.19601879541E+03  0.21586009199E+03  0.92020790347E+03  0.96529867558E+03  0.00000000000E+00 0.  1.
<mgrwt>
<rscale>  0 0.10563207E+04</rscale>
<asrwt>0</asrwt>
<pdfrwt beam="1">  1        2 0.15964246E+00 0.10563207E+04</pdfrwt>
<pdfrwt beam="2">  1       -2 0.41357711E-01 0.10563207E+04</pdfrwt>
<totfact> 0.13128302E+02</totfact>
</mgrwt>
</event>
<event>
 6    1  0.2325157E-005  0.3307344E+04  0.7818608E-02  0.8161029E-01
         -2   -1    0    0    0  501 -0.00000000000E+00  0.00000000000E+00  0.14648318953E+04  0.14648318953E+04  0.00000000000E+00 0. -1.
          2   -1    0    0  501    0  0.00000000000E+00 -0.00000000000E+00 -0.18668564884E+04  0.18668564884E+04  0.00000000000E+00 0.  1.
         23    2    1    2    0    0 -0.53136194942E+03 -0.57560738195E+03  0.12642589114E+04  0.14904469283E+04  0.97015831227E+02 0.  0.
         13    1    3    3    0    0 -0.38366884584E+03 -0.36010343474E+03  0.89255695635E+03  0.10361149489E+04  0.00000000000E+00 0.  1.
        -13    1    3    3    0    0 -0.14769310358E+03 -0.21550394721E+03  0.37170195506E+03  0.45433197940E+03  0.00000000000E+00 0. -1.
         22    1    1    2    0    0  0.53136194942E+03  0.57560738195E+03 -0.16662835046E+04  0.18412414554E+04  0.00000000000E+00 0.  1.
<mgrwt>
<rscale>  0 0.33073439E+04</rscale>
<asrwt>0</asrwt>
<pdfrwt beam="1">  1        2 0.28720869E+00 0.33073439E+04</pdfrwt>
<pdfrwt beam="2">  1       -2 0.22535875E+00 0.33073439E+04</pdfrwt>
<totfact> 0.60462240E-01</totfact>
</mgrwt>
</event>
<event>
 6    1  0.2325157E-005  0.2096420E+04  0.7818608E-02  0.8562822E-01
          2   -1    0    0  501    0  0.00000000000E+00  0.00000000000E+00  0.23487245607E+04  0.23487245607E+04  0.00000000000E+00 0.  1.
         -2   -1    0    0    0  501 -0.00000000000E+00 -0.00000000000E+00 -0.46780463827E+03  0.46780463827E+03  0.00000000000E+00 0. -1.
         23    2    1    2    0    0 -0.66733096587E+03 -0.14947799872E+03  0.20060637233E+04  0.21213060255E+04  0.89293345182E+02 0.  0.
         11    1    3    3    0    0 -0.56521783057E+03 -0.10738952174E+03  0.17584781357E+04  0.18502024373E+04  0.00000000000E+00 0.  1.
        -11    1    3    3    0    0 -0.10211313530E+03 -0.42088476981E+02  0.24758558763E+03  0.27110358813E+03  0.00000000000E+00 0. -1.
         22    1    1    2    0    0  0.66733096587E+03  0.14947799872E+03 -0.12514380088E+03  0.69522317352E+03  0.00000000000E+00 0. -1.
<mgrwt>
<rscale>  0 0.20964200E+04</rscale>
<asrwt>0</asrwt>
<pdfrwt beam="1">  1        2 0.36134223E+00 0.20964200E+04</pdfrwt>
<pdfrwt beam="2">  1       -2 0.71969946E-01 0.20964200E+04</pdfrwt>
<totfact> 0.68583996E+00</totfact>
</mgrwt>
</event>
<event>
 6    1  0.2325157E-005  0.3850078E+04  0.7818608E-02  0.8035493E-01
          2   -1    0    0  501    0  0.00000000000E+00  0.00000000000E+00  0.43085498746E+04  0.43085498746E+04  0.00000000000E+00 0.  1.
         -2   -1    0    0    0  501 -0.00000000000E+00 -0.00000000000E+00 -0.86009811215E+03  0.86009811215E+03  0.00000000000E+00 0. -1.
         23    2    1    2    0    0  0.42175905792E+03  0.97697032230E+03  0.38770397611E+04  0.40214603883E+04  0.91403674612E+02 0.  0.
         13    1    3    3    0    0  0.21091063423E+03  0.44890249600E+03  0.19682884366E+04  0.20298167691E+04  0.00000000000E+00 0. -1.
        -13    1    3    3    0    0  0.21084842369E+03  0.52806782630E+03  0.19087513245E+04  0.19916436191E+04  0.00000000000E+00 0.  1.
         22    1    1    2    0    0 -0.42175905792E+03 -0.97697032230E+03 -0.42858799862E+03  0.11471875985E+04  0.00000000000E+00 0. -1.
<mgrwt>
<rscale>  0 0.38500782E+04</rscale>
<asrwt>0</asrwt>
<pdfrwt beam="1">  1        2 0.66285382E+00 0.38500782E+04</pdfrwt>
<pdfrwt beam="2">  1       -2 0.13232279E+00 0.38500782E+04</pdfrwt>
<totfact> 0.61460030E-02</totfact>
</mgrwt>
</event>
<event>
 6    1  0.2325157E-005  0.1952210E+04  0.7818608E-02  0.8629296E-01
         -2   -1    0    0    0  501 -0.00000000000E+00  0.00000000000E+00  0.62132141570E+03  0.62132141570E+03  0.00000000000E+00 0.  1.
          2   -1    0    0  501    0  0.00000000000E+00 -0.00000000000E+00 -0.15334759148E+04  0.15334759148E+04  0.00000000000E+00 0. -1.
         23    2    1    2    0    0  0.10107087438E+03  0.37400978393E+03 -0.14434183711E+04  0.14972717099E+04  0.90924909266E+02 0.  0.
         11    1    3    3    0    0  0.49832283516E+02  0.93177826378E+02 -0.52431201311E+03  0.53485367242E+03  0.00000000000E+00 0. -1.
        -11    1    3    3    0    0  0.51238590867E+02  0.28083195756E+03 -0.91910635794E+03  0.96241803744E+03  0.00000000000E+00 0.  1.
         22    1    1    2    0    0 -0.10107087438E+03 -0.37400978393E+03  0.53126387197E+03  0.65752562063E+03  0.00000000000E+00 0.  1.
<mgrwt>
<rscale>  0 0.19522105E+04</rscale>
<asrwt>0</asrwt>
<pdfrwt beam="1">  1        2 0.23591937E+00 0.19522105E+04</pdfrwt>
<pdfrwt beam="2">  1       -2 0.95587910E-01 0.19522105E+04</pdfrwt>
<totfact> 0.10413635E+01</totfact>
</mgrwt>
</event>
<event>
 6    1  0.2325157E-005  0.1936821E+04  0.7818608E-02  0.8636742E-01
          2   -1    0    0  501    0  0.00000000000E+00  0.00000000000E+00  0.31753964179E+04  0.31753964179E+04  0.00000000000E+00 0.  1.
         -2   -1    0    0    0  501 -0.00000000000E+00 -0.00000000000E+00 -0.29533901216E+03  0.29533901216E+03  0.00000000000E+00 0. -1.
         23    2    1    2    0    0 -0.12852621801E+03 -0.75575198833E+03  0.38917713163E+03  0.86455727105E+03  0.91216109121E+02 0.  0.
         13    1    3    3    0    0 -0.45399867470E+02 -0.38751329908E+03  0.15198307599E+03  0.41872014558E+03  0.00000000000E+00 0. -1.
        -13    1    3    3    0    0 -0.83126350536E+02 -0.36823868925E+03  0.23719405564E+03  0.44583712547E+03  0.00000000000E+00 0.  1.
         22    1    1    2    0    0  0.12852621801E+03  0.75575198833E+03  0.24908802741E+04  0.26061781590E+04  0.00000000000E+00 0.  1.
<mgrwt>
<rscale>  0 0.19368205E+04</rscale>
<asrwt>0</asrwt>
<pdfrwt beam="1">  1        2 0.48852250E+00 0.19368205E+04</pdfrwt>
<pdfrwt beam="2">  1       -2 0.45436773E-01 0.19368205E+04</pdfrwt>
<totfact> 0.57937799E+00</totfact>
</mgrwt>
</event>
<event>
 6    1  0.3103419E-005  0.2955470E+04  0.7818608E-02  0.8256562E-01
         -2   -1    0    0    0  501 -0.00000000000E+00  0.00000000000E+00  0.97901185312E+03  0.97901185312E+03  0.00000000000E+00 0. -1.
          2   -1    0    0  501    0  0.00000000000E+00 -0.00000000000E+00 -0.22305149872E+04  0.22305149872E+04  0.00000000000E+00 0.  1.
         23    2    1    2    0    0 -0.55651687769E+03  0.69425216602E+02 -0.21093732016E+04  0.21846015022E+04  0.92182016135E+02 0.  0.
         13    1    3    3    0    0 -0.34389070605E+03  0.69329086523E+02 -0.11697792563E+04  0.12212497076E+04  0.00000000000E+00 0.  1.
        -13    1    3    3    0    0 -0.21262617165E+03  0.96130079302E-01 -0.93959394532E+03  0.96335179462E+03  0.00000000000E+00 0. -1.
         22    1    1    2    0    0  0.55651687769E+03 -0.69425216602E+02  0.85787006753E+03  0.10249253381E+04  0.00000000000E+00 0. -1.
<mgrwt>
<rscale>  0 0.29554699E+04</rscale>
<asrwt>0</asrwt>
<pdfrwt beam="1">  1        2 0.34315615E+00 0.29554699E+04</pdfrwt>
<pdfrwt beam="2">  1       -2 0.15061721E+00 0.29554699E+04</pdfrwt>
<totfact> 0.12637294E+00</totfact>
</mgrwt>
</event>
<event>
 6    1  0.2325157E-005  0.1069558E+04  0.7818608E-02  0.9235382E-01
         -2   -1    0    0    0  501 -0.00000000000E+00  0.00000000000E+00  0.13356841363E+03  0.13356841363E+03  0.00000000000E+00 0. -1.
          2   -1    0    0  501    0  0.00000000000E+00 -0.00000000000E+00 -0.21411385185E+04  0.21411385185E+04  0.00000000000E+00 0.  1.
         23    2    1    2    0    0  0.22138309872E+03 -0.24504614783E+02 -0.20362861257E+04  0.20501282991E+04  0.83390075522E+02 0.  0.
         11    1    3    3    0    0  0.14195948355E+03  0.18357867418E+02 -0.14325579499E+04  0.14396915594E+04  0.00000000000E+00 0. -1.
        -11    1    3    3    0    0  0.79423615170E+02 -0.42862482201E+02 -0.60372817574E+03  0.61043673973E+03  0.00000000000E+00 0.  1.
         22    1    1    2    0    0 -0.22138309872E+03  0.24504614783E+02  0.28716020819E+02  0.22457863299E+03  0.00000000000E+00 0. -1.
<mgrwt>
<rscale>  0 0.10695578E+04</rscale>
<asrwt>0</asrwt>
<pdfrwt beam="1">  1        2 0.32940591E+00 0.10695578E+04</pdfrwt>
<pdfrwt beam="2">  1       -2 0.20548988E-01 0.10695578E+04</pdfrwt>
<totfact> 0.11342050E+02</totfact>
</mgrwt>
</event>
<event>
 6    1  0.2325157E-005  0.2452329E+04  0.7818608E-02  0.8420168E-01
          2   -1    0    0  501    0  0.00000000000E+00  0.00000000000E+00  0.16492468725E+04  0.16492468725E+04  0.00000000000E+00 0.  1.
         -2   -1    0    0    0  501 -0.00000000000E+00 -0.00000000000E+00 -0.91161577567E+03  0.91161577567E+03  0.00000000000E+00 0. -1.
         23    2    1    2    0    0  0.72883743651E+03  0.11408955457E+03 -0.65124575914E+03  0.98822176215E+03  0.90778725898E+02 0.  0.
         11    1    3    3    0    0  0.51370115628E+03  0.12159917797E+03 -0.45474427320E+03  0.69675504452E+03  0.00000000000E+00 0.  1.
        -11    1    3    3    0    0  0.21513628023E+03 -0.75096234068E+01 -0.19650148594E+03  0.29146671764E+03  0.00000000000E+00 0. -1.
         22    1    1    2    0    0 -0.72883743651E+03 -0.11408955457E+03  0.13888768560E+04  0.15726408860E+04  0.00000000000E+00 0.  1.
<mgrwt>
<rscale>  0 0.24523291E+04</rscale>
<asrwt>0</asrwt>
<pdfrwt beam="1">  1        2 0.25373029E+00 0.24523291E+04</pdfrwt>
<pdfrwt beam="2">  1       -2 0.14024858E+00 0.24523291E+04</pdfrwt>
<totfact> 0.33510587E+00</totfact>
</mgrwt>
</event>
<event>
 6    1  0.2325157E-005  0.7403314E+03  0.7818608E-02  0.9650642E-01
          2   -1    0    0  501    0  0.00000000000E+00  0.00000000000E+00  0.59673086350E+03  0.59673086350E+03  0.00000000000E+00 0.  1.
         -2   -1    0    0    0  501 -0.00000000000E+00 -0.00000000000E+00 -0.22962216229E+03  0.22962216229E+03  0.00000000000E+00 0. -1.
         23    2    1    2    0    0  0.35550839800E+03  0.58470761087E+02  0.12323068178E+03  0.39128804294E+03  0.90085962612E+02 0.  0.
         13    1    3    3    0    0  0.58382410920E+02  0.27774867374E+02  0.55012140162E+02  0.84889838778E+02  0.00000000000E+00 0. -1.
        -13    1    3    3    0    0  0.29712598708E+03  0.30695893712E+02  0.68218541622E+02  0.30639820416E+03  0.00000000000E+00 0.  1.
         22    1    1    2    0    0 -0.35550839800E+03 -0.58470761087E+02  0.24387801943E+03  0.43506498286E+03  0.00000000000E+00 0.  1.
<mgrwt>
<rscale>  0 0.74033136E+03</rscale>
<asrwt>0</asrwt>
<pdfrwt beam="1">  1        2 0.91804748E-01 0.74033136E+03</pdfrwt>
<pdfrwt beam="2">  1       -2 0.35326487E-01 0.74033136E+03</pdfrwt>
<totfact> 0.37819318E+02</totfact>
</mgrwt>
</event>
<event>
 6    1  0.2325157E-005  0.1002679E+04  0.7818608E-02  0.9305612E-01
          2   -1    0    0  501    0  0.00000000000E+00  0.00000000000E+00  0.19382779641E+04  0.19382779641E+04  0.00000000000E+00 0.  1.
         -2   -1    0    0    0  501 -0.00000000000E+00 -0.00000000000E+00 -0.12967244643E+03  0.12967244643E+03  0.00000000000E+00 0. -1.
         23    2    1    2    0    0 -0.10780245897E+03  0.43287735124E+03  0.13646746652E+04  0.14386025154E+04  0.90752873279E+02 0.  0.
         11    1    3    3    0    0 -0.81370597440E+02  0.26402858004E+03  0.96849347245E+03  0.10071305136E+04  0.00000000000E+00 0.  1.
        -11    1    3    3    0    0 -0.26431861531E+02  0.16884877120E+03  0.39618119279E+03  0.43147200183E+03  0.00000000000E+00 0. -1.
         22    1    1    2    0    0  0.10780245897E+03 -0.43287735124E+03  0.44393085247E+03  0.62934789517E+03  0.00000000000E+00 0. -1.
<mgrwt>
<rscale>  0 0.10026789E+04</rscale>
<asrwt>0</asrwt>
<pdfrwt beam="1">  1        2 0.29819659E+00 0.10026789E+04</pdfrwt>
<pdfrwt beam="2">  1       -2 0.19949609E-01 0.10026789E+04</pdfrwt>
<totfact> 0.15541403E+02</totfact>
</mgrwt>
</event>
<event>
 6    1  0.2325157E-005  0.5644845E+04  0.7818608E-02  0.7736067E-01
          2   -1    0    0  501    0  0.00000000000E+00  0.00000000000E+00  0.49976449001E+04  0.49976449001E+04  0.00000000000E+00 0.  1.
         -2   -1    0    0    0  501 -0.00000000000E+00 -0.00000000000E+00 -0.15939645025E+04  0.15939645025E+04  0.00000000000E+00 0. -1.
         23    2    1    2    0    0 -0.14526187342E+04 -0.14253553656E+04  0.39847091380E+04  0.44751658049E+04  0.86388434818E+02 0.  0.
         11    1    3    3    0    0 -0.11183547034E+04 -0.11163051897E+04  0.31650966044E+04  0.35376109218E+04  0.00000000000E+00 0. -1.
        -11    1    3    3    0    0 -0.33426403071E+03 -0.30905017589E+03  0.81961253365E+03  0.93755488307E+03  0.00000000000E+00 0.  1.
         22    1    1    2    0    0  0.14526187342E+04  0.14253553656E+04 -0.58102874051E+03  0.21164435977E+04  0.00000000000E+00 0. -1.
<mgrwt>
<rscale>  0 0.56448449E+04</rscale>
<asrwt>0</asrwt>
<pdfrwt beam="1">  1        2 0.76886844E+00 0.56448449E+04</pdfrwt>
<pdfrwt beam="2">  1       -2 0.24522531E+00 0.56448449E+04</pdfrwt>
<totfact> 0.16119291E-03</totfact>
</mgrwt>
</event>
<event>
 6    1  0.2325157E-005  0.1720904E+04  0.7818608E-02  0.8749531E-01
          2   -1    0    0  501    0  0.00000000000E+00  0.00000000000E+00  0.15213337936E+04  0.15213337936E+04  0.00000000000E+00 0.  1.
         -2   -1    0    0    0  501 -0.00000000000E+00 -0.00000000000E+00 -0.48666357539E+03  0.48666357539E+03  0.00000000000E+00 0. -1.
         23    2    1    2    0    0 -0.52818316766E+03  0.41696773609E+03 -0.10240831891E+03  0.68671498012E+03  0.90831980076E+02 0.  0.
         11    1    3    3    0    0 -0.41591565070E+03  0.27912247338E+03 -0.85427844326E+02  0.50812705126E+03  0.00000000000E+00 0. -1.
        -11    1    3    3    0    0 -0.11226751696E+03  0.13784526271E+03 -0.16980474580E+02  0.17858792886E+03  0.00000000000E+00 0.  1.
         22    1    1    2    0    0  0.52818316766E+03 -0.41696773609E+03  0.11370785371E+04  0.13212823888E+04  0.00000000000E+00 0.  1.
<mgrwt>
<rscale>  0 0.17209041E+04</rscale>
<asrwt>0</asrwt>
<pdfrwt beam="1">  1        2 0.23405135E+00 0.17209041E+04</pdfrwt>
<pdfrwt beam="2">  1       -2 0.74871320E-01 0.17209041E+04</pdfrwt>
<totfact> 0.18799896E+01</totfact>
</mgrwt>
</event>
<event>
 6    1  0.2325157E-005  0.3002754E+04  0.7818608E-02  0.8242945E-01
         -2   -1    0    0    0  501 -0.00000000000E+00  0.00000000000E+00  0.18281803420E+04  0.18281803420E+04  0.00000000000E+00 0. -1.
          2   -1    0    0  501    0  0.00000000000E+00 -0.00000000000E+00 -0.12329922837E+04  0.12329922837E+04  0.00000000000E+00 0.  1.
         23    2    1    2    0    0 -0.12165439065E+04 -0.76844207623E+03  0.72968749544E+03  0.16159832265E+04  0.92063274504E+02 0.  0.
         11    1    3    3    0    0 -0.28872373797E+02 -0.11401686153E+02  0.31477938630E+01  0.31201298402E+02  0.00000000000E+00 0.  1.
        -11    1    3    3    0    0 -0.11876715327E+04 -0.75704039008E+03  0.72653970157E+03  0.15847819281E+04  0.00000000000E+00 0. -1.
         22    1    1    2    0    0  0.12165439065E+04  0.76844207623E+03 -0.13449943718E+03  0.14451893992E+04  0.00000000000E+00 0. -1.
<mgrwt>
<rscale>  0 0.30027536E+04</rscale>
<asrwt>0</asrwt>
<pdfrwt beam="1">  1        2 0.18969112E+00 0.30027536E+04</pdfrwt>
<pdfrwt beam="2">  1       -2 0.28125851E+00 0.30027536E+04</pdfrwt>
<totfact> 0.64097523E-01</totfact>
</mgrwt>
</event>
<event>
 6    1  0.2325157E-005  0.1454997E+04  0.7818608E-02  0.8914943E-01
         -2   -1    0    0    0  501 -0.00000000000E+00  0.00000000000E+00  0.74584247016E+03  0.74584247016E+03  0.00000000000E+00 0.  1.
          2   -1    0    0  501    0  0.00000000000E+00 -0.00000000000E+00 -0.70960604424E+03  0.70960604424E+03  0.00000000000E+00 0. -1.
         23    2    1    2    0    0 -0.42371735642E+03  0.10835017761E+03 -0.55937622066E+03  0.71650969158E+03  0.95959485027E+02 0.  0.
         11    1    3    3    0    0 -0.23227303437E+03  0.87201558169E+02 -0.25100071501E+03  0.35292525155E+03  0.00000000000E+00 0. -1.
        -11    1    3    3    0    0 -0.19144432205E+03  0.21148619436E+02 -0.30837550565E+03  0.36358444003E+03  0.00000000000E+00 0.  1.
         22    1    1    2    0    0  0.42371735642E+03 -0.10835017761E+03  0.59561264658E+03  0.73893882283E+03  0.00000000000E+00 0.  1.
<mgrwt>
<rscale>  0 0.14549974E+04</rscale>
<asrwt>0</asrwt>
<pdfrwt beam="1">  1        2 0.10917016E+00 0.14549974E+04</pdfrwt>
<pdfrwt beam="2">  1       -2 0.11474500E+00 0.14549974E+04</pdfrwt>
<totfact> 0.23143140E+01</totfact>
</mgrwt>
</event>
<event>
 6    1  0.2325157E-005  0.3948278E+04  0.7818608E-02  0.8015062E-01
          2   -1    0    0  501    0  0.00000000000E+00  0.00000000000E+00  0.10444464943E+04  0.10444464943E+04  0.00000000000E+00 0.  1.
         -2   -1    0    0    0  501 -0.00000000000E+00 -0.00000000000E+00 -0.37313786748E+04  0.37313786748E+04  0.00000000000E+00 0. -1.
         23    2    1    2    0    0 -0.84014605067E+03  0.13256502205E+04  0.10230614727E+03  0.15753495259E+04  0.89809173471E+02 0.  0.
         13    1    3    3    0    0 -0.38174796427E+03  0.52427229903E+03  0.56657422278E+02  0.65100154781E+03  0.00000000000E+00 0. -1.
        -13    1    3    3    0    0 -0.45839808640E+03  0.80137792143E+03  0.45648724997E+02  0.92434797812E+03  0.00000000000E+00 0.  1.
         22    1    1    2    0    0  0.84014605067E+03 -0.13256502205E+04 -0.27892383278E+04  0.32004756432E+04  0.00000000000E+00 0. -1.
<mgrwt>
<rscale>  0 0.39482783E+04</rscale>
<asrwt>0</asrwt>
<pdfrwt beam="1">  1        2 0.16068408E+00 0.39482783E+04</pdfrwt>
<pdfrwt beam="2">  1       -2 0.57405826E+00 0.39482783E+04</pdfrwt>
<totfact> 0.12201504E-02</totfact>
</mgrwt>
</event>
<event>
 6    1  0.2325157E-005  0.9425813E+03  0.7818608E-02  0.9373864E-01
          1   -1    0    0  501    0  0.00000000000E+00  0.00000000000E+00  0.99087938092E+03  0.99087938092E+03  0.00000000000E+00 0.  1.
         -1   -1    0    0    0  501 -0.00000000000E+00 -0.00000000000E+00 -0.22415934335E+03  0.22415934335E+03  0.00000000000E+00 0. -1.
         23    2    1    2    0    0 -0.43039631414E+03 -0.74186969021E+02  0.59921019231E+03  0.74727356754E+03  0.92845229153E+02 0.  0.
         11    1    3    3    0    0 -0.32883272399E+03 -0.70251889704E+02  0.39186776251E+03  0.51635901432E+03  0.00000000000E+00 0. -1.
        -11    1    3    3    0    0 -0.10156359015E+03 -0.39350793163E+01  0.20734242980E+03  0.23091455322E+03  0.00000000000E+00 0.  1.
         22    1    1    2    0    0  0.43039631414E+03  0.74186969021E+02  0.16750984526E+03  0.46776515673E+03  0.00000000000E+00 0. -1.
<mgrwt>
<rscale>  0 0.94258129E+03</rscale>
<asrwt>0</asrwt>
<pdfrwt beam="1">  1        1 0.15244298E+00 0.94258129E+03</pdfrwt>
<pdfrwt beam="2">  1       -1 0.34486053E-01 0.94258129E+03</pdfrwt>
<totfact> 0.12311179E+02</totfact>
</mgrwt>
</event>
<event>
 6    1  0.2325157E-005  0.3360587E+04  0.7818608E-02  0.8147648E-01
         -2   -1    0    0    0  501 -0.00000000000E+00  0.00000000000E+00  0.11496653098E+04  0.11496653098E+04  0.00000000000E+00 0. -1.
          2   -1    0    0  501    0  0.00000000000E+00 -0.00000000000E+00 -0.24558325481E+04  0.24558325481E+04  0.00000000000E+00 0.  1.
         23    2    1    2    0    0  0.12946937312E+04 -0.84522873949E+03  0.48913076544E+02  0.15495586226E+04  0.89977530895E+02 0.  0.
         11    1    3    3    0    0  0.49941180849E+03 -0.37566040254E+03  0.48392002394E+01  0.62494504587E+03  0.00000000000E+00 0. -1.
        -11    1    3    3    0    0  0.79528192273E+03 -0.46956833695E+03  0.44073876305E+02  0.92461357672E+03  0.00000000000E+00 0.  1.
         22    1    1    2    0    0 -0.12946937312E+04  0.84522873949E+03 -0.13550803148E+04  0.20559392353E+04  0.00000000000E+00 0. -1.
<mgrwt>
<rscale>  0 0.33605865E+04</rscale>
<asrwt>0</asrwt>
<pdfrwt beam="1">  1        2 0.37782039E+00 0.33605865E+04</pdfrwt>
<pdfrwt beam="2">  1       -2 0.17687159E+00 0.33605865E+04</pdfrwt>
<totfact> 0.58489793E-01</totfact>
</mgrwt>
</event>
<event>
 6    1  0.2325157E-005  0.2605491E+04  0.7818608E-02  0.8366339E-01
         -2   -1    0    0    0  501 -0.00000000000E+00  0.00000000000E+00  0.95160491325E+03  0.95160491325E+03  0.00000000000E+00 0. -1.
          2   -1    0    0  501    0  0.00000000000E+00 -0.00000000000E+00 -0.17834559432E+04  0.17834559432E+04  0.00000000000E+00 0.  1.
         23    2    1    2    0    0  0.43026242038E+03 -0.98018363984E+03  0.35890955124E+03  0.11338748960E+04  0.10474013379E+03 0.  0.
         13    1    3    3    0    0  0.40994001890E+03 -0.85214167652E+03  0.30671446668E+03  0.99411770934E+03  0.00000000000E+00 0. -1.
        -13    1    3    3    0    0  0.20322401481E+02 -0.12804196332E+03  0.52195084553E+02  0.13975718667E+03  0.00000000000E+00 0.  1.
         22    1    1    2    0    0 -0.43026242038E+03  0.98018363984E+03 -0.11907605812E+04  0.16011859604E+04  0.00000000000E+00 0.  1.
<mgrwt>
<rscale>  0 0.26054907E+04</rscale>
<asrwt>0</asrwt>
<pdfrwt beam="1">  1        2 0.27437783E+00 0.26054907E+04</pdfrwt>
<pdfrwt beam="2">  1       -2 0.14640076E+00 0.26054907E+04</pdfrwt>
<totfact> 0.24899361E+00</totfact>
</mgrwt>
</event>
<event>
 6    1  0.3184780E-005  0.3971875E+04  0.7818608E-02  0.8010244E-01
          1   -1    0    0  501    0  0.00000000000E+00  0.00000000000E+00  0.23605152050E+04  0.23605152050E+04  0.00000000000E+00 0.  1.
         -1   -1    0    0    0  501 -0.00000000000E+00 -0.00000000000E+00 -0.16707994283E+04  0.16707994283E+04  0.00000000000E+00 0. -1.
         23    2    1    2    0    0 -0.12513048598E+04 -0.14184670959E+04  0.95689156781E+03  0.21210278335E+04  0.72834358030E+02 0.  0.
         13    1    3    3    0    0 -0.82412819638E+03 -0.88867527523E+03  0.59290067040E+03  0.13492450607E+04  0.00000000000E+00 0. -1.
        -13    1    3    3    0    0 -0.42717666344E+03 -0.52979182065E+03  0.36399089741E+03  0.77178277282E+03  0.00000000000E+00 0.  1.
         22    1    1    2    0    0  0.12513048598E+04  0.14184670959E+04 -0.26717579108E+03  0.19102867998E+04  0.00000000000E+00 0. -1.
<mgrwt>
<rscale>  0 0.39718748E+04</rscale>
<asrwt>0</asrwt>
<pdfrwt beam="1">  1        1 0.36315619E+00 0.39718748E+04</pdfrwt>
<pdfrwt beam="2">  1       -1 0.25704606E+00 0.39718748E+04</pdfrwt>
<totfact> 0.83215080E-02</totfact>
</mgrwt>
</event>
<event>
 6    1  0.2325157E-005  0.1309316E+04  0.7818608E-02  0.9022210E-01
         -2   -1    0    0    0  501 -0.00000000000E+00  0.00000000000E+00  0.34103392888E+03  0.34103392888E+03  0.00000000000E+00 0. -1.
          2   -1    0    0  501    0  0.00000000000E+00 -0.00000000000E+00 -0.12566994761E+04  0.12566994761E+04  0.00000000000E+00 0.  1.
         23    2    1    2    0    0  0.44342907029E+03 -0.44815483984E+03 -0.66055333585E+03  0.91761992824E+03  0.90683638862E+02 0.  0.
         13    1    3    3    0    0  0.70035093642E+02 -0.82965527849E+02 -0.69714755674E+02  0.12902844768E+03  0.00000000000E+00 0. -1.
        -13    1    3    3    0    0  0.37339397665E+03 -0.36518931199E+03 -0.59083858017E+03  0.78859148056E+03  0.00000000000E+00 0.  1.
         22    1    1    2    0    0 -0.44342907029E+03  0.44815483984E+03 -0.25511221139E+03  0.68011347675E+03  0.00000000000E+00 0.  1.
<mgrwt>
<rscale>  0 0.13093161E+04</rscale>
<asrwt>0</asrwt>
<pdfrwt beam="1">  1        2 0.19333838E+00 0.13093161E+04</pdfrwt>
<pdfrwt beam="2">  1       -2 0.52466759E-01 0.13093161E+04</pdfrwt>
<totfact> 0.58844598E+01</totfact>
</mgrwt>
</event>
<event>
 6    1  0.2325157E-005  0.1535091E+04  0.7818608E-02  0.8861447E-01
          2   -1    0    0  501    0  0.00000000000E+00  0.00000000000E+00  0.26542269091E+04  0.26542269091E+04  0.00000000000E+00 0.  1.
         -2   -1    0    0    0  501 -0.00000000000E+00 -0.00000000000E+00 -0.22195771208E+03  0.22195771208E+03  0.00000000000E+00 0. -1.
         23    2    1    2    0    0 -0.75122353284E+02 -0.74989079150E+03  0.97691133657E+03  0.12372684949E+04  0.92184606716E+02 0.  0.
         11    1    3    3    0    0 -0.77538284099E+02 -0.38866048753E+03  0.55234431495E+03  0.67981865400E+03  0.00000000000E+00 0.  1.
        -11    1    3    3    0    0  0.24159308154E+01 -0.36123030397E+03  0.42456702162E+03  0.55744984086E+03  0.00000000000E+00 0. -1.
         22    1    1    2    0    0  0.75122353284E+02  0.74989079150E+03  0.14553578605E+04  0.16389161264E+04  0.00000000000E+00 0.  1.
<mgrwt>
<rscale>  0 0.15350910E+04</rscale>
<asrwt>0</asrwt>
<pdfrwt beam="1">  1        2 0.40834258E+00 0.15350910E+04</pdfrwt>
<pdfrwt beam="2">  1       -2 0.34147342E-01 0.15350910E+04</pdfrwt>
<totfact> 0.21958080E+01</totfact>
</mgrwt>
</event>
<event>
 6    1  0.2325157E-005  0.3913469E+04  0.7818608E-02  0.8022234E-01
         -2   -1    0    0    0  501 -0.00000000000E+00  0.00000000000E+00  0.10442510511E+04  0.10442510511E+04  0.00000000000E+00 0. -1.
          2   -1    0    0  501    0  0.00000000000E+00 -0.00000000000E+00 -0.36665604949E+04  0.36665604949E+04  0.00000000000E+00 0.  1.
         23    2    1    2    0    0  0.50776247381E+03  0.14671591224E+04  0.12134869251E+03  0.15583460680E+04  0.57778388793E+02 0.  0.
         13    1    3    3    0    0  0.85145243557E+02  0.22066239412E+03  0.37634811843E+02  0.23949526872E+03  0.00000000000E+00 0. -1.
        -13    1    3    3    0    0  0.42261723025E+03  0.12464967283E+04  0.83713880668E+02  0.13188507993E+04  0.00000000000E+00 0.  1.
         22    1    1    2    0    0 -0.50776247381E+03 -0.14671591224E+04 -0.27436581363E+04  0.31524654779E+04  0.00000000000E+00 0.  1.
<mgrwt>
<rscale>  0 0.39134689E+04</rscale>
<asrwt>0</asrwt>
<pdfrwt beam="1">  1        2 0.56408623E+00 0.39134689E+04</pdfrwt>
<pdfrwt beam="2">  1       -2 0.16065401E+00 0.39134689E+04</pdfrwt>
<totfact> 0.12195646E-01</totfact>
</mgrwt>
</event>
<event>
 6    1  0.2325157E-005  0.7705050E+03  0.7818608E-02  0.9603719E-01
          2   -1    0    0  501    0  0.00000000000E+00  0.00000000000E+00  0.12011912903E+03  0.12011912903E+03  0.00000000000E+00 0.  1.
         -2   -1    0    0    0  501 -0.00000000000E+00 -0.00000000000E+00 -0.12356023759E+04  0.12356023759E+04  0.00000000000E+00 0. -1.
         23    2    1    2    0    0  0.82343177041E+01  0.27203300586E+03 -0.99532502777E+02  0.30394887043E+03  0.91697527020E+02 0.  0.
         11    1    3    3    0    0 -0.26759697703E+02  0.98921669493E+02 -0.26571305878E+01  0.10251165036E+03  0.00000000000E+00 0. -1.
        -11    1    3    3    0    0  0.34994015407E+02  0.17311133636E+03 -0.96875372189E+02  0.20143722007E+03  0.00000000000E+00 0.  1.
         22    1    1    2    0    0 -0.82343177041E+01 -0.27203300586E+03 -0.10159507441E+04  0.10517726345E+04  0.00000000000E+00 0. -1.
<mgrwt>
<rscale>  0 0.77050498E+03</rscale>
<asrwt>0</asrwt>
<pdfrwt beam="1">  1        2 0.18479866E-01 0.77050498E+03</pdfrwt>
<pdfrwt beam="2">  1       -2 0.19009267E+00 0.77050498E+03</pdfrwt>
<totfact> 0.48982702E+01</totfact>
</mgrwt>
</event>
<event>
 6    1  0.2325157E-005  0.7951801E+03  0.7818608E-02  0.9567020E-01
         -2   -1    0    0    0  501 -0.00000000000E+00  0.00000000000E+00  0.83749324316E+03  0.83749324316E+03  0.00000000000E+00 0.  1.
          2   -1    0    0  501    0  0.00000000000E+00 -0.00000000000E+00 -0.18875119537E+03  0.18875119537E+03  0.00000000000E+00 0. -1.
         23    2    1    2    0    0 -0.36272598562E+03  0.11209195204E+03  0.19886888266E+03  0.43758442539E+03  0.88298077525E+02 0.  0.
         11    1    3    3    0    0 -0.64572135100E+02  0.12340821449E+01  0.67525761989E+02  0.93438814859E+02  0.00000000000E+00 0.  1.
        -11    1    3    3    0    0 -0.29815385053E+03  0.11085786990E+03  0.13134312067E+03  0.34414561053E+03  0.00000000000E+00 0. -1.
         22    1    1    2    0    0  0.36272598562E+03 -0.11209195204E+03  0.44987316513E+03  0.58866001314E+03  0.00000000000E+00 0. -1.
<mgrwt>
<rscale>  0 0.79518011E+03</rscale>
<asrwt>0</asrwt>
<pdfrwt beam="1">  1        2 0.29038646E-01 0.79518011E+03</pdfrwt>
<pdfrwt beam="2">  1       -2 0.12884511E+00 0.79518011E+03</pdfrwt>
<totfact> 0.82663371E+01</totfact>
</mgrwt>
</event>
<event>
 6    1  0.2325157E-005  0.1833572E+04  0.7818608E-02  0.8688647E-01
         -2   -1    0    0    0  501 -0.00000000000E+00  0.00000000000E+00  0.66075728163E+03  0.66075728163E+03  0.00000000000E+00 0. -1.
          2   -1    0    0  501    0  0.00000000000E+00 -0.00000000000E+00 -0.12720200667E+04  0.12720200667E+04  0.00000000000E+00 0.  1.
         23    2    1    2    0    0  0.19036461243E+03 -0.37408025901E+03  0.55007672576E+03  0.69791533771E+03  0.91250690652E+02 0.  0.
         13    1    3    3    0    0  0.26686337705E+02 -0.14706827718E+03  0.18142874241E+03  0.23506940963E+03  0.00000000000E+00 0.  1.
        -13    1    3    3    0    0  0.16367827472E+03 -0.22701198183E+03  0.36864798335E+03  0.46284592808E+03  0.00000000000E+00 0. -1.
         22    1    1    2    0    0 -0.19036461243E+03  0.37408025901E+03 -0.11613395109E+04  0.12348620106E+04  0.00000000000E+00 0.  1.
<mgrwt>
<rscale>  0 0.18335719E+04</rscale>
<asrwt>0</asrwt>
<pdfrwt beam="1">  1        2 0.19569539E+00 0.18335719E+04</pdfrwt>
<pdfrwt beam="2">  1       -2 0.10165497E+00 0.18335719E+04</pdfrwt>
<totfact> 0.12841586E+01</totfact>
</mgrwt>
</event>
<event>
 6    1  0.2325157E-005  0.2757211E+04  0.7818608E-02  0.8316677E-01
          2   -1    0    0  501    0  0.00000000000E+00  0.00000000000E+00  0.25442401461E+04  0.25442401461E+04  0.00000000000E+00 0. -1.
         -2   -1    0    0    0  501 -0.00000000000E+00 -0.00000000000E+00 -0.74700224388E+03  0.74700224388E+03  0.00000000000E+00 0.  1.
         23    2    1    2    0    0  0.11792854387E+04  0.70173870543E+03  0.76385070956E+03  0.15733831273E+04  0.94420347727E+02 0.  0.
         11    1    3    3    0    0  0.10707914190E+04  0.63840047139E+03  0.72372385808E+03  0.14415011785E+04  0.00000000000E+00 0. -1.
        -11    1    3    3    0    0  0.10849401968E+03  0.63338234039E+02  0.40126851484E+02  0.13188194876E+03  0.00000000000E+00 0.  1.
         22    1    1    2    0    0 -0.11792854387E+04 -0.70173870543E+03  0.10333871926E+04  0.17178592627E+04  0.00000000000E+00 0.  1.
<mgrwt>
<rscale>  0 0.27572110E+04</rscale>
<asrwt>0</asrwt>
<pdfrwt beam="1">  1        2 0.39142156E+00 0.27572110E+04</pdfrwt>
<pdfrwt beam="2">  1       -2 0.11492342E+00 0.27572110E+04</pdfrwt>
<totfact> 0.16915635E+00</totfact>
</mgrwt>
</event>
<event>
 6    1  0.2325157E-005  0.1359719E+04  0.7818608E-02  0.8983503E-01
         -2   -1    0    0    0  501 -0.00000000000E+00  0.00000000000E+00  0.13049533984E+03  0.13049533984E+03  0.00000000000E+00 0. -1.
          2   -1    0    0  501    0  0.00000000000E+00 -0.00000000000E+00 -0.35419578124E+04  0.35419578124E+04  0.00000000000E+00 0.  1.
         23    2    1    2    0    0 -0.40477323110E+03 -0.90511751932E+02 -0.31579283697E+04  0.31863325014E+04  0.90385151439E+02 0.  0.
         13    1    3    3    0    0 -0.37823969502E+03 -0.76014936413E+02 -0.27021999415E+04  0.27296021800E+04  0.00000000000E+00 0. -1.
        -13    1    3    3    0    0 -0.26533536080E+02 -0.14496815520E+02 -0.45572842820E+03  0.45673032138E+03  0.00000000000E+00 0.  1.
         22    1    1    2    0    0  0.40477323110E+03  0.90511751932E+02 -0.25353410289E+03  0.48612065085E+03  0.00000000000E+00 0. -1.
<mgrwt>
<rscale>  0 0.13597191E+04</rscale>
<asrwt>0</asrwt>
<pdfrwt beam="1">  1        2 0.54491658E+00 0.13597191E+04</pdfrwt>
<pdfrwt beam="2">  1       -2 0.20076207E-01 0.13597191E+04</pdfrwt>
<totfact> 0.16050087E+01</totfact>
</mgrwt>
</event>
<event>
 6    1  0.2325157E-005  0.1313635E+04  0.7818608E-02  0.9018822E-01
          2   -1    0    0  501    0  0.00000000000E+00  0.00000000000E+00  0.49937642036E+03  0.49937642036E+03  0.00000000000E+00 0.  1.
         -2   -1    0    0    0  501 -0.00000000000E+00 -0.00000000000E+00 -0.86389535500E+03  0.86389535500E+03  0.00000000000E+00 0. -1.
         23    2    1    2    0    0  0.78588303589E+02 -0.59258686266E+03 -0.45761368246E+03  0.75829083076E+03  0.90881188291E+02 0.  0.
         13    1    3    3    0    0  0.53986754603E+02 -0.20680140229E+03 -0.20734158783E+03  0.29777831302E+03  0.00000000000E+00 0.  1.
        -13    1    3    3    0    0  0.24601548986E+02 -0.38578546037E+03 -0.25027209463E+03  0.46051251774E+03  0.00000000000E+00 0. -1.
         22    1    1    2    0    0 -0.78588303589E+02  0.59258686266E+03  0.93094747821E+02  0.60498094460E+03  0.00000000000E+00 0.  1.
<mgrwt>
<rscale>  0 0.13136346E+04</rscale>
<asrwt>0</asrwt>
<pdfrwt beam="1">  1        2 0.76827143E-01 0.13136346E+04</pdfrwt>
<pdfrwt beam="2">  1       -2 0.13290698E+00 0.13136346E+04</pdfrwt>
<totfact> 0.24779474E+01</totfact>
</mgrwt>
</event>
<event>
 6    1  0.2325157E-005  0.4263014E+04  0.7818608E-02  0.7953493E-01
         -2   -1    0    0    0  501 -0.00000000000E+00  0.00000000000E+00  0.13025971133E+04  0.13025971133E+04  0.00000000000E+00 0. -1.
          2   -1    0    0  501    0  0.00000000000E+00 -0.00000000000E+00 -0.34878946711E+04  0.34878946711E+04  0.00000000000E+00 0.  1.
         23    2    1    2    0    0  0.74988782440E+03  0.19782141321E+04 -0.80959029068E+03  0.22669558948E+04  0.89385057046E+02 0.  0.
         11    1    3    3    0    0  0.59859049377E+03  0.15650576538E+04 -0.67929425115E+03  0.18080809491E+04  0.00000000000E+00 0.  1.
        -11    1    3    3    0    0  0.15129733063E+03  0.41315647831E+03 -0.13029603953E+03  0.45887494565E+03  0.00000000000E+00 0. -1.
         22    1    1    2    0    0 -0.74988782440E+03 -0.19782141321E+04 -0.13757072671E+04  0.25235358897E+04  0.00000000000E+00 0.  1.
<mgrwt>
<rscale>  0 0.42630137E+04</rscale>
<asrwt>0</asrwt>
<pdfrwt beam="1">  1        2 0.53659917E+00 0.42630137E+04</pdfrwt>
<pdfrwt beam="2">  1       -2 0.20039956E+00 0.42630137E+04</pdfrwt>
<totfact> 0.84486109E-02</totfact>
</mgrwt>
</event>
<event>
 6    1  0.2325157E-005  0.1973416E+04  0.7818608E-02  0.8619152E-01
          2   -1    0    0  501    0  0.00000000000E+00  0.00000000000E+00  0.33090884521E+04  0.33090884521E+04  0.00000000000E+00 0.  1.
         -2   -1    0    0    0  501 -0.00000000000E+00 -0.00000000000E+00 -0.29421769987E+03  0.29421769987E+03  0.00000000000E+00 0. -1.
         23    2    1    2    0    0 -0.76602219815E+01  0.24352771752E+03  0.32525276574E+04  0.32629457065E+04  0.92271843728E+02 0.  0.
         11    1    3    3    0    0 -0.36029609229E+02  0.19804796373E+03  0.22502624041E+04  0.22592481085E+04  0.00000000000E+00 0. -1.
        -11    1    3    3    0    0  0.28369387247E+02  0.45479753786E+02  0.10022652533E+04  0.10036975980E+04  0.00000000000E+00 0.  1.
         22    1    1    2    0    0  0.76602219815E+01 -0.24352771752E+03 -0.23765690523E+03  0.34036044541E+03  0.00000000000E+00 0. -1.
<mgrwt>
<rscale>  0 0.19734157E+04</rscale>
<asrwt>0</asrwt>
<pdfrwt beam="1">  1        2 0.50909051E+00 0.19734157E+04</pdfrwt>
<pdfrwt beam="2">  1       -2 0.45264264E-01 0.19734157E+04</pdfrwt>
<totfact> 0.47546446E+00</totfact>
</mgrwt>
</event>
<event>
 6    1  0.2325157E-005  0.4757125E+04  0.7818608E-02  0.7867106E-01
          2   -1    0    0  501    0  0.00000000000E+00  0.00000000000E+00  0.17559378358E+04  0.17559378358E+04  0.00000000000E+00 0. -1.
         -2   -1    0    0    0  501 -0.00000000000E+00 -0.00000000000E+00 -0.32219587959E+04  0.32219587959E+04  0.00000000000E+00 0.  1.
         23    2    1    2    0    0  0.76182512742E+03  0.13985083154E+04  0.11142353374E+04  0.19457479555E+04  0.90618353756E+02 0.  0.
         11    1    3    3    0    0  0.41087343661E+03  0.83703672552E+03  0.67665998131E+03  0.11520920931E+04  0.00000000000E+00 0. -1.
        -11    1    3    3    0    0  0.35095169080E+03  0.56147158989E+03  0.43757535613E+03  0.79365586234E+03  0.00000000000E+00 0.  1.
         22    1    1    2    0    0 -0.76182512742E+03 -0.13985083154E+04 -0.25802562976E+04  0.30321486761E+04  0.00000000000E+00 0.  1.
<mgrwt>
<rscale>  0 0.47571249E+04</rscale>
<asrwt>0</asrwt>
<pdfrwt beam="1">  1        2 0.27014428E+00 0.47571249E+04</pdfrwt>
<pdfrwt beam="2">  1       -2 0.49568597E+00 0.47571249E+04</pdfrwt>
<totfact> 0.11950955E-02</totfact>
</mgrwt>
</event>
<event>
 6    1  0.2325157E-005  0.2932643E+04  0.7818608E-02  0.8263231E-01
         -1   -1    0    0    0  501 -0.00000000000E+00  0.00000000000E+00  0.72932275126E+03  0.72932275126E+03  0.00000000000E+00 0. -1.
          1   -1    0    0  501    0  0.00000000000E+00 -0.00000000000E+00 -0.29480756860E+04  0.29480756860E+04  0.00000000000E+00 0.  1.
         23    2    1    2    0    0 -0.12104892970E+04 -0.76396734008E+03 -0.15009473064E+04  0.20760941704E+04  0.91617427411E+02 0.  0.
         11    1    3    3    0    0 -0.89100163532E+03 -0.55508760341E+03 -0.11573144158E+04  0.15624925020E+04  0.00000000000E+00 0.  1.
        -11    1    3    3    0    0 -0.31948766169E+03 -0.20887973667E+03 -0.34363289051E+03  0.51360166843E+03  0.00000000000E+00 0. -1.
         22    1    1    2    0    0  0.12104892970E+04  0.76396734008E+03 -0.71780562838E+03  0.16013042669E+04  0.00000000000E+00 0. -1.
<mgrwt>
<rscale>  0 0.29326430E+04</rscale>
<asrwt>0</asrwt>
<pdfrwt beam="1">  1        1 0.45355010E+00 0.29326430E+04</pdfrwt>
<pdfrwt beam="2">  1       -1 0.11220350E+00 0.29326430E+04</pdfrwt>
<totfact> 0.40610192E-01</totfact>
</mgrwt>
</event>
<event>
 6    1  0.2325157E-005  0.1976942E+04  0.7818608E-02  0.8617478E-01
         -2   -1    0    0    0  501 -0.00000000000E+00  0.00000000000E+00  0.33509268932E+03  0.33509268932E+03  0.00000000000E+00 0. -1.
          2   -1    0    0  501    0  0.00000000000E+00 -0.00000000000E+00 -0.29158335942E+04  0.29158335942E+04  0.00000000000E+00 0.  1.
         23    2    1    2    0    0 -0.78048402626E+03 -0.20592642738E+03 -0.36072696750E+03  0.88871907607E+03  0.90203338899E+02 0.  0.
         13    1    3    3    0    0 -0.36668219945E+03 -0.70294170953E+02 -0.12615991888E+03  0.39409825043E+03  0.00000000000E+00 0. -1.
        -13    1    3    3    0    0 -0.41380182681E+03 -0.13563225643E+03 -0.23456704862E+03  0.49462082564E+03  0.00000000000E+00 0.  1.
         22    1    1    2    0    0  0.78048402626E+03  0.20592642738E+03 -0.22200139373E+04  0.23622072074E+04  0.00000000000E+00 0.  1.
<mgrwt>
<rscale>  0 0.19769416E+04</rscale>
<asrwt>0</asrwt>
<pdfrwt beam="1">  1        2 0.44858977E+00 0.19769416E+04</pdfrwt>
<pdfrwt beam="2">  1       -2 0.51552723E-01 0.19769416E+04</pdfrwt>
<totfact> 0.65127751E+00</totfact>
</mgrwt>
</event>
<event>
 6    1  0.2325157E-005  0.2664206E+04  0.7818608E-02  0.8346713E-01
         -2   -1    0    0    0  501 -0.00000000000E+00  0.00000000000E+00  0.10930320841E+04  0.10930320841E+04  0.00000000000E+00 0. -1.
          2   -1    0    0  501    0  0.00000000000E+00 -0.00000000000E+00 -0.16234646862E+04  0.16234646862E+04  0.00000000000E+00 0.  1.
         23    2    1    2    0    0  0.15394658680E+03 -0.97207639636E+03 -0.11784414435E+04  0.15381303033E+04  0.92133176180E+02 0.  0.
         11    1    3    3    0    0  0.52062149346E+02 -0.50256889760E+03 -0.66181056651E+03  0.83263388723E+03  0.00000000000E+00 0.  1.
        -11    1    3    3    0    0  0.10188443746E+03 -0.46950749877E+03 -0.51663087700E+03  0.70549641605E+03  0.00000000000E+00 0. -1.
         22    1    1    2    0    0 -0.15394658680E+03  0.97207639636E+03  0.64800884149E+03  0.11783664670E+04  0.00000000000E+00 0. -1.
<mgrwt>
<rscale>  0 0.26642064E+04</rscale>
<asrwt>0</asrwt>
<pdfrwt beam="1">  1        2 0.24976380E+00 0.26642064E+04</pdfrwt>
<pdfrwt beam="2">  1       -2 0.16815878E+00 0.26642064E+04</pdfrwt>
<totfact> 0.20918180E+00</totfact>
</mgrwt>
</event>
<event>
 6    1  0.2325157E-005  0.1688501E+04  0.7818608E-02  0.8767950E-01
          2   -1    0    0  501    0  0.00000000000E+00  0.00000000000E+00  0.98431069438E+03  0.98431069438E+03  0.00000000000E+00 0.  1.
         -2   -1    0    0    0  501 -0.00000000000E+00 -0.00000000000E+00 -0.72412020427E+03  0.72412020427E+03  0.00000000000E+00 0. -1.
         23    2    1    2    0    0  0.82948304531E+03 -0.10264023094E+03  0.22947306025E+03  0.87205735772E+03  0.96171775076E+02 0.  0.
         11    1    3    3    0    0  0.32977708686E+03 -0.63975200780E+02  0.49647171911E+02  0.33957413772E+03  0.00000000000E+00 0. -1.
        -11    1    3    3    0    0  0.49970595845E+03 -0.38665030164E+02  0.17982588834E+03  0.53248322000E+03  0.00000000000E+00 0.  1.
         22    1    1    2    0    0 -0.82948304531E+03  0.10264023094E+03  0.30717429866E+02  0.83637354092E+03  0.00000000000E+00 0.  1.
<mgrwt>
<rscale>  0 0.16885014E+04</rscale>
<asrwt>0</asrwt>
<pdfrwt beam="1">  1        2 0.15143241E+00 0.16885014E+04</pdfrwt>
<pdfrwt beam="2">  1       -2 0.11140311E+00 0.16885014E+04</pdfrwt>
<totfact> 0.15646945E+01</totfact>
</mgrwt>
</event>
<event>
 6    1  0.2325157E-005  0.2073789E+04  0.7818608E-02  0.8572878E-01
         -2   -1    0    0    0  501 -0.00000000000E+00  0.00000000000E+00  0.99064714886E+03  0.99064714886E+03  0.00000000000E+00 0. -1.
          2   -1    0    0  501    0  0.00000000000E+00 -0.00000000000E+00 -0.10853009064E+04  0.10853009064E+04  0.00000000000E+00 0.  1.
         23    2    1    2    0    0 -0.13991125542E+03 -0.10073016043E+04 -0.23814764800E+03  0.10489026921E+04  0.96181463372E+02 0.  0.
         13    1    3    3    0    0 -0.82391314694E+02 -0.44010809030E+03 -0.60865642079E+02  0.45187175865E+03  0.00000000000E+00 0.  1.
        -13    1    3    3    0    0 -0.57519940730E+02 -0.56719351397E+03 -0.17728200593E+03  0.59703093345E+03  0.00000000000E+00 0. -1.
         22    1    1    2    0    0  0.13991125542E+03  0.10073016043E+04  0.14349389047E+03  0.10270453631E+04  0.00000000000E+00 0. -1.
<mgrwt>
<rscale>  0 0.20737890E+04</rscale>
<asrwt>0</asrwt>
<pdfrwt beam="1">  1        2 0.16696937E+00 0.20737890E+04</pdfrwt>
<pdfrwt beam="2">  1       -2 0.15240725E+00 0.20737890E+04</pdfrwt>
<totfact> 0.59006144E+00</totfact>
</mgrwt>
</event>
<event>
 6    1  0.2325157E-005  0.1327971E+04  0.7818608E-02  0.9007674E-01
         -2   -1    0    0    0  501 -0.00000000000E+00  0.00000000000E+00  0.41487335389E+03  0.41487335389E+03  0.00000000000E+00 0.  1.
          2   -1    0    0  501    0  0.00000000000E+00 -0.00000000000E+00 -0.10626771552E+04  0.10626771552E+04  0.00000000000E+00 0. -1.
         23    2    1    2    0    0  0.65832254153E+03 -0.45322622384E+02 -0.30958100024E+03  0.73604031228E+03  0.10233394743E+03 0.  0.
         11    1    3    3    0    0  0.11170130655E+03 -0.13650622809E+02 -0.97393112172E+02  0.14882519842E+03  0.00000000000E+00 0. -1.
        -11    1    3    3    0    0  0.54662123499E+03 -0.31671999575E+02 -0.21218788807E+03  0.58721511385E+03  0.00000000000E+00 0.  1.
         22    1    1    2    0    0 -0.65832254153E+03  0.45322622384E+02 -0.33822280107E+03  0.74151019680E+03  0.00000000000E+00 0. -1.
<mgrwt>
<rscale>  0 0.13279705E+04</rscale>
<asrwt>0</asrwt>
<pdfrwt beam="1">  1        2 0.16348879E+00 0.13279705E+04</pdfrwt>
<pdfrwt beam="2">  1       -2 0.63826670E-01 0.13279705E+04</pdfrwt>
<totfact> 0.51051346E+01</totfact>
</mgrwt>
</event>
<event>
 6    1  0.2325157E-005  0.2992473E+04  0.7818608E-02  0.8245884E-01
         -2   -1    0    0    0  501 -0.00000000000E+00  0.00000000000E+00  0.19303060056E+04  0.19303060056E+04  0.00000000000E+00 0. -1.
          2   -1    0    0  501    0  0.00000000000E+00 -0.00000000000E+00 -0.11597763405E+04  0.11597763405E+04  0.00000000000E+00 0.  1.
         23    2    1    2    0    0  0.11118910790E+04  0.72901838843E+03  0.10910870679E+04  0.17224103714E+04  0.91961490018E+02 0.  0.
         11    1    3    3    0    0  0.85509218039E+03  0.52780762243E+03  0.78619435485E+03  0.12758781630E+04  0.00000000000E+00 0. -1.
        -11    1    3    3    0    0  0.25679889857E+03  0.20121076600E+03  0.30489271301E+03  0.44653220836E+03  0.00000000000E+00 0.  1.
         22    1    1    2    0    0 -0.11118910790E+04 -0.72901838843E+03 -0.32055740274E+03  0.13676719748E+04  0.00000000000E+00 0.  1.
<mgrwt>
<rscale>  0 0.29924727E+04</rscale>
<asrwt>0</asrwt>
<pdfrwt beam="1">  1        2 0.17842713E+00 0.29924727E+04</pdfrwt>
<pdfrwt beam="2">  1       -2 0.29697015E+00 0.29924727E+04</pdfrwt>
<totfact> 0.56896618E-01</totfact>
</mgrwt>
</event>
<event>
 6    1  0.2325157E-005  0.2780537E+04  0.7818608E-02  0.8309336E-01
          2   -1    0    0  501    0  0.00000000000E+00  0.00000000000E+00  0.31079933018E+04  0.31079933018E+04  0.00000000000E+00 0.  1.
         -2   -1    0    0    0  501 -0.00000000000E+00 -0.00000000000E+00 -0.62189524537E+03  0.62189524537E+03  0.00000000000E+00 0. -1.
         23    2    1    2    0    0 -0.32778759267E+03  0.96493314917E+03 -0.21330961182E+02  0.10232779423E+04  0.90011382299E+02 0.  0.
         13    1    3    3    0    0 -0.21639708870E+03  0.69169597063E+03  0.21734428480E+02  0.72508165138E+03  0.00000000000E+00 0.  1.
        -13    1    3    3    0    0 -0.11139050397E+03  0.27323717854E+03 -0.43065389662E+02  0.29819629088E+03  0.00000000000E+00 0. -1.
         22    1    1    2    0    0  0.32778759267E+03 -0.96493314917E+03  0.25074290177E+04  0.27066106050E+04  0.00000000000E+00 0.  1.
<mgrwt>
<rscale>  0 0.27805368E+04</rscale>
<asrwt>0</asrwt>
<pdfrwt beam="1">  1        2 0.47815281E+00 0.27805368E+04</pdfrwt>
<pdfrwt beam="2">  1       -2 0.95676193E-01 0.27805368E+04</pdfrwt>
<totfact> 0.11877138E+00</totfact>
</mgrwt>
</event>
<event>
 6    1  0.2325157E-005  0.2378097E+04  0.7818608E-02  0.8447750E-01
         -2   -1    0    0    0  501 -0.00000000000E+00  0.00000000000E+00  0.84537008727E+03  0.84537008727E+03  0.00000000000E+00 0. -1.
          2   -1    0    0  501    0  0.00000000000E+00 -0.00000000000E+00 -0.16724459707E+04  0.16724459707E+04  0.00000000000E+00 0.  1.
         23    2    1    2    0    0 -0.60620569594E+03 -0.79426962631E+02  0.66346142703E+03  0.90676191175E+03  0.90786074096E+02 0.  0.
         11    1    3    3    0    0 -0.31941960884E+03 -0.94722313911E+01  0.29773282756E+03  0.43676474936E+03  0.00000000000E+00 0. -1.
        -11    1    3    3    0    0 -0.28678608711E+03 -0.69954731240E+02  0.36572859947E+03  0.46999716239E+03  0.00000000000E+00 0.  1.
         22    1    1    2    0    0  0.60620569594E+03  0.79426962631E+02 -0.14905373105E+04  0.16110541462E+04  0.00000000000E+00 0.  1.
<mgrwt>
<rscale>  0 0.23780965E+04</rscale>
<asrwt>0</asrwt>
<pdfrwt beam="1">  1        2 0.25729938E+00 0.23780965E+04</pdfrwt>
<pdfrwt beam="2">  1       -2 0.13005694E+00 0.23780965E+04</pdfrwt>
<totfact> 0.39710288E+00</totfact>
</mgrwt>
</event>
<event>
 6    1  0.2325157E-005  0.1347307E+04  0.7818608E-02  0.8992869E-01
          2   -1    0    0  501    0  0.00000000000E+00  0.00000000000E+00  0.12486101227E+04  0.12486101227E+04  0.00000000000E+00 0.  1.
         -2   -1    0    0    0  501 -0.00000000000E+00 -0.00000000000E+00 -0.36345152137E+03  0.36345152137E+03  0.00000000000E+00 0. -1.
         23    2    1    2    0    0  0.39927079024E+03 -0.51537500771E+03  0.63355904105E+03  0.91325487444E+03  0.87228691762E+02 0.  0.
         13    1    3    3    0    0  0.33753591690E+02 -0.90069768356E+02  0.10895449674E+03  0.14533736781E+03  0.00000000000E+00 0.  1.
        -13    1    3    3    0    0  0.36551719855E+03 -0.42530523936E+03  0.52460454432E+03  0.76791750662E+03  0.00000000000E+00 0. -1.
         22    1    1    2    0    0 -0.39927079024E+03  0.51537500771E+03  0.25159956023E+03  0.69880676959E+03  0.00000000000E+00 0.  1.
<mgrwt>
<rscale>  0 0.13473073E+04</rscale>
<asrwt>0</asrwt>
<pdfrwt beam="1">  1        2 0.19209386E+00 0.13473073E+04</pdfrwt>
<pdfrwt beam="2">  1       -2 0.55915619E-01 0.13473073E+04</pdfrwt>
<totfact> 0.51998190E+01</totfact>
</mgrwt>
</event>
<event>
 6    1  0.2325157E-005  0.6848718E+03  0.7818608E-02  0.9743459E-01
         -2   -1    0    0    0  501 -0.00000000000E+00  0.00000000000E+00  0.10884738176E+04  0.10884738176E+04  0.00000000000E+00 0. -1.
          2   -1    0    0  501    0  0.00000000000E+00 -0.00000000000E+00 -0.10773097493E+03  0.10773097493E+03  0.00000000000E+00 0.  1.
         23    2    1    2    0    0 -0.23406229940E+03  0.18629503865E+03  0.23145279349E+03  0.38940458229E+03  0.92598767112E+02 0.  0.
         11    1    3    3    0    0 -0.74340010322E+02  0.72168516380E+02  0.29413642702E+02  0.10770280529E+03  0.00000000000E+00 0.  1.
        -11    1    3    3    0    0 -0.15972228908E+03  0.11412652227E+03  0.20203915079E+03  0.28170177700E+03  0.00000000000E+00 0. -1.
         22    1    1    2    0    0  0.23406229940E+03 -0.18629503865E+03  0.74929004915E+03  0.80680021020E+03  0.00000000000E+00 0. -1.
<mgrwt>
<rscale>  0 0.68487180E+03</rscale>
<asrwt>0</asrwt>
<pdfrwt beam="1">  1        2 0.16573997E-01 0.68487180E+03</pdfrwt>
<pdfrwt beam="2">  1       -2 0.16745750E+00 0.68487180E+03</pdfrwt>
<totfact> 0.80235066E+01</totfact>
</mgrwt>
</event>
<event>
 6    1  0.2325157E-005  0.6364739E+03  0.7818608E-02  0.9832496E-01
         -2   -1    0    0    0  501 -0.00000000000E+00  0.00000000000E+00  0.41670625081E+02  0.41670625081E+02  0.00000000000E+00 0. -1.
          2   -1    0    0  501    0  0.00000000000E+00 -0.00000000000E+00 -0.24303632491E+04  0.24303632491E+04  0.00000000000E+00 0.  1.
         23    2    1    2    0    0 -0.32558717759E+02  0.52521874110E+02 -0.24054852700E+04  0.24079978662E+04  0.90970995842E+02 0.  0.
         11    1    3    3    0    0 -0.51839684426E+02  0.40787389934E+02 -0.92846498642E+03  0.93080513270E+03  0.00000000000E+00 0.  1.
        -11    1    3    3    0    0  0.19280966667E+02  0.11734484175E+02 -0.14770202836E+04  0.14771927335E+04  0.00000000000E+00 0. -1.
         22    1    1    2    0    0  0.32558717759E+02 -0.52521874110E+02  0.16792645961E+02  0.64036007999E+02  0.00000000000E+00 0. -1.
<mgrwt>
<rscale>  0 0.63647390E+03</rscale>
<asrwt>0</asrwt>
<pdfrwt beam="1">  1        2 0.37390215E+00 0.63647390E+03</pdfrwt>
<pdfrwt beam="2">  1       -2 0.64108635E-02 0.63647390E+03</pdfrwt>
<totfact> 0.55861330E+02</totfact>
</mgrwt>
</event>
<event>
 6    1  0.2325157E-005  0.6189738E+04  0.7818608E-02  0.7667312E-01
          2   -1    0    0  501    0  0.00000000000E+00  0.00000000000E+00  0.18429209650E+04  0.18429209650E+04  0.00000000000E+00 0.  1.
         -2   -1    0    0    0  501 -0.00000000000E+00 -0.00000000000E+00 -0.51973006938E+04  0.51973006938E+04  0.00000000000E+00 0. -1.
         23    2    1    2    0    0  0.32476895313E+03 -0.91962346444E+03  0.16615164434E+04  0.19303883346E+04  0.12074784223E+03 0.  0.
         11    1    3    3    0    0  0.31903548034E+02 -0.47617966396E+02  0.56651873830E+02  0.80589961591E+02  0.00000000000E+00 0. -1.
        -11    1    3    3    0    0  0.29286540509E+03 -0.87200549805E+03  0.16048645696E+04  0.18497983730E+04  0.00000000000E+00 0.  1.
         22    1    1    2    0    0 -0.32476895313E+03  0.91962346444E+03 -0.50158961723E+04  0.51098333242E+04  0.00000000000E+00 0. -1.
<mgrwt>
<rscale>  0 0.61897381E+04</rscale>
<asrwt>0</asrwt>
<pdfrwt beam="1">  1        2 0.28352630E+00 0.61897381E+04</pdfrwt>
<pdfrwt beam="2">  1       -2 0.79958472E+00 0.61897381E+04</pdfrwt>
<totfact> 0.42920457E-04</totfact>
</mgrwt>
</event>
<event>
 6    1  0.2325157E-005  0.1486026E+04  0.7818608E-02  0.8893799E-01
         -1   -1    0    0    0  501 -0.00000000000E+00  0.00000000000E+00  0.43611905759E+03  0.43611905759E+03  0.00000000000E+00 0. -1.
          1   -1    0    0  501    0  0.00000000000E+00 -0.00000000000E+00 -0.12658660281E+04  0.12658660281E+04  0.00000000000E+00 0.  1.
         23    2    1    2    0    0  0.27600381315E+03 -0.60112677194E+03 -0.79677986543E+03  0.10397024188E+04  0.92690155307E+02 0.  0.
         11    1    3    3    0    0  0.27724051518E+03 -0.60015424093E+03 -0.77838224012E+03  0.10212376452E+04  0.00000000000E+00 0. -1.
        -11    1    3    3    0    0 -0.12367020267E+01 -0.97253100960E+00 -0.18397625314E+02  0.18464773643E+02  0.00000000000E+00 0.  1.
         22    1    1    2    0    0 -0.27600381315E+03  0.60112677194E+03 -0.32967105060E+02  0.66228266687E+03  0.00000000000E+00 0. -1.
<mgrwt>
<rscale>  0 0.14860260E+04</rscale>
<asrwt>0</asrwt>
<pdfrwt beam="1">  1        1 0.19474862E+00 0.14860260E+04</pdfrwt>
<pdfrwt beam="2">  1       -1 0.67095240E-01 0.14860260E+04</pdfrwt>
<totfact> 0.20856712E+01</totfact>
</mgrwt>
</event>
<event>
 6    1  0.2325157E-005  0.2128618E+04  0.7818608E-02  0.8548741E-01
          2   -1    0    0  501    0  0.00000000000E+00  0.00000000000E+00  0.11320110263E+04  0.11320110263E+04  0.00000000000E+00 0.  1.
         -2   -1    0    0    0  501 -0.00000000000E+00 -0.00000000000E+00 -0.10006558056E+04  0.10006558056E+04  0.00000000000E+00 0. -1.
         23    2    1    2    0    0 -0.57977871126E+03  0.59564561017E+03  0.72869726303E+03  0.11090680030E+04  0.89972702649E+02 0.  0.
         11    1    3    3    0    0 -0.30230078500E+03  0.27226471415E+03  0.40396798260E+03  0.57332710571E+03  0.00000000000E+00 0.  1.
        -11    1    3    3    0    0 -0.27747792626E+03  0.32338089602E+03  0.32472928044E+03  0.53574089730E+03  0.00000000000E+00 0. -1.
         22    1    1    2    0    0  0.57977871126E+03 -0.59564561017E+03 -0.59734204232E+03  0.10235988289E+04  0.00000000000E+00 0. -1.
<mgrwt>
<rscale>  0 0.21286178E+04</rscale>
<asrwt>0</asrwt>
<pdfrwt beam="1">  1        2 0.17415554E+00 0.21286178E+04</pdfrwt>
<pdfrwt beam="2">  1       -2 0.15394705E+00 0.21286178E+04</pdfrwt>
<totfact> 0.53521841E+00</totfact>
</mgrwt>
</event>
<event>
 6    1  0.2325157E-005  0.1813974E+04  0.7818608E-02  0.8698904E-01
          2   -1    0    0  501    0  0.00000000000E+00  0.00000000000E+00  0.66459305861E+03  0.66459305861E+03  0.00000000000E+00 0.  1.
         -2   -1    0    0    0  501 -0.00000000000E+00 -0.00000000000E+00 -0.12377877028E+04  0.12377877028E+04  0.00000000000E+00 0. -1.
         23    2    1    2    0    0 -0.44557538453E+03 -0.78479156128E+03 -0.37191343742E+03  0.97774605396E+03  0.56855282500E+02 0.  0.
         13    1    3    3    0    0 -0.16165285684E+03 -0.28713417675E+03 -0.10641723824E+03  0.34626912969E+03  0.00000000000E+00 0.  1.
        -13    1    3    3    0    0 -0.28392252769E+03 -0.49765738453E+03 -0.26549619918E+03  0.63147692427E+03  0.00000000000E+00 0. -1.
         22    1    1    2    0    0  0.44557538453E+03  0.78479156128E+03 -0.20128120672E+03  0.92463470740E+03  0.00000000000E+00 0. -1.
<mgrwt>
<rscale>  0 0.18139737E+04</rscale>
<asrwt>0</asrwt>
<pdfrwt beam="1">  1        2 0.10224509E+00 0.18139737E+04</pdfrwt>
<pdfrwt beam="2">  1       -2 0.19042888E+00 0.18139737E+04</pdfrwt>
<totfact> 0.63458990E+00</totfact>
</mgrwt>
</event>
<event>
 6    1  0.2325157E-005  0.1696693E+04  0.7818608E-02  0.8763253E-01
         -2   -1    0    0    0  501 -0.00000000000E+00  0.00000000000E+00  0.21498829236E+03  0.21498829236E+03  0.00000000000E+00 0. -1.
          2   -1    0    0  501    0  0.00000000000E+00 -0.00000000000E+00 -0.33475846582E+04  0.33475846582E+04  0.00000000000E+00 0.  1.
         23    2    1    2    0    0  0.44904450465E+03 -0.71340526571E+03 -0.17165772916E+04  0.19146354339E+04  0.92753470663E+02 0.  0.
         11    1    3    3    0    0  0.38323502804E+03 -0.57494931357E+03 -0.14698760419E+04  0.16241832958E+04  0.00000000000E+00 0. -1.
        -11    1    3    3    0    0  0.65809476610E+02 -0.13845595214E+03 -0.24670124972E+03  0.29045213807E+03  0.00000000000E+00 0.  1.
         22    1    1    2    0    0 -0.44904450465E+03  0.71340526571E+03 -0.14160190742E+04  0.16479375167E+04  0.00000000000E+00 0. -1.
<mgrwt>
<rscale>  0 0.16966927E+04</rscale>
<asrwt>0</asrwt>
<pdfrwt beam="1">  1        2 0.51501297E+00 0.16966927E+04</pdfrwt>
<pdfrwt beam="2">  1       -2 0.33075125E-01 0.16966927E+04</pdfrwt>
<totfact> 0.84745405E+00</totfact>
</mgrwt>
</event>
<event>
 6    1  0.2325157E-005  0.1493773E+04  0.7818608E-02  0.8888605E-01
          2   -1    0    0  501    0  0.00000000000E+00  0.00000000000E+00  0.32697247883E+04  0.32697247883E+04  0.00000000000E+00 0.  1.
         -2   -1    0    0    0  501 -0.00000000000E+00 -0.00000000000E+00 -0.17060735023E+03  0.17060735023E+03  0.00000000000E+00 0. -1.
         23    2    1    2    0    0 -0.63489465998E+03  0.34187224547E+02  0.66729027590E+03  0.92676030900E+03  0.96686929992E+02 0.  0.
         13    1    3    3    0    0 -0.38266293447E+03 -0.25266619657E+02  0.41573920246E+03  0.56560446245E+03  0.00000000000E+00 0. -1.
        -13    1    3    3    0    0 -0.25223172551E+03  0.59453844204E+02  0.25155107344E+03  0.36115584655E+03  0.00000000000E+00 0.  1.
         22    1    1    2    0    0  0.63489465998E+03 -0.34187224547E+02  0.24318271622E+04  0.25135718296E+04  0.00000000000E+00 0.  1.
<mgrwt>
<rscale>  0 0.14937725E+04</rscale>
<asrwt>0</asrwt>
<pdfrwt beam="1">  1        2 0.50303454E+00 0.14937725E+04</pdfrwt>
<pdfrwt beam="2">  1       -2 0.26247287E-01 0.14937725E+04</pdfrwt>
<totfact> 0.14968116E+01</totfact>
</mgrwt>
</event>
<event>
 6    1  0.2325157E-005  0.3650382E+04  0.7818608E-02  0.8079048E-01
         -2   -1    0    0    0  501 -0.00000000000E+00  0.00000000000E+00  0.96135030572E+03  0.96135030572E+03  0.00000000000E+00 0. -1.
          2   -1    0    0  501    0  0.00000000000E+00 -0.00000000000E+00 -0.34652534109E+04  0.34652534109E+04  0.00000000000E+00 0.  1.
         23    2    1    2    0    0 -0.15274765033E+04 -0.54918461437E+03 -0.24351951689E+03  0.16437774240E+04  0.88962102529E+02 0.  0.
         13    1    3    3    0    0 -0.94184342876E+03 -0.37472130117E+03 -0.12507873624E+03  0.10213372548E+04  0.00000000000E+00 0. -1.
        -13    1    3    3    0    0 -0.58563307454E+03 -0.17446331320E+03 -0.11844078065E+03  0.62244016914E+03  0.00000000000E+00 0.  1.
         22    1    1    2    0    0  0.15274765033E+04  0.54918461437E+03 -0.22603835883E+04  0.27828262926E+04  0.00000000000E+00 0.  1.
<mgrwt>
<rscale>  0 0.36503821E+04</rscale>
<asrwt>0</asrwt>
<pdfrwt beam="1">  1        2 0.53311590E+00 0.36503821E+04</pdfrwt>
<pdfrwt beam="2">  1       -2 0.14790005E+00 0.36503821E+04</pdfrwt>
<totfact> 0.21666154E-01</totfact>
</mgrwt>
</event>
<event>
 6    1  0.2325157E-005  0.3483267E+04  0.7818608E-02  0.8117767E-01
          2   -1    0    0  501    0  0.00000000000E+00  0.00000000000E+00  0.16920265752E+04  0.16920265752E+04  0.00000000000E+00 0.  1.
         -2   -1    0    0    0  501 -0.00000000000E+00 -0.00000000000E+00 -0.17926951498E+04  0.17926951498E+04  0.00000000000E+00 0. -1.
         23    2    1    2    0    0 -0.66461637247E+03  0.12491774654E+04  0.96347960009E+03  0.17142498668E+04  0.90556078805E+02 0.  0.
         11    1    3    3    0    0 -0.29831775587E+03  0.47777704876E+03  0.35747123629E+03  0.66712073612E+03  0.00000000000E+00 0. -1.
        -11    1    3    3    0    0 -0.36629861661E+03  0.77140041666E+03  0.60600836380E+03  0.10471291307E+04  0.00000000000E+00 0.  1.
         22    1    1    2    0    0  0.66461637247E+03 -0.12491774654E+04 -0.10641481747E+04  0.17704718581E+04  0.00000000000E+00 0. -1.
<mgrwt>
<rscale>  0 0.34832673E+04</rscale>
<asrwt>0</asrwt>
<pdfrwt beam="1">  1        2 0.26031178E+00 0.34832673E+04</pdfrwt>
<pdfrwt beam="2">  1       -2 0.27579925E+00 0.34832673E+04</pdfrwt>
<totfact> 0.36418524E-01</totfact>
</mgrwt>
</event>
<event>
 6    1  0.2325157E-005  0.3355100E+04  0.7818608E-02  0.8149015E-01
          1   -1    0    0  501    0  0.00000000000E+00  0.00000000000E+00  0.12587285660E+04  0.12587285660E+04  0.00000000000E+00 0. -1.
         -1   -1    0    0    0  501 -0.00000000000E+00 -0.00000000000E+00 -0.22357277983E+04  0.22357277983E+04  0.00000000000E+00 0.  1.
         23    2    1    2    0    0 -0.95552220408E+03 -0.10267935070E+04  0.46728560308E+03  0.14811788687E+04  0.90594799752E+02 0.  0.
         13    1    3    3    0    0 -0.14172588536E+03 -0.13437934041E+03  0.35142495539E+02  0.19844149945E+03  0.00000000000E+00 0. -1.
        -13    1    3    3    0    0 -0.81379631872E+03 -0.89241416654E+03  0.43214310754E+03  0.12827373692E+04  0.00000000000E+00 0.  1.
         22    1    1    2    0    0  0.95552220408E+03  0.10267935070E+04 -0.14442848354E+04  0.20132774956E+04  0.00000000000E+00 0.  1.
<mgrwt>
<rscale>  0 0.33551003E+04</rscale>
<asrwt>0</asrwt>
<pdfrwt beam="1">  1        1 0.19365055E+00 0.33551003E+04</pdfrwt>
<pdfrwt beam="2">  1       -1 0.34395812E+00 0.33551003E+04</pdfrwt>
<totfact> 0.13620654E-01</totfact>
</mgrwt>
</event>
<event>
 6    1  0.2325157E-005  0.1610543E+04  0.7818608E-02  0.8814097E-01
          2   -1    0    0  501    0  0.00000000000E+00  0.00000000000E+00  0.13849662326E+04  0.13849662326E+04  0.00000000000E+00 0.  1.
         -2   -1    0    0    0  501 -0.00000000000E+00 -0.00000000000E+00 -0.46821522199E+03  0.46821522199E+03  0.00000000000E+00 0. -1.
         23    2    1    2    0    0 -0.56669050484E+03 -0.54807118797E+03  0.63282889306E+03  0.10152483283E+04  0.93469807190E+02 0.  0.
         11    1    3    3    0    0 -0.32104653003E+03 -0.37327768985E+03  0.38680359555E+03  0.62611830329E+03  0.00000000000E+00 0. -1.
        -11    1    3    3    0    0 -0.24564397481E+03 -0.17479349812E+03  0.24602529751E+03  0.38913002500E+03  0.00000000000E+00 0.  1.
         22    1    1    2    0    0  0.56669050484E+03  0.54807118797E+03  0.28392211759E+03  0.83793312633E+03  0.00000000000E+00 0. -1.
<mgrwt>
<rscale>  0 0.16105431E+04</rscale>
<asrwt>0</asrwt>
<pdfrwt beam="1">  1        2 0.21307173E+00 0.16105431E+04</pdfrwt>
<pdfrwt beam="2">  1       -2 0.72033112E-01 0.16105431E+04</pdfrwt>
<totfact> 0.24690839E+01</totfact>
</mgrwt>
</event>
<event>
 6    1  0.2325157E-005  0.2429929E+04  0.7818608E-02  0.8428383E-01
         -2   -1    0    0    0  501 -0.00000000000E+00  0.00000000000E+00  0.44102697605E+03  0.44102697605E+03  0.00000000000E+00 0. -1.
          2   -1    0    0  501    0  0.00000000000E+00 -0.00000000000E+00 -0.33470483144E+04  0.33470483144E+04  0.00000000000E+00 0.  1.
         23    2    1    2    0    0 -0.11223548758E+04 -0.41929433827E+03 -0.17527344813E+04  0.21250783620E+04  0.91606076332E+02 0.  0.
         13    1    3    3    0    0 -0.72705930737E+03 -0.26142616667E+03 -0.10530334120E+04  0.13060774264E+04  0.00000000000E+00 0. -1.
        -13    1    3    3    0    0 -0.39529556847E+03 -0.15786817160E+03 -0.69970106931E+03  0.81900093556E+03  0.00000000000E+00 0.  1.
         22    1    1    2    0    0  0.11223548758E+04  0.41929433827E+03 -0.11532868570E+04  0.16629969284E+04  0.00000000000E+00 0. -1.
<mgrwt>
<rscale>  0 0.24299289E+04</rscale>
<asrwt>0</asrwt>
<pdfrwt beam="1">  1        2 0.51493052E+00 0.24299289E+04</pdfrwt>
<pdfrwt beam="2">  1       -2 0.67850303E-01 0.24299289E+04</pdfrwt>
<totfact> 0.18508168E+00</totfact>
</mgrwt>
</event>
<event>
 6    1  0.2325157E-005  0.2401543E+04  0.7818608E-02  0.8438926E-01
          2   -1    0    0  501    0  0.00000000000E+00  0.00000000000E+00  0.66123666828E+03  0.66123666828E+03  0.00000000000E+00 0.  1.
         -2   -1    0    0    0  501 -0.00000000000E+00 -0.00000000000E+00 -0.21805380153E+04  0.21805380153E+04  0.00000000000E+00 0. -1.
         23    2    1    2    0    0 -0.95480637324E+03 -0.55529252646E+03 -0.13127903384E+04  0.17180968841E+04  0.91833710056E+02 0.  0.
         11    1    3    3    0    0 -0.44185815722E+03 -0.24292995548E+03 -0.53115957797E+03  0.73238247634E+03  0.00000000000E+00 0. -1.
        -11    1    3    3    0    0 -0.51294821602E+03 -0.31236257098E+03 -0.78163076040E+03  0.98571440776E+03  0.00000000000E+00 0.  1.
         22    1    1    2    0    0  0.95480637324E+03  0.55529252646E+03 -0.20651100863E+03  0.11236777995E+04  0.00000000000E+00 0.  1.
<mgrwt>
<rscale>  0 0.24015426E+04</rscale>
<asrwt>0</asrwt>
<pdfrwt beam="1">  1        2 0.10172872E+00 0.24015426E+04</pdfrwt>
<pdfrwt beam="2">  1       -2 0.33546739E+00 0.24015426E+04</pdfrwt>
<totfact> 0.76004091E-01</totfact>
</mgrwt>
</event>
<event>
 6    1  0.2325157E-005  0.4368738E+04  0.7818608E-02  0.7934029E-01
         -2   -1    0    0    0  501 -0.00000000000E+00  0.00000000000E+00  0.27807346201E+04  0.27807346201E+04  0.00000000000E+00 0. -1.
          2   -1    0    0  501    0  0.00000000000E+00 -0.00000000000E+00 -0.17159018428E+04  0.17159018428E+04  0.00000000000E+00 0.  1.
         23    2    1    2    0    0 -0.22371855199E+03 -0.16055431342E+04  0.20381411725E+04  0.26058302914E+04  0.92267666853E+02 0.  0.
         13    1    3    3    0    0 -0.18941579843E+03 -0.10998942814E+04  0.13637955816E+04  0.17622667685E+04  0.00000000000E+00 0.  1.
        -13    1    3    3    0    0 -0.34302753561E+02 -0.50564885280E+03  0.67434559085E+03  0.84356352288E+03  0.00000000000E+00 0. -1.
         22    1    1    2    0    0  0.22371855199E+03  0.16055431342E+04 -0.97330839509E+03  0.18908061715E+04  0.00000000000E+00 0.  1.
<mgrwt>
<rscale>  0 0.43687379E+04</rscale>
<asrwt>0</asrwt>
<pdfrwt beam="1">  1        2 0.26398490E+00 0.43687379E+04</pdfrwt>
<pdfrwt beam="2">  1       -2 0.42780533E+00 0.43687379E+04</pdfrwt>
<totfact> 0.35837672E-02</totfact>
</mgrwt>
</event>
<event>
 6    1  0.2325157E-005  0.1234202E+04  0.7818608E-02  0.9083436E-01
          2   -1    0    0  501    0  0.00000000000E+00  0.00000000000E+00  0.14905008874E+04  0.14905008874E+04  0.00000000000E+00 0.  1.
         -2   -1    0    0    0  501 -0.00000000000E+00 -0.00000000000E+00 -0.25549364847E+03  0.25549364847E+03  0.00000000000E+00 0. -1.
         23    2    1    2    0    0  0.53601518803E+03  0.21301166589E+03  0.32467973050E+03  0.66831999121E+03  0.92457729007E+02 0.  0.
         11    1    3    3    0    0  0.34393199409E+03  0.17269858682E+03  0.24664451089E+03  0.45710779166E+03  0.00000000000E+00 0.  1.
        -11    1    3    3    0    0  0.19208319394E+03  0.40313079074E+02  0.78035219604E+02  0.21121219955E+03  0.00000000000E+00 0. -1.
         22    1    1    2    0    0 -0.53601518803E+03 -0.21301166589E+03  0.91032750842E+03  0.10776745447E+04  0.00000000000E+00 0. -1.
<mgrwt>
<rscale>  0 0.12342018E+04</rscale>
<asrwt>0</asrwt>
<pdfrwt beam="1">  1        2 0.22930782E+00 0.12342018E+04</pdfrwt>
<pdfrwt beam="2">  1       -2 0.39306716E-01 0.12342018E+04</pdfrwt>
<totfact> 0.77400008E+01</totfact>
</mgrwt>
</event>
<event>
 6    1  0.2325157E-005  0.2624499E+04  0.7818608E-02  0.8359927E-01
         -2   -1    0    0    0  501 -0.00000000000E+00  0.00000000000E+00  0.52160307857E+03  0.52160307857E+03  0.00000000000E+00 0. -1.
          2   -1    0    0  501    0  0.00000000000E+00 -0.00000000000E+00 -0.33013593739E+04  0.33013593739E+04  0.00000000000E+00 0.  1.
         23    2    1    2    0    0 -0.10758418956E+04 -0.32004854888E+03 -0.23775281488E+04  0.26306309801E+04  0.87820257785E+02 0.  0.
         11    1    3    3    0    0 -0.47768028843E+03 -0.98778480762E+02 -0.10608357831E+04  0.11676078986E+04  0.00000000000E+00 0. -1.
        -11    1    3    3    0    0 -0.59816160715E+03 -0.22127006812E+03 -0.13166923656E+04  0.14630230815E+04  0.00000000000E+00 0.  1.
         22    1    1    2    0    0  0.10758418956E+04  0.32004854888E+03 -0.40222814654E+03  0.11923314723E+04  0.00000000000E+00 0. -1.
<mgrwt>
<rscale>  0 0.26244994E+04</rscale>
<asrwt>0</asrwt>
<pdfrwt beam="1">  1        2 0.50790144E+00 0.26244994E+04</pdfrwt>
<pdfrwt beam="2">  1       -2 0.80246627E-01 0.26244994E+04</pdfrwt>
<totfact> 0.13472564E+00</totfact>
</mgrwt>
</event>
<event>
 6    1  0.2325157E-005  0.2500840E+04  0.7818608E-02  0.8402686E-01
          2   -1    0    0  501    0  0.00000000000E+00  0.00000000000E+00  0.15325822846E+04  0.15325822846E+04  0.00000000000E+00 0.  1.
         -2   -1    0    0    0  501 -0.00000000000E+00 -0.00000000000E+00 -0.10202063023E+04  0.10202063023E+04  0.00000000000E+00 0. -1.
         23    2    1    2    0    0 -0.12230214214E+04  0.15118341681E+03  0.46297168769E+03  0.13194684310E+04  0.89533983029E+02 0.  0.
         11    1    3    3    0    0 -0.98991551810E+03  0.12764294546E+03  0.41137749310E+03  0.10795632896E+04  0.00000000000E+00 0. -1.
        -11    1    3    3    0    0 -0.23310590328E+03  0.23540471349E+02  0.51594194596E+02  0.23990514136E+03  0.00000000000E+00 0.  1.
         22    1    1    2    0    0  0.12230214214E+04 -0.15118341681E+03  0.49404294669E+02  0.12333201559E+04  0.00000000000E+00 0.  1.
<mgrwt>
<rscale>  0 0.25008399E+04</rscale>
<asrwt>0</asrwt>
<pdfrwt beam="1">  1        2 0.23578189E+00 0.25008399E+04</pdfrwt>
<pdfrwt beam="2">  1       -2 0.15695481E+00 0.25008399E+04</pdfrwt>
<totfact> 0.28803109E+00</totfact>
</mgrwt>
</event>
<event>
 6    1  0.2325157E-005  0.2595312E+04  0.7818608E-02  0.8369795E-01
          2   -1    0    0  501    0  0.00000000000E+00  0.00000000000E+00  0.18984228264E+04  0.18984228264E+04  0.00000000000E+00 0.  1.
         -2   -1    0    0    0  501 -0.00000000000E+00 -0.00000000000E+00 -0.88700551966E+03  0.88700551966E+03  0.00000000000E+00 0. -1.
         23    2    1    2    0    0 -0.94311198082E+02 -0.12680549771E+04  0.77543450753E+03  0.14921588813E+04  0.91550120287E+02 0.  0.
         13    1    3    3    0    0 -0.36401306580E+02 -0.81660946813E+03  0.45490014392E+03  0.93547325964E+03  0.00000000000E+00 0. -1.
        -13    1    3    3    0    0 -0.57909891502E+02 -0.45144550897E+03  0.32053436361E+03  0.55668562165E+03  0.00000000000E+00 0.  1.
         22    1    1    2    0    0  0.94311198082E+02  0.12680549771E+04  0.23598279923E+03  0.12932694648E+04  0.00000000000E+00 0.  1.
<mgrwt>
<rscale>  0 0.25953123E+04</rscale>
<asrwt>0</asrwt>
<pdfrwt beam="1">  1        2 0.29206505E+00 0.25953123E+04</pdfrwt>
<pdfrwt beam="2">  1       -2 0.13646239E+00 0.25953123E+04</pdfrwt>
<totfact> 0.25842053E+00</totfact>
</mgrwt>
</event>
<event>
 6    1  0.2325157E-005  0.2846179E+04  0.7818608E-02  0.8289073E-01
         -2   -1    0    0    0  501 -0.00000000000E+00  0.00000000000E+00  0.13677390715E+04  0.13677390715E+04  0.00000000000E+00 0. -1.
          2   -1    0    0  501    0  0.00000000000E+00 -0.00000000000E+00 -0.14806797768E+04  0.14806797768E+04  0.00000000000E+00 0.  1.
         23    2    1    2    0    0 -0.14696012050E+03  0.63915239697E+03  0.12057971436E+04  0.13756043394E+04  0.90705477094E+02 0.  0.
         11    1    3    3    0    0 -0.73624529828E+02  0.36763600631E+03  0.59682598430E+03  0.70482484354E+03  0.00000000000E+00 0. -1.
        -11    1    3    3    0    0 -0.73335590672E+02  0.27151639066E+03  0.60897115926E+03  0.67077949586E+03  0.00000000000E+00 0.  1.
         22    1    1    2    0    0  0.14696012050E+03 -0.63915239697E+03 -0.13187378489E+04  0.14728145089E+04  0.00000000000E+00 0.  1.
<mgrwt>
<rscale>  0 0.28461789E+04</rscale>
<asrwt>0</asrwt>
<pdfrwt beam="1">  1        2 0.22779689E+00 0.28461789E+04</pdfrwt>
<pdfrwt beam="2">  1       -2 0.21042139E+00 0.28461789E+04</pdfrwt>
<totfact> 0.12842413E+00</totfact>
</mgrwt>
</event>
<event>
 6    1  0.2325157E-005  0.2753674E+04  0.7818608E-02  0.8317797E-01
         -2   -1    0    0    0  501 -0.00000000000E+00  0.00000000000E+00  0.11280582871E+04  0.11280582871E+04  0.00000000000E+00 0. -1.
          2   -1    0    0  501    0  0.00000000000E+00 -0.00000000000E+00 -0.16804810871E+04  0.16804810871E+04  0.00000000000E+00 0.  1.
         23    2    1    2    0    0  0.97602041767E+03  0.73238616249E+03 -0.92337509249E+03  0.15331527857E+04  0.94501620017E+02 0.  0.
         13    1    3    3    0    0  0.72836610087E+02  0.53770808300E+02 -0.10210620472E+03  0.13646299365E+03  0.00000000000E+00 0.  1.
        -13    1    3    3    0    0  0.90318380759E+03  0.67861535419E+03 -0.82126888778E+03  0.13966897921E+04  0.00000000000E+00 0. -1.
         22    1    1    2    0    0 -0.97602041767E+03 -0.73238616249E+03  0.37095229244E+03  0.12753865884E+04  0.00000000000E+00 0. -1.
<mgrwt>
<rscale>  0 0.27536744E+04</rscale>
<asrwt>0</asrwt>
<pdfrwt beam="1">  1        2 0.25853555E+00 0.27536744E+04</pdfrwt>
<pdfrwt beam="2">  1       -2 0.17354743E+00 0.27536744E+04</pdfrwt>
<totfact> 0.17670949E+00</totfact>
</mgrwt>
</event>
<event>
 6    1  0.2325157E-005  0.3061261E+04  0.7818608E-02  0.8226451E-01
         -2   -1    0    0    0  501 -0.00000000000E+00  0.00000000000E+00  0.14061825573E+04  0.14061825573E+04  0.00000000000E+00 0. -1.
          2   -1    0    0  501    0  0.00000000000E+00 -0.00000000000E+00 -0.16660921900E+04  0.16660921900E+04  0.00000000000E+00 0.  1.
         23    2    1    2    0    0 -0.10172120558E+04  0.10053054139E+04  0.41358313804E+03  0.14914674048E+04  0.89803485590E+02 0.  0.
         13    1    3    3    0    0 -0.34759354839E+03  0.29803243050E+03  0.16004795871E+03  0.48503603330E+03  0.00000000000E+00 0.  1.
        -13    1    3    3    0    0 -0.66961850738E+03  0.70727298340E+03  0.25353517934E+03  0.10064313715E+04  0.00000000000E+00 0. -1.
         22    1    1    2    0    0  0.10172120558E+04 -0.10053054139E+04 -0.67349277077E+03  0.15808073424E+04  0.00000000000E+00 0.  1.
<mgrwt>
<rscale>  0 0.30612610E+04</rscale>
<asrwt>0</asrwt>
<pdfrwt beam="1">  1        2 0.25632188E+00 0.30612610E+04</pdfrwt>
<pdfrwt beam="2">  1       -2 0.21633578E+00 0.30612610E+04</pdfrwt>
<totfact> 0.90985620E-01</totfact>
</mgrwt>
</event>
<event>
 6    1  0.2325157E-005  0.2946395E+04  0.7818608E-02  0.8259206E-01
          2   -1    0    0  501    0  0.00000000000E+00  0.00000000000E+00  0.13168139090E+04  0.13168139090E+04  0.00000000000E+00 0.  1.
         -2   -1    0    0    0  501 -0.00000000000E+00 -0.00000000000E+00 -0.16481533456E+04  0.16481533456E+04  0.00000000000E+00 0. -1.
         23    2    1    2    0    0  0.39971759918E+03  0.11471930188E+04 -0.10017674012E+04  0.15774155845E+04  0.94212623596E+02 0.  0.
         13    1    3    3    0    0  0.11702349086E+03  0.25567487062E+03 -0.27090188939E+03  0.39045098355E+03  0.00000000000E+00 0. -1.
        -13    1    3    3    0    0  0.28269410833E+03  0.89151814818E+03 -0.73086551184E+03  0.11869646009E+04  0.00000000000E+00 0.  1.
         22    1    1    2    0    0 -0.39971759918E+03 -0.11471930188E+04  0.67042796470E+03  0.13875516702E+04  0.00000000000E+00 0.  1.
<mgrwt>
<rscale>  0 0.29463953E+04</rscale>
<asrwt>0</asrwt>
<pdfrwt beam="1">  1        2 0.20258676E+00 0.29463953E+04</pdfrwt>
<pdfrwt beam="2">  1       -2 0.25356205E+00 0.29463953E+04</pdfrwt>
<totfact> 0.84908675E-01</totfact>
</mgrwt>
</event>
<event>
 6    1  0.2325157E-005  0.3143309E+04  0.7818608E-02  0.8203952E-01
          2   -1    0    0  501    0  0.00000000000E+00  0.00000000000E+00  0.14981728030E+04  0.14981728030E+04  0.00000000000E+00 0.  1.
         -2   -1    0    0    0  501 -0.00000000000E+00 -0.00000000000E+00 -0.16487400134E+04  0.16487400134E+04  0.00000000000E+00 0. -1.
         23    2    1    2    0    0 -0.68332863103E+03  0.36107776096E+03  0.12931244275E+04  0.15093656529E+04  0.93266937996E+02 0.  0.
         13    1    3    3    0    0 -0.49513978335E+03  0.30420892189E+03  0.99442644044E+03  0.11517770699E+04  0.00000000000E+00 0. -1.
        -13    1    3    3    0    0 -0.18818884768E+03  0.56868839073E+02  0.29869798705E+03  0.35758858303E+03  0.00000000000E+00 0.  1.
         22    1    1    2    0    0  0.68332863103E+03 -0.36107776096E+03 -0.14436916378E+04  0.16375471635E+04  0.00000000000E+00 0. -1.
<mgrwt>
<rscale>  0 0.31433087E+04</rscale>
<asrwt>0</asrwt>
<pdfrwt beam="1">  1        2 0.23048812E+00 0.31433087E+04</pdfrwt>
<pdfrwt beam="2">  1       -2 0.25365231E+00 0.31433087E+04</pdfrwt>
<totfact> 0.65689942E-01</totfact>
</mgrwt>
</event>
<event>
 6    1  0.2325157E-005  0.1183112E+04  0.7818608E-02  0.9127769E-01
         -2   -1    0    0    0  501 -0.00000000000E+00  0.00000000000E+00  0.19418106716E+03  0.19418106716E+03  0.00000000000E+00 0. -1.
          2   -1    0    0  501    0  0.00000000000E+00 -0.00000000000E+00 -0.18021240547E+04  0.18021240547E+04  0.00000000000E+00 0.  1.
         23    2    1    2    0    0 -0.16959343512E+03 -0.68379942759E+02 -0.17517633712E+04  0.17636636541E+04  0.91634198510E+02 0.  0.
         11    1    3    3    0    0 -0.17833273260E+02  0.95583353322E+01 -0.49015762410E+03  0.49057505427E+03  0.00000000000E+00 0. -1.
        -11    1    3    3    0    0 -0.15176016186E+03 -0.77938278091E+02 -0.12616057471E+04  0.12730885998E+04  0.00000000000E+00 0.  1.
         22    1    1    2    0    0  0.16959343512E+03  0.68379942759E+02  0.14382038360E+03  0.23264146782E+03  0.00000000000E+00 0. -1.
<mgrwt>
<rscale>  0 0.11831118E+04</rscale>
<asrwt>0</asrwt>
<pdfrwt beam="1">  1        2 0.27724985E+00 0.11831118E+04</pdfrwt>
<pdfrwt beam="2">  1       -2 0.29874011E-01 0.11831118E+04</pdfrwt>
<totfact> 0.87880861E+01</totfact>
</mgrwt>
</event>
<event>
 6    1  0.2325157E-005  0.2666052E+04  0.7818608E-02  0.8346105E-01
          2   -1    0    0  501    0  0.00000000000E+00  0.00000000000E+00  0.79705446923E+03  0.79705446923E+03  0.00000000000E+00 0.  1.
         -2   -1    0    0    0  501 -0.00000000000E+00 -0.00000000000E+00 -0.22294058010E+04  0.22294058010E+04  0.00000000000E+00 0. -1.
         23    2    1    2    0    0  0.14658287899E+03  0.94958867883E+03 -0.17632627250E+04  0.20102380753E+04  0.93576079769E+02 0.  0.
         11    1    3    3    0    0  0.36412999199E+02  0.53996047758E+03 -0.99303506089E+03  0.11309296424E+04  0.00000000000E+00 0. -1.
        -11    1    3    3    0    0  0.11016987979E+03  0.40962820125E+03 -0.77022766406E+03  0.87930843289E+03  0.00000000000E+00 0.  1.
         22    1    1    2    0    0 -0.14658287899E+03 -0.94958867883E+03  0.33091139318E+03  0.10162221950E+04  0.00000000000E+00 0.  1.
<mgrwt>
<rscale>  0 0.26660517E+04</rscale>
<asrwt>0</asrwt>
<pdfrwt beam="1">  1        2 0.12262377E+00 0.26660517E+04</pdfrwt>
<pdfrwt beam="2">  1       -2 0.34298550E+00 0.26660517E+04</pdfrwt>
<totfact> 0.52455305E-01</totfact>
</mgrwt>
</event>
<event>
 6    1  0.2325157E-005  0.2292920E+04  0.7818608E-02  0.8480718E-01
         -4   -1    0    0    0  501 -0.00000000000E+00  0.00000000000E+00  0.23884067631E+04  0.23884067631E+04  0.00000000000E+00 0. -1.
          4   -1    0    0  501    0  0.00000000000E+00 -0.00000000000E+00 -0.55031288944E+03  0.55031288944E+03  0.00000000000E+00 0.  1.
         23    2    1    2    0    0 -0.39223089034E+03  0.87840176701E+03  0.17154975042E+04  0.19689441087E+04  0.91512187652E+02 0.  0.
         11    1    3    3    0    0 -0.36854529942E+03  0.76394448366E+03  0.14731927140E+04  0.16999216407E+04  0.00000000000E+00 0.  1.
        -11    1    3    3    0    0 -0.23685590916E+02  0.11445728335E+03  0.24230479020E+03  0.26902246799E+03  0.00000000000E+00 0. -1.
         22    1    1    2    0    0  0.39223089034E+03 -0.87840176701E+03  0.12259636940E+03  0.96977554383E+03  0.00000000000E+00 0.  1.
<mgrwt>
<rscale>  0 0.22929204E+04</rscale>
<asrwt>0</asrwt>
<pdfrwt beam="1">  1        4 0.84663522E-01 0.22929204E+04</pdfrwt>
<pdfrwt beam="2">  1       -4 0.36744719E+00 0.22929204E+04</pdfrwt>
<totfact> 0.25161665E-02</totfact>
</mgrwt>
</event>
<event>
 6    1  0.2325157E-005  0.5090471E+04  0.7818608E-02  0.7814701E-01
          2   -1    0    0  501    0  0.00000000000E+00  0.00000000000E+00  0.27225762211E+04  0.27225762211E+04  0.00000000000E+00 0.  1.
         -2   -1    0    0    0  501 -0.00000000000E+00 -0.00000000000E+00 -0.23794466234E+04  0.23794466234E+04  0.00000000000E+00 0. -1.
         23    2    1    2    0    0 -0.19676565429E+04 -0.13537550109E+04 -0.70767065126E+03  0.24927114290E+04  0.92128264078E+02 0.  0.
         11    1    3    3    0    0 -0.28187737899E+03 -0.22776848844E+03 -0.12591547354E+03  0.38365094498E+03  0.00000000000E+00 0. -1.
        -11    1    3    3    0    0 -0.16857791639E+04 -0.11259865224E+04 -0.58175517772E+03  0.21090604840E+04  0.00000000000E+00 0.  1.
         22    1    1    2    0    0  0.19676565429E+04  0.13537550109E+04  0.10508002490E+04  0.26093114156E+04  0.00000000000E+00 0.  1.
<mgrwt>
<rscale>  0 0.50904714E+04</rscale>
<asrwt>0</asrwt>
<pdfrwt beam="1">  1        2 0.41885788E+00 0.50904714E+04</pdfrwt>
<pdfrwt beam="2">  1       -2 0.36606871E+00 0.50904714E+04</pdfrwt>
<totfact> 0.22893960E-02</totfact>
</mgrwt>
</event>
<event>
 6    1  0.2325157E-005  0.2640326E+04  0.7818608E-02  0.8354631E-01
          2   -1    0    0  501    0  0.00000000000E+00  0.00000000000E+00  0.66761805051E+03  0.66761805051E+03  0.00000000000E+00 0.  1.
         -2   -1    0    0    0  501 -0.00000000000E+00 -0.00000000000E+00 -0.26105201684E+04  0.26105201684E+04  0.00000000000E+00 0. -1.
         23    2    1    2    0    0 -0.90685828816E+03 -0.86870697785E+03 -0.47261525453E+03  0.13445438383E+04  0.85960375590E+02 0.  0.
         11    1    3    3    0    0 -0.51900194652E+03 -0.46983862448E+03 -0.30368570509E+03  0.76310966513E+03  0.00000000000E+00 0.  1.
        -11    1    3    3    0    0 -0.38785634164E+03 -0.39886835337E+03 -0.16892954944E+03  0.58143417318E+03  0.00000000000E+00 0. -1.
         22    1    1    2    0    0  0.90685828816E+03  0.86870697785E+03 -0.14702868634E+04  0.19335943806E+04  0.00000000000E+00 0. -1.
<mgrwt>
<rscale>  0 0.26403260E+04</rscale>
<asrwt>0</asrwt>
<pdfrwt beam="1">  1        2 0.10271047E+00 0.26403260E+04</pdfrwt>
<pdfrwt beam="2">  1       -2 0.40161849E+00 0.26403260E+04</pdfrwt>
<totfact> 0.27769686E-01</totfact>
</mgrwt>
</event>
<event>
 6    1  0.2325157E-005  0.3268135E+04  0.7818608E-02  0.8171051E-01
          2   -1    0    0  501    0  0.00000000000E+00  0.00000000000E+00  0.37639127365E+04  0.37639127365E+04  0.00000000000E+00 0.  1.
         -2   -1    0    0    0  501 -0.00000000000E+00 -0.00000000000E+00 -0.70941503220E+03  0.70941503220E+03  0.00000000000E+00 0. -1.
         23    2    1    2    0    0  0.17703469998E+03  0.16231055589E+04  0.15348380379E+04  0.22428169658E+04  0.93205145904E+02 0.  0.
         11    1    3    3    0    0  0.17331858513E+02  0.56032784824E+03  0.51538175860E+03  0.76150249371E+03  0.00000000000E+00 0.  1.
        -11    1    3    3    0    0  0.15970284147E+03  0.10627777106E+04  0.10194562793E+04  0.14813144721E+04  0.00000000000E+00 0. -1.
         22    1    1    2    0    0 -0.17703469998E+03 -0.16231055589E+04  0.15196596664E+04  0.22305108030E+04  0.00000000000E+00 0. -1.
<mgrwt>
<rscale>  0 0.32681348E+04</rscale>
<asrwt>0</asrwt>
<pdfrwt beam="1">  1        2 0.57906349E+00 0.32681348E+04</pdfrwt>
<pdfrwt beam="2">  1       -2 0.10914078E+00 0.32681348E+04</pdfrwt>
<totfact> 0.29276070E-01</totfact>
</mgrwt>
</event>
<event>
 6    1  0.2325157E-005  0.1086729E+04  0.7818608E-02  0.9218224E-01
          2   -1    0    0  501    0  0.00000000000E+00  0.00000000000E+00  0.11484341212E+04  0.11484341212E+04  0.00000000000E+00 0.  1.
         -2   -1    0    0    0  501 -0.00000000000E+00 -0.00000000000E+00 -0.25708493965E+03  0.25708493965E+03  0.00000000000E+00 0. -1.
         23    2    1    2    0    0  0.24561266439E+03 -0.31100610382E+03 -0.24839174013E+02  0.40729489745E+03  0.90673984160E+02 0.  0.
         13    1    3    3    0    0  0.40046676836E+02 -0.11559116271E+03 -0.17462512406E+02  0.12357181136E+03  0.00000000000E+00 0. -1.
        -13    1    3    3    0    0  0.20556598755E+03 -0.19541494111E+03 -0.73766616068E+01  0.28372308610E+03  0.00000000000E+00 0.  1.
         22    1    1    2    0    0 -0.24561266439E+03  0.31100610382E+03  0.91618835558E+03  0.99822416342E+03  0.00000000000E+00 0.  1.
<mgrwt>
<rscale>  0 0.10867293E+04</rscale>
<asrwt>0</asrwt>
<pdfrwt beam="1">  1        2 0.17668217E+00 0.10867293E+04</pdfrwt>
<pdfrwt beam="2">  1       -2 0.39551530E-01 0.10867293E+04</pdfrwt>
<totfact> 0.12213934E+02</totfact>
</mgrwt>
</event>
<event>
 6    1  0.2325157E-005  0.5060152E+03  0.7818608E-02  0.1012221E+00
          2   -1    0    0  501    0  0.00000000000E+00  0.00000000000E+00  0.91072422965E+03  0.91072422965E+03  0.00000000000E+00 0.  1.
         -2   -1    0    0    0  501 -0.00000000000E+00 -0.00000000000E+00 -0.70287842233E+02  0.70287842233E+02  0.00000000000E+00 0. -1.
         23    2    1    2    0    0  0.14438716395E+03 -0.18128052421E+03  0.33606914559E+03  0.42594757455E+03  0.12156719984E+03 0.  0.
         13    1    3    3    0    0  0.10879945558E+03 -0.42443153241E+02  0.17443814676E+03  0.20992239003E+03  0.00000000000E+00 0. -1.
        -13    1    3    3    0    0  0.35587708373E+02 -0.13883737097E+03  0.16163099883E+03  0.21602518452E+03  0.00000000000E+00 0.  1.
         22    1    1    2    0    0 -0.14438716395E+03  0.18128052421E+03  0.50436724183E+03  0.55506449733E+03  0.00000000000E+00 0.  1.
<mgrwt>
<rscale>  0 0.50601518E+03</rscale>
<asrwt>0</asrwt>
<pdfrwt beam="1">  1        2 0.14011141E+00 0.50601518E+03</pdfrwt>
<pdfrwt beam="2">  1       -2 0.10813515E-01 0.50601518E+03</pdfrwt>
<totfact> 0.17501225E+03</totfact>
</mgrwt>
</event>
<event>
 6    1  0.2325157E-005  0.4354171E+04  0.7818608E-02  0.7936677E-01
         -2   -1    0    0    0  501 -0.00000000000E+00  0.00000000000E+00  0.12199640467E+04  0.12199640467E+04  0.00000000000E+00 0. -1.
          2   -1    0    0  501    0  0.00000000000E+00 -0.00000000000E+00 -0.38851162422E+04  0.38851162422E+04  0.00000000000E+00 0.  1.
         23    2    1    2    0    0 -0.77228065446E+02  0.15487061112E+04  0.45691750590E+03  0.16191408153E+04  0.91589188785E+02 0.  0.
         11    1    3    3    0    0 -0.45245874185E+02  0.84946646954E+03  0.29799917348E+03  0.90135674369E+03  0.00000000000E+00 0. -1.
        -11    1    3    3    0    0 -0.31982191260E+02  0.69923964168E+03  0.15891833242E+03  0.71778407160E+03  0.00000000000E+00 0.  1.
         22    1    1    2    0    0  0.77228065446E+02 -0.15487061112E+04 -0.31220697015E+04  0.34859394736E+04  0.00000000000E+00 0.  1.
<mgrwt>
<rscale>  0 0.43541714E+04</rscale>
<asrwt>0</asrwt>
<pdfrwt beam="1">  1        2 0.59771020E+00 0.43541714E+04</pdfrwt>
<pdfrwt beam="2">  1       -2 0.18768677E+00 0.43541714E+04</pdfrwt>
<totfact> 0.51831476E-02</totfact>
</mgrwt>
</event>
<event>
 6    1  0.2325157E-005  0.8181882E+03  0.7818608E-02  0.9534057E-01
          1   -1    0    0  501    0  0.00000000000E+00  0.00000000000E+00  0.12074602337E+04  0.12074602337E+04  0.00000000000E+00 0.  1.
         -1   -1    0    0    0  501 -0.00000000000E+00 -0.00000000000E+00 -0.13860331803E+03  0.13860331803E+03  0.00000000000E+00 0. -1.
         23    2    1    2    0    0 -0.22487303722E+03 -0.26073312531E+02 -0.91356750864E+01  0.24455743453E+03  0.92071590220E+02 0.  0.
         13    1    3    3    0    0 -0.66793457799E+02 -0.31509089780E+02 -0.39110516789E+02  0.83569260300E+02  0.00000000000E+00 0.  1.
        -13    1    3    3    0    0 -0.15807957943E+03  0.54357772487E+01  0.29974841703E+02  0.16098817423E+03  0.00000000000E+00 0. -1.
         22    1    1    2    0    0  0.22487303722E+03  0.26073312531E+02  0.10779925908E+04  0.11015061172E+04  0.00000000000E+00 0.  1.
<mgrwt>
<rscale>  0 0.81818823E+03</rscale>
<asrwt>0</asrwt>
<pdfrwt beam="1">  1        1 0.18576311E+00 0.81818823E+03</pdfrwt>
<pdfrwt beam="2">  1       -1 0.21323588E-01 0.81818823E+03</pdfrwt>
<totfact> 0.19579263E+02</totfact>
</mgrwt>
</event>
<event>
 6    1  0.2325157E-005  0.1811654E+04  0.7818608E-02  0.8700126E-01
         -2   -1    0    0    0  501 -0.00000000000E+00  0.00000000000E+00  0.13755276740E+04  0.13755276740E+04  0.00000000000E+00 0. -1.
          2   -1    0    0  501    0  0.00000000000E+00 -0.00000000000E+00 -0.59651478007E+03  0.59651478007E+03  0.00000000000E+00 0.  1.
         23    2    1    2    0    0 -0.18784000760E+03  0.65168169457E+03  0.10404478296E+04  0.12451854358E+04  0.89343069429E+02 0.  0.
         11    1    3    3    0    0 -0.58432699985E+02  0.36284811472E+03  0.56662699067E+03  0.67538084170E+03  0.00000000000E+00 0. -1.
        -11    1    3    3    0    0 -0.12940730762E+03  0.28883357985E+03  0.47382083888E+03  0.56980459411E+03  0.00000000000E+00 0.  1.
         22    1    1    2    0    0  0.18784000760E+03 -0.65168169457E+03 -0.26143493558E+03  0.72685701829E+03  0.00000000000E+00 0.  1.
<mgrwt>
<rscale>  0 0.18116540E+04</rscale>
<asrwt>0</asrwt>
<pdfrwt beam="1">  1        2 0.91771505E-01 0.18116540E+04</pdfrwt>
<pdfrwt beam="2">  1       -2 0.21161964E+00 0.18116540E+04</pdfrwt>
<totfact> 0.52625936E+00</totfact>
</mgrwt>
</event>
<event>
 6    1  0.2325157E-005  0.6559600E+03  0.7818608E-02  0.9795659E-01
          2   -1    0    0  501    0  0.00000000000E+00  0.00000000000E+00  0.73490363802E+03  0.73490363802E+03  0.00000000000E+00 0.  1.
         -2   -1    0    0    0  501 -0.00000000000E+00 -0.00000000000E+00 -0.14637413270E+03  0.14637413270E+03  0.00000000000E+00 0. -1.
         23    2    1    2    0    0 -0.25526397264E+02  0.77988814931E+02  0.71776222437E+03  0.72819299719E+03  0.91370554444E+02 0.  0.
         11    1    3    3    0    0  0.18468635608E+02  0.74101778122E+02  0.51856321425E+03  0.52415643771E+03  0.00000000000E+00 0. -1.
        -11    1    3    3    0    0 -0.43995032872E+02  0.38870368085E+01  0.19919901012E+03  0.20403655948E+03  0.00000000000E+00 0.  1.
         22    1    1    2    0    0  0.25526397264E+02 -0.77988814931E+02 -0.12923271905E+03  0.15308477353E+03  0.00000000000E+00 0. -1.
<mgrwt>
<rscale>  0 0.65596001E+03</rscale>
<asrwt>0</asrwt>
<pdfrwt beam="1">  1        2 0.11306210E+00 0.65596001E+03</pdfrwt>
<pdfrwt beam="2">  1       -2 0.22519098E-01 0.65596001E+03</pdfrwt>
<totfact> 0.66978003E+02</totfact>
</mgrwt>
</event>
<event>
 6    1  0.2325157E-005  0.2797694E+04  0.7818608E-02  0.8303985E-01
         -2   -1    0    0    0  501 -0.00000000000E+00  0.00000000000E+00  0.68201085342E+03  0.68201085342E+03  0.00000000000E+00 0. -1.
          2   -1    0    0  501    0  0.00000000000E+00 -0.00000000000E+00 -0.28691227508E+04  0.28691227508E+04  0.00000000000E+00 0.  1.
         23    2    1    2    0    0  0.10670725314E+04  0.42085736524E+03 -0.81791087019E+02  0.11536056224E+04  0.91386217634E+02 0.  0.
         11    1    3    3    0    0  0.19968475499E+03  0.11601562599E+03 -0.47933166358E+01  0.23099048191E+03  0.00000000000E+00 0. -1.
        -11    1    3    3    0    0  0.86738777646E+03  0.30484173925E+03 -0.76997770384E+02  0.92261514045E+03  0.00000000000E+00 0.  1.
         22    1    1    2    0    0 -0.10670725314E+04 -0.42085736524E+03 -0.21053208103E+04  0.23975279818E+04  0.00000000000E+00 0.  1.
<mgrwt>
<rscale>  0 0.27976939E+04</rscale>
<asrwt>0</asrwt>
<pdfrwt beam="1">  1        2 0.44140351E+00 0.27976939E+04</pdfrwt>
<pdfrwt beam="2">  1       -2 0.10492475E+00 0.27976939E+04</pdfrwt>
<totfact> 0.13444797E+00</totfact>
</mgrwt>
</event>
<event>
 6    1  0.2325157E-005  0.3880316E+04  0.7818608E-02  0.8029136E-01
         -2   -1    0    0    0  501 -0.00000000000E+00  0.00000000000E+00  0.15119231329E+04  0.15119231329E+04  0.00000000000E+00 0. -1.
          2   -1    0    0  501    0  0.00000000000E+00 -0.00000000000E+00 -0.24896859738E+04  0.24896859738E+04  0.00000000000E+00 0.  1.
         23    2    1    2    0    0 -0.10716156147E+03  0.74571553763E+03  0.13534053345E+04  0.15517274105E+04  0.92610440117E+02 0.  0.
         13    1    3    3    0    0  0.93444001438E+01  0.22787515049E+03  0.39074830304E+03  0.45243633625E+03  0.00000000000E+00 0. -1.
        -13    1    3    3    0    0 -0.11650596162E+03  0.51784038713E+03  0.96265703150E+03  0.10992910743E+04  0.00000000000E+00 0.  1.
         22    1    1    2    0    0  0.10716156147E+03 -0.74571553763E+03 -0.23311681754E+04  0.24498816962E+04  0.00000000000E+00 0.  1.
<mgrwt>
<rscale>  0 0.38803164E+04</rscale>
<asrwt>0</asrwt>
<pdfrwt beam="1">  1        2 0.38302861E+00 0.38803164E+04</pdfrwt>
<pdfrwt beam="2">  1       -2 0.23260356E+00 0.38803164E+04</pdfrwt>
<totfact> 0.23152034E-01</totfact>
</mgrwt>
</event>
<event>
 6    1  0.2325157E-005  0.2414291E+04  0.7818608E-02  0.8434172E-01
          2   -1    0    0  501    0  0.00000000000E+00  0.00000000000E+00  0.27816491960E+04  0.27816491960E+04  0.00000000000E+00 0.  1.
         -2   -1    0    0    0  501 -0.00000000000E+00 -0.00000000000E+00 -0.52386213092E+03  0.52386213092E+03  0.00000000000E+00 0. -1.
         23    2    1    2    0    0 -0.50147467599E+02 -0.32031343301E+03  0.27203127799E+04  0.27406701982E+04  0.77820633831E+02 0.  0.
         13    1    3    3    0    0 -0.17800449548E+02 -0.12197753249E+03  0.74113358583E+03  0.75131509134E+03  0.00000000000E+00 0. -1.
        -13    1    3    3    0    0 -0.32347018051E+02 -0.19833590052E+03  0.19791791940E+04  0.19893551069E+04  0.00000000000E+00 0.  1.
         22    1    1    2    0    0  0.50147467599E+02  0.32031343301E+03 -0.46252571479E+03  0.56484112874E+03  0.00000000000E+00 0. -1.
<mgrwt>
<rscale>  0 0.24142913E+04</rscale>
<asrwt>0</asrwt>
<pdfrwt beam="1">  1        2 0.42794602E+00 0.24142913E+04</pdfrwt>
<pdfrwt beam="2">  1       -2 0.80594176E-01 0.24142913E+04</pdfrwt>
<totfact> 0.28968406E+00</totfact>
</mgrwt>
</event>
<event>
 6    1  0.2325157E-005  0.2865548E+04  0.7818608E-02  0.8283202E-01
          2   -1    0    0  501    0  0.00000000000E+00  0.00000000000E+00  0.23698476385E+04  0.23698476385E+04  0.00000000000E+00 0.  1.
         -2   -1    0    0    0  501 -0.00000000000E+00 -0.00000000000E+00 -0.86623321713E+03  0.86623321713E+03  0.00000000000E+00 0. -1.
         23    2    1    2    0    0  0.45945938662E+03  0.13425764780E+04  0.96407494836E+03  0.17179512926E+04  0.91113172981E+02 0.  0.
         13    1    3    3    0    0  0.38609478940E+03  0.11682157148E+04  0.86844790069E+03  0.15059876822E+04  0.00000000000E+00 0. -1.
        -13    1    3    3    0    0  0.73364597218E+02  0.17436076325E+03  0.95627047678E+02  0.21196361040E+03  0.00000000000E+00 0.  1.
         22    1    1    2    0    0 -0.45945938662E+03 -0.13425764780E+04  0.53953947304E+03  0.15181295631E+04  0.00000000000E+00 0. -1.
<mgrwt>
<rscale>  0 0.28655476E+04</rscale>
<asrwt>0</asrwt>
<pdfrwt beam="1">  1        2 0.36459194E+00 0.28655476E+04</pdfrwt>
<pdfrwt beam="2">  1       -2 0.13326665E+00 0.28655476E+04</pdfrwt>
<totfact> 0.14596705E+00</totfact>
</mgrwt>
</event>
<event>
 6    1  0.2325157E-005  0.1691924E+04  0.7818608E-02  0.8765984E-01
          2   -1    0    0  501    0  0.00000000000E+00  0.00000000000E+00  0.11144966670E+04  0.11144966670E+04  0.00000000000E+00 0. -1.
         -2   -1    0    0    0  501 -0.00000000000E+00 -0.00000000000E+00 -0.64212979121E+03  0.64212979121E+03  0.00000000000E+00 0.  1.
         23    2    1    2    0    0  0.80660943750E+03  0.22868705198E+03  0.13733399961E+03  0.85376235962E+03  0.84457011769E+02 0.  0.
         13    1    3    3    0    0  0.49578908735E+03  0.10131514908E+03  0.99595523844E+02  0.51574300474E+03  0.00000000000E+00 0.  1.
        -13    1    3    3    0    0  0.31082035015E+03  0.12737190291E+03  0.37738475768E+02  0.33801935488E+03  0.00000000000E+00 0. -1.
         22    1    1    2    0    0 -0.80660943750E+03 -0.22868705198E+03  0.33503287619E+03  0.90286409860E+03  0.00000000000E+00 0. -1.
<mgrwt>
<rscale>  0 0.16919238E+04</rscale>
<asrwt>0</asrwt>
<pdfrwt beam="1">  1        2 0.17146103E+00 0.16919238E+04</pdfrwt>
<pdfrwt beam="2">  1       -2 0.98789199E-01 0.16919238E+04</pdfrwt>
<totfact> 0.17279467E+01</totfact>
</mgrwt>
</event>
<event>
 6    1  0.2325157E-005  0.2752561E+04  0.7818608E-02  0.8318150E-01
         -2   -1    0    0    0  501 -0.00000000000E+00  0.00000000000E+00  0.15542393077E+04  0.15542393077E+04  0.00000000000E+00 0. -1.
          2   -1    0    0  501    0  0.00000000000E+00 -0.00000000000E+00 -0.12186974150E+04  0.12186974150E+04  0.00000000000E+00 0.  1.
         23    2    1    2    0    0 -0.10055957761E+04 -0.80214234424E+03  0.65666591185E+03  0.14471253330E+04  0.91139477097E+02 0.  0.
         11    1    3    3    0    0 -0.54329043866E+03 -0.37600699226E+03  0.32747630919E+03  0.73741880370E+03  0.00000000000E+00 0. -1.
        -11    1    3    3    0    0 -0.46230533748E+03 -0.42613535198E+03  0.32918960265E+03  0.70970652933E+03  0.00000000000E+00 0.  1.
         22    1    1    2    0    0  0.10055957761E+04  0.80214234424E+03 -0.32112401916E+03  0.13258113897E+04  0.00000000000E+00 0.  1.
<mgrwt>
<rscale>  0 0.27525606E+04</rscale>
<asrwt>0</asrwt>
<pdfrwt beam="1">  1        2 0.18749191E+00 0.27525606E+04</pdfrwt>
<pdfrwt beam="2">  1       -2 0.23911374E+00 0.27525606E+04</pdfrwt>
<totfact> 0.12097045E+00</totfact>
</mgrwt>
</event>
<event>
 6    1  0.2325157E-005  0.1393111E+04  0.7818608E-02  0.8958820E-01
          2   -1    0    0  501    0  0.00000000000E+00  0.00000000000E+00  0.95130679784E+03  0.95130679784E+03  0.00000000000E+00 0.  1.
         -2   -1    0    0    0  501 -0.00000000000E+00 -0.00000000000E+00 -0.51002452992E+03  0.51002452992E+03  0.00000000000E+00 0. -1.
         23    2    1    2    0    0 -0.55909155844E+03  0.40941610575E+03  0.25081711232E+03  0.74266458033E+03  0.91850621595E+02 0.  0.
         13    1    3    3    0    0 -0.18592744855E+03  0.19072398722E+03  0.88137412822E+02  0.28055812047E+03  0.00000000000E+00 0. -1.
        -13    1    3    3    0    0 -0.37316410989E+03  0.21869211853E+03  0.16267969950E+03  0.46210645986E+03  0.00000000000E+00 0.  1.
         22    1    1    2    0    0  0.55909155844E+03 -0.40941610575E+03  0.19046515561E+03  0.71866674743E+03  0.00000000000E+00 0. -1.
<mgrwt>
<rscale>  0 0.13931113E+04</rscale>
<asrwt>0</asrwt>
<pdfrwt beam="1">  1        2 0.14635489E+00 0.13931113E+04</pdfrwt>
<pdfrwt beam="2">  1       -2 0.78465313E-01 0.13931113E+04</pdfrwt>
<totfact> 0.38106445E+01</totfact>
</mgrwt>
</event>
<event>
 6    1  0.2325157E-005  0.2142914E+04  0.7818608E-02  0.8542571E-01
          2   -1    0    0  501    0  0.00000000000E+00  0.00000000000E+00  0.18833786239E+04  0.18833786239E+04  0.00000000000E+00 0.  1.
         -2   -1    0    0    0  501 -0.00000000000E+00 -0.00000000000E+00 -0.60955356179E+03  0.60955356179E+03  0.00000000000E+00 0. -1.
         23    2    1    2    0    0  0.92770705507E+03 -0.28090557773E+03  0.11224691527E+03  0.98005012985E+03  0.91381417191E+02 0.  0.
         11    1    3    3    0    0  0.27141579759E+03 -0.80866593012E+02 -0.88502574410E+01  0.28334478662E+03  0.00000000000E+00 0. -1.
        -11    1    3    3    0    0  0.65629125748E+03 -0.20003898472E+03  0.12109717271E+03  0.69670534324E+03  0.00000000000E+00 0.  1.
         22    1    1    2    0    0 -0.92770705507E+03  0.28090557773E+03  0.11615781468E+04  0.15128820558E+04  0.00000000000E+00 0.  1.
<mgrwt>
<rscale>  0 0.21429140E+04</rscale>
<asrwt>0</asrwt>
<pdfrwt beam="1">  1        2 0.28975056E+00 0.21429140E+04</pdfrwt>
<pdfrwt beam="2">  1       -2 0.93777471E-01 0.21429140E+04</pdfrwt>
<totfact> 0.68422918E+00</totfact>
</mgrwt>
</event>
<event>
 6    1  0.2325157E-005  0.2937979E+04  0.7818608E-02  0.8261666E-01
         -2   -1    0    0    0  501 -0.00000000000E+00  0.00000000000E+00  0.17456520668E+04  0.17456520668E+04  0.00000000000E+00 0. -1.
          2   -1    0    0  501    0  0.00000000000E+00 -0.00000000000E+00 -0.12361743047E+04  0.12361743047E+04  0.00000000000E+00 0.  1.
         23    2    1    2    0    0 -0.14184955530E+04 -0.56196598307E+02 -0.12271702178E+03  0.14278128785E+04  0.91117819850E+02 0.  0.
         11    1    3    3    0    0 -0.11701824249E+04 -0.54191847307E+02 -0.13498917848E+03  0.11791885948E+04  0.00000000000E+00 0. -1.
        -11    1    3    3    0    0 -0.24831312811E+03 -0.20047509994E+01  0.12272156696E+02  0.24862428370E+03  0.00000000000E+00 0.  1.
         22    1    1    2    0    0  0.14184955530E+04  0.56196598307E+02  0.63219478388E+03  0.15540134929E+04  0.00000000000E+00 0.  1.
<mgrwt>
<rscale>  0 0.29379791E+04</rscale>
<asrwt>0</asrwt>
<pdfrwt beam="1">  1        2 0.19018066E+00 0.29379791E+04</pdfrwt>
<pdfrwt beam="2">  1       -2 0.26856186E+00 0.29379791E+04</pdfrwt>
<totfact> 0.76695005E-01</totfact>
</mgrwt>
</event>
<event>
 6    1  0.2325157E-005  0.4655489E+04  0.7818608E-02  0.7883967E-01
          2   -1    0    0  501    0  0.00000000000E+00  0.00000000000E+00  0.26566788678E+04  0.26566788678E+04  0.00000000000E+00 0.  1.
         -2   -1    0    0    0  501 -0.00000000000E+00 -0.00000000000E+00 -0.20395369853E+04  0.20395369853E+04  0.00000000000E+00 0. -1.
         23    2    1    2    0    0 -0.13904912869E+04  0.10137546842E+04  0.18886224926E+04  0.25566300238E+04  0.91091056047E+02 0.  0.
         11    1    3    3    0    0 -0.38844053196E+03  0.33316738896E+03  0.54605348799E+03  0.74837221199E+03  0.00000000000E+00 0.  1.
        -11    1    3    3    0    0 -0.10020507549E+04  0.68058729521E+03  0.13425690047E+04  0.18082578118E+04  0.00000000000E+00 0. -1.
         22    1    1    2    0    0  0.13904912869E+04 -0.10137546842E+04 -0.12714806102E+04  0.21395858292E+04  0.00000000000E+00 0. -1.
<mgrwt>
<rscale>  0 0.46554892E+04</rscale>
<asrwt>0</asrwt>
<pdfrwt beam="1">  1        2 0.40871983E+00 0.46554892E+04</pdfrwt>
<pdfrwt beam="2">  1       -2 0.31377492E+00 0.46554892E+04</pdfrwt>
<totfact> 0.55146158E-02</totfact>
</mgrwt>
</event>
<event>
 6    1  0.2325157E-005  0.2723081E+04  0.7818608E-02  0.8327555E-01
          2   -1    0    0  501    0  0.00000000000E+00  0.00000000000E+00  0.14636074343E+04  0.14636074343E+04  0.00000000000E+00 0.  1.
         -2   -1    0    0    0  501 -0.00000000000E+00 -0.00000000000E+00 -0.12665915934E+04  0.12665915934E+04  0.00000000000E+00 0. -1.
         23    2    1    2    0    0 -0.67381538042E+03  0.62899883855E+03 -0.90414704889E+03  0.12941536191E+04  0.87664119821E+02 0.  0.
         11    1    3    3    0    0 -0.53686165246E+03  0.53264320373E+03 -0.77341528969E+03  0.10817118039E+04  0.00000000000E+00 0. -1.
        -11    1    3    3    0    0 -0.13695372796E+03  0.96355634821E+02 -0.13073175920E+03  0.21244181515E+03  0.00000000000E+00 0.  1.
         22    1    1    2    0    0  0.67381538042E+03 -0.62899883855E+03  0.11011628898E+04  0.14360454086E+04  0.00000000000E+00 0.  1.
<mgrwt>
<rscale>  0 0.27230812E+04</rscale>
<asrwt>0</asrwt>
<pdfrwt beam="1">  1        2 0.22517038E+00 0.27230812E+04</pdfrwt>
<pdfrwt beam="2">  1       -2 0.19486024E+00 0.27230812E+04</pdfrwt>
<totfact> 0.16765694E+00</totfact>
</mgrwt>
</event>
<event>
 6    1  0.2325157E-005  0.1542560E+04  0.7818608E-02  0.8856634E-01
          2   -1    0    0  501    0  0.00000000000E+00  0.00000000000E+00  0.30110700752E+04  0.30110700752E+04  0.00000000000E+00 0.  1.
         -2   -1    0    0    0  501 -0.00000000000E+00 -0.00000000000E+00 -0.19756205427E+03  0.19756205427E+03  0.00000000000E+00 0. -1.
         23    2    1    2    0    0  0.42528852270E+03 -0.50903158645E+03  0.60359444548E+03  0.90131734935E+03  0.89795468039E+02 0.  0.
         13    1    3    3    0    0  0.35716721893E+03 -0.37826729348E+03  0.44300821081E+03  0.68330874606E+03  0.00000000000E+00 0. -1.
        -13    1    3    3    0    0  0.68121303768E+02 -0.13076429298E+03  0.16058623467E+03  0.21800860329E+03  0.00000000000E+00 0.  1.
         22    1    1    2    0    0 -0.42528852270E+03  0.50903158645E+03  0.22099135755E+04  0.23073147801E+04  0.00000000000E+00 0.  1.
<mgrwt>
<rscale>  0 0.15425605E+04</rscale>
<asrwt>0</asrwt>
<pdfrwt beam="1">  1        2 0.46324151E+00 0.15425605E+04</pdfrwt>
<pdfrwt beam="2">  1       -2 0.30394164E-01 0.15425605E+04</pdfrwt>
<totfact> 0.16627832E+01</totfact>
</mgrwt>
</event>
<event>
 6    1  0.2325157E-005  0.2044542E+04  0.7818608E-02  0.8586075E-01
          2   -1    0    0  501    0  0.00000000000E+00  0.00000000000E+00  0.32457906345E+04  0.32457906345E+04  0.00000000000E+00 0.  1.
         -2   -1    0    0    0  501 -0.00000000000E+00 -0.00000000000E+00 -0.32196700623E+03  0.32196700623E+03  0.00000000000E+00 0. -1.
         23    2    1    2    0    0 -0.98860376879E+03  0.22673433411E+03  0.12721783988E+04  0.16295425253E+04  0.90692299779E+02 0.  0.
         11    1    3    3    0    0 -0.81193762053E+03  0.15395247886E+03  0.10585147262E+04  0.13429063597E+04  0.00000000000E+00 0. -1.
        -11    1    3    3    0    0 -0.17666614826E+03  0.72781855249E+02  0.21366367262E+03  0.28663616553E+03  0.00000000000E+00 0.  1.
         22    1    1    2    0    0  0.98860376879E+03 -0.22673433411E+03  0.16516452294E+04  0.19382151155E+04  0.00000000000E+00 0.  1.
<mgrwt>
<rscale>  0 0.20445415E+04</rscale>
<asrwt>0</asrwt>
<pdfrwt beam="1">  1        2 0.49935238E+00 0.20445415E+04</pdfrwt>
<pdfrwt beam="2">  1       -2 0.49533388E-01 0.20445415E+04</pdfrwt>
<totfact> 0.43357190E+00</totfact>
</mgrwt>
</event>
<event>
 6    1  0.2325157E-005  0.2915703E+03  0.7818608E-02  0.1089532E+00
         -2   -1    0    0    0  501 -0.00000000000E+00  0.00000000000E+00  0.81205201895E+02  0.81205201895E+02  0.00000000000E+00 0. -1.
          2   -1    0    0  501    0  0.00000000000E+00 -0.00000000000E+00 -0.26172341652E+03  0.26172341652E+03  0.00000000000E+00 0.  1.
         23    2    1    2    0    0 -0.43092929779E+02 -0.12429184714E+03 -0.11920169202E+03  0.19779013349E+03  0.87214847704E+02 0.  0.
         13    1    3    3    0    0  0.20809042407E+02 -0.71701261705E+02 -0.49391657778E+02  0.89518841782E+02  0.00000000000E+00 0. -1.
        -13    1    3    3    0    0 -0.63901972186E+02 -0.52590585439E+02 -0.69810034243E+02  0.10827129170E+03  0.00000000000E+00 0.  1.
         22    1    1    2    0    0  0.43092929779E+02  0.12429184714E+03 -0.61316522603E+02  0.14513848493E+03  0.00000000000E+00 0.  1.
<mgrwt>
<rscale>  0 0.29157025E+03</rscale>
<asrwt>0</asrwt>
<pdfrwt beam="1">  1        2 0.40265141E-01 0.29157025E+03</pdfrwt>
<pdfrwt beam="2">  1       -2 0.12493108E-01 0.29157025E+03</pdfrwt>
<totfact> 0.58482322E+03</totfact>
</mgrwt>
</event>
<event>
 6    1  0.2325157E-005  0.4696127E+04  0.7818608E-02  0.7877172E-01
         -2   -1    0    0    0  501 -0.00000000000E+00  0.00000000000E+00  0.21735603170E+04  0.21735603170E+04  0.00000000000E+00 0. -1.
          2   -1    0    0  501    0  0.00000000000E+00 -0.00000000000E+00 -0.25365760546E+04  0.25365760546E+04  0.00000000000E+00 0.  1.
         23    2    1    2    0    0 -0.39828179260E+03  0.22930966073E+04 -0.48626604958E+03  0.23794474012E+04  0.91623290753E+02 0.  0.
         11    1    3    3    0    0 -0.68702589747E+02  0.58849713267E+03 -0.14667057717E+03  0.61037789868E+03  0.00000000000E+00 0.  1.
        -11    1    3    3    0    0 -0.32957920285E+03  0.17045994747E+04 -0.33959547240E+03  0.17690695025E+04  0.00000000000E+00 0. -1.
         22    1    1    2    0    0  0.39828179260E+03 -0.22930966073E+04  0.12325031196E+03  0.23306889703E+04  0.00000000000E+00 0. -1.
<mgrwt>
<rscale>  0 0.46961265E+04</rscale>
<asrwt>0</asrwt>
<pdfrwt beam="1">  1        2 0.39024247E+00 0.46961265E+04</pdfrwt>
<pdfrwt beam="2">  1       -2 0.33439390E+00 0.46961265E+04</pdfrwt>
<totfact> 0.48185673E-02</totfact>
</mgrwt>
</event>
<event>
 6    1  0.2325157E-005  0.2110800E+04  0.7818608E-02  0.8556501E-01
          2   -1    0    0  501    0  0.00000000000E+00  0.00000000000E+00  0.28380099450E+04  0.28380099450E+04  0.00000000000E+00 0.  1.
         -2   -1    0    0    0  501 -0.00000000000E+00 -0.00000000000E+00 -0.39248263122E+03  0.39248263122E+03  0.00000000000E+00 0. -1.
         23    2    1    2    0    0 -0.10072772977E+04  0.25261634235E+03  0.14948586282E+04  0.18225886304E+04  0.93831906038E+02 0.  0.
         13    1    3    3    0    0 -0.35315079837E+03  0.61365413217E+02  0.57931155122E+03  0.68123643011E+03  0.00000000000E+00 0. -1.
        -13    1    3    3    0    0 -0.65412649931E+03  0.19125092913E+03  0.91554707698E+03  0.11413522003E+04  0.00000000000E+00 0.  1.
         22    1    1    2    0    0  0.10072772977E+04 -0.25261634235E+03  0.95066868557E+03  0.14079039458E+04  0.00000000000E+00 0.  1.
<mgrwt>
<rscale>  0 0.21108004E+04</rscale>
<asrwt>0</asrwt>
<pdfrwt beam="1">  1        2 0.43661690E+00 0.21108004E+04</pdfrwt>
<pdfrwt beam="2">  1       -2 0.60381945E-01 0.21108004E+04</pdfrwt>
<totfact> 0.51647941E+00</totfact>
</mgrwt>
</event>
<event>
 6    1  0.2325157E-005  0.2970529E+04  0.7818608E-02  0.8252197E-01
          2   -1    0    0  501    0  0.00000000000E+00  0.00000000000E+00  0.31883375668E+04  0.31883375668E+04  0.00000000000E+00 0.  1.
         -2   -1    0    0    0  501 -0.00000000000E+00 -0.00000000000E+00 -0.69189997017E+03  0.69189997017E+03  0.00000000000E+00 0. -1.
         23    2    1    2    0    0 -0.72569118303E+02 -0.13223980209E+03  0.31776429108E+04  0.31825310641E+04  0.91300949257E+02 0.  0.
         11    1    3    3    0    0 -0.90354763796E+02 -0.86840214422E+02  0.20420399681E+04  0.20458818239E+04  0.00000000000E+00 0. -1.
        -11    1    3    3    0    0  0.17785645492E+02 -0.45399587665E+02  0.11356029427E+04  0.11366492402E+04  0.00000000000E+00 0.  1.
         22    1    1    2    0    0  0.72569118303E+02  0.13223980209E+03 -0.68120531418E+03  0.69770647285E+03  0.00000000000E+00 0. -1.
<mgrwt>
<rscale>  0 0.29705290E+04</rscale>
<asrwt>0</asrwt>
<pdfrwt beam="1">  1        2 0.49051346E+00 0.29705290E+04</pdfrwt>
<pdfrwt beam="2">  1       -2 0.10644615E+00 0.29705290E+04</pdfrwt>
<totfact> 0.80491783E-01</totfact>
</mgrwt>
</event>
<event>
 6    1  0.2325157E-005  0.5136265E+04  0.7818608E-02  0.7807824E-01
          2   -1    0    0  501    0  0.00000000000E+00  0.00000000000E+00  0.46802099484E+04  0.46802099484E+04  0.00000000000E+00 0. -1.
         -2   -1    0    0    0  501 -0.00000000000E+00 -0.00000000000E+00 -0.14091899511E+04  0.14091899511E+04  0.00000000000E+00 0.  1.
         23    2    1    2    0    0 -0.12884305419E+04 -0.20254096038E+04  0.55670955948E+03  0.24658907609E+04  0.91402333080E+02 0.  0.
         13    1    3    3    0    0 -0.67496725828E+03 -0.10384091621E+04  0.33239901065E+03  0.12823273724E+04  0.00000000000E+00 0. -1.
        -13    1    3    3    0    0 -0.61346328360E+03 -0.98700044164E+03  0.22431054882E+03  0.11835633884E+04  0.00000000000E+00 0.  1.
         22    1    1    2    0    0  0.12884305419E+04  0.20254096038E+04  0.27143104378E+04  0.36235091386E+04  0.00000000000E+00 0. -1.
<mgrwt>
<rscale>  0 0.51362651E+04</rscale>
<asrwt>0</asrwt>
<pdfrwt beam="1">  1        2 0.72003230E+00 0.51362651E+04</pdfrwt>
<pdfrwt beam="2">  1       -2 0.21679846E+00 0.51362651E+04</pdfrwt>
<totfact> 0.59355984E-03</totfact>
</mgrwt>
</event>
<event>
 6    1  0.2325157E-005  0.1040602E+04  0.7818608E-02  0.9265101E-01
          2   -1    0    0  501    0  0.00000000000E+00  0.00000000000E+00  0.66558294418E+03  0.66558294418E+03  0.00000000000E+00 0.  1.
         -2   -1    0    0    0  501 -0.00000000000E+00 -0.00000000000E+00 -0.40673059294E+03  0.40673059294E+03  0.00000000000E+00 0. -1.
         23    2    1    2    0    0 -0.25237697772E+02 -0.49864530427E+03  0.26550530607E+03  0.57298564617E+03  0.92387241036E+02 0.  0.
         11    1    3    3    0    0 -0.10000462001E+02 -0.11228870540E+03  0.18699127700E+02  0.11427344388E+03  0.00000000000E+00 0. -1.
        -11    1    3    3    0    0 -0.15237235771E+02 -0.38635659888E+03  0.24680617837E+03  0.45871220229E+03  0.00000000000E+00 0.  1.
         22    1    1    2    0    0  0.25237697772E+02  0.49864530427E+03 -0.66529548289E+01  0.49932789094E+03  0.00000000000E+00 0. -1.
<mgrwt>
<rscale>  0 0.10406016E+04</rscale>
<asrwt>0</asrwt>
<pdfrwt beam="1">  1        2 0.10239738E+00 0.10406016E+04</pdfrwt>
<pdfrwt beam="2">  1       -2 0.62573937E-01 0.10406016E+04</pdfrwt>
<totfact> 0.10307780E+02</totfact>
</mgrwt>
</event>
<event>
 6    1  0.2325157E-005  0.2990125E+04  0.7818608E-02  0.8246556E-01
          2   -1    0    0  501    0  0.00000000000E+00  0.00000000000E+00  0.21425952235E+04  0.21425952235E+04  0.00000000000E+00 0.  1.
         -2   -1    0    0    0  501 -0.00000000000E+00 -0.00000000000E+00 -0.10432262696E+04  0.10432262696E+04  0.00000000000E+00 0. -1.
         23    2    1    2    0    0 -0.55962068187E+03  0.13835219988E+04  0.59845354306E+03  0.16115836847E+04  0.10838312048E+03 0.  0.
         13    1    3    3    0    0 -0.28329167824E+03  0.68697929621E+03  0.35609272479E+03  0.82401259519E+03  0.00000000000E+00 0. -1.
        -13    1    3    3    0    0 -0.27632900363E+03  0.69654270259E+03  0.24236081826E+03  0.78757108950E+03  0.00000000000E+00 0.  1.
         22    1    1    2    0    0  0.55962068187E+03 -0.13835219988E+04  0.50091541077E+03  0.15742378084E+04  0.00000000000E+00 0.  1.
<mgrwt>
<rscale>  0 0.29901248E+04</rscale>
<asrwt>0</asrwt>
<pdfrwt beam="1">  1        2 0.32963003E+00 0.29901248E+04</pdfrwt>
<pdfrwt beam="2">  1       -2 0.16049635E+00 0.29901248E+04</pdfrwt>
<totfact> 0.11901652E+00</totfact>
</mgrwt>
</event>
<event>
 6    1  0.2325157E-005  0.2840488E+04  0.7818608E-02  0.8290808E-01
         -4   -1    0    0    0  501 -0.00000000000E+00  0.00000000000E+00  0.14483925012E+04  0.14483925012E+04  0.00000000000E+00 0. -1.
          4   -1    0    0  501    0  0.00000000000E+00 -0.00000000000E+00 -0.13926425190E+04  0.13926425190E+04  0.00000000000E+00 0.  1.
         23    2    1    2    0    0  0.35778090823E+03  0.90869651572E+03 -0.10015058310E+04  0.14017552036E+04  0.90372481621E+02 0.  0.
         11    1    3    3    0    0  0.13608772110E+03  0.46283547157E+03 -0.47273899104E+03  0.67543963107E+03  0.00000000000E+00 0.  1.
        -11    1    3    3    0    0  0.22169318713E+03  0.44586104415E+03 -0.52876683997E+03  0.72631557258E+03  0.00000000000E+00 0. -1.
         22    1    1    2    0    0 -0.35778090823E+03 -0.90869651572E+03  0.10572558132E+04  0.14392798166E+04  0.00000000000E+00 0. -1.
<mgrwt>
<rscale>  0 0.28404880E+04</rscale>
<asrwt>0</asrwt>
<pdfrwt beam="1">  1        4 0.21425270E+00 0.28404880E+04</pdfrwt>
<pdfrwt beam="2">  1       -4 0.22282962E+00 0.28404880E+04</pdfrwt>
<totfact> 0.17134958E-02</totfact>
</mgrwt>
</event>
<event>
 6    1  0.2325157E-005  0.4512775E+04  0.7818608E-02  0.7908404E-01
         -2   -1    0    0    0  501 -0.00000000000E+00  0.00000000000E+00  0.21414331878E+04  0.21414331878E+04  0.00000000000E+00 0. -1.
          2   -1    0    0  501    0  0.00000000000E+00 -0.00000000000E+00 -0.23775124238E+04  0.23775124238E+04  0.00000000000E+00 0.  1.
         23    2    1    2    0    0  0.21360005455E+04 -0.31384339430E+03  0.53562350397E+03  0.22262351795E+04  0.90744310122E+02 0.  0.
         11    1    3    3    0    0  0.28788267457E+03 -0.38861468510E+02  0.40668798123E+02  0.29332677886E+03  0.00000000000E+00 0.  1.
        -11    1    3    3    0    0  0.18481178709E+04 -0.27498192579E+03  0.49495470585E+03  0.19329084006E+04  0.00000000000E+00 0. -1.
         22    1    1    2    0    0 -0.21360005455E+04  0.31384339430E+03 -0.77170274003E+03  0.22927104321E+04  0.00000000000E+00 0.  1.
<mgrwt>
<rscale>  0 0.45127748E+04</rscale>
<asrwt>0</asrwt>
<pdfrwt beam="1">  1        2 0.36577114E+00 0.45127748E+04</pdfrwt>
<pdfrwt beam="2">  1       -2 0.32945126E+00 0.45127748E+04</pdfrwt>
<totfact> 0.64854447E-02</totfact>
</mgrwt>
</event>
<event>
 6    1  0.2325157E-005  0.1734027E+04  0.7818608E-02  0.8742192E-01
         -2   -1    0    0    0  501 -0.00000000000E+00  0.00000000000E+00  0.69596299234E+03  0.69596299234E+03  0.00000000000E+00 0. -1.
          2   -1    0    0  501    0  0.00000000000E+00 -0.00000000000E+00 -0.10801038335E+04  0.10801038335E+04  0.00000000000E+00 0.  1.
         23    2    1    2    0    0  0.27725920916E+03  0.79861157917E+03 -0.73992589914E+01  0.85054678652E+03  0.93391453404E+02 0.  0.
         13    1    3    3    0    0  0.18454159628E+03  0.59983455548E+03  0.28807469595E+02  0.62824116787E+03  0.00000000000E+00 0. -1.
        -13    1    3    3    0    0  0.92717612878E+02  0.19877702369E+03 -0.36206728586E+02  0.22230561865E+03  0.00000000000E+00 0.  1.
         22    1    1    2    0    0 -0.27725920916E+03 -0.79861157917E+03 -0.37674158216E+03  0.92552003932E+03  0.00000000000E+00 0.  1.
<mgrwt>
<rscale>  0 0.17340269E+04</rscale>
<asrwt>0</asrwt>
<pdfrwt beam="1">  1        2 0.16616982E+00 0.17340269E+04</pdfrwt>
<pdfrwt beam="2">  1       -2 0.10707123E+00 0.17340269E+04</pdfrwt>
<totfact> 0.14920379E+01</totfact>
</mgrwt>
</event>
<event>
 6    1  0.2325157E-005  0.2648672E+04  0.7818608E-02  0.8351854E-01
         -2   -1    0    0    0  501 -0.00000000000E+00  0.00000000000E+00  0.12935889517E+04  0.12935889517E+04  0.00000000000E+00 0. -1.
          2   -1    0    0  501    0  0.00000000000E+00 -0.00000000000E+00 -0.13558143039E+04  0.13558143039E+04  0.00000000000E+00 0.  1.
         23    2    1    2    0    0 -0.49635664765E+03  0.94693639874E+03  0.74797982950E+03  0.13079522124E+04  0.90590836075E+02 0.  0.
         13    1    3    3    0    0 -0.19249538273E+03  0.37057138797E+03  0.23887477656E+03  0.48108085062E+03  0.00000000000E+00 0. -1.
        -13    1    3    3    0    0 -0.30386126493E+03  0.57636501077E+03  0.50910505294E+03  0.82687136175E+03  0.00000000000E+00 0.  1.
         22    1    1    2    0    0  0.49635664765E+03 -0.94693639874E+03 -0.81020518170E+03  0.13414510432E+04  0.00000000000E+00 0.  1.
<mgrwt>
<rscale>  0 0.26486724E+04</rscale>
<asrwt>0</asrwt>
<pdfrwt beam="1">  1        2 0.20858682E+00 0.26486724E+04</pdfrwt>
<pdfrwt beam="2">  1       -2 0.19901368E+00 0.26486724E+04</pdfrwt>
<totfact> 0.18249736E+00</totfact>
</mgrwt>
</event>
<event>
 6    1  0.2325157E-005  0.2125731E+04  0.7818608E-02  0.8549992E-01
          2   -1    0    0  501    0  0.00000000000E+00  0.00000000000E+00  0.25740980622E+04  0.25740980622E+04  0.00000000000E+00 0.  1.
         -2   -1    0    0    0  501 -0.00000000000E+00 -0.00000000000E+00 -0.43886578314E+03  0.43886578314E+03  0.00000000000E+00 0. -1.
         23    2    1    2    0    0 -0.53357057254E+03  0.51895566131E+03 -0.21001258801E+01  0.74973554410E+03  0.89924642193E+02 0.  0.
         11    1    3    3    0    0 -0.47111980379E+03  0.49115766314E+03 -0.11863042586E+02  0.68068381159E+03  0.00000000000E+00 0.  1.
        -11    1    3    3    0    0 -0.62450768754E+02  0.27797998168E+02  0.97629167057E+01  0.69051732510E+02  0.00000000000E+00 0. -1.
         22    1    1    2    0    0  0.53357057254E+03 -0.51895566131E+03  0.21373324049E+04  0.22632283012E+04  0.00000000000E+00 0.  1.
<mgrwt>
<rscale>  0 0.21257315E+04</rscale>
<asrwt>0</asrwt>
<pdfrwt beam="1">  1        2 0.39601508E+00 0.21257315E+04</pdfrwt>
<pdfrwt beam="2">  1       -2 0.67517814E-01 0.21257315E+04</pdfrwt>
<totfact> 0.58306767E+00</totfact>
</mgrwt>
</event>
<event>
 6    1  0.2325157E-005  0.2774064E+04  0.7818608E-02  0.8311366E-01
         -2   -1    0    0    0  501 -0.00000000000E+00  0.00000000000E+00  0.15846030505E+04  0.15846030505E+04  0.00000000000E+00 0. -1.
          2   -1    0    0  501    0  0.00000000000E+00 -0.00000000000E+00 -0.12140943317E+04  0.12140943317E+04  0.00000000000E+00 0.  1.
         23    2    1    2    0    0  0.89056205283E+03 -0.92913204580E+03  0.70381505880E+03  0.14692312320E+04  0.83052077493E+02 0.  0.
         13    1    3    3    0    0  0.72196725828E+03 -0.75572790907E+03  0.53368973335E+03  0.11735357370E+04  0.00000000000E+00 0. -1.
        -13    1    3    3    0    0  0.16859479455E+03 -0.17340413673E+03  0.17012532545E+03  0.29569549497E+03  0.00000000000E+00 0.  1.
         22    1    1    2    0    0 -0.89056205283E+03  0.92913204580E+03 -0.33330633998E+03  0.13294661503E+04  0.00000000000E+00 0.  1.
<mgrwt>
<rscale>  0 0.27740639E+04</rscale>
<asrwt>0</asrwt>
<pdfrwt beam="1">  1        2 0.18678374E+00 0.27740639E+04</pdfrwt>
<pdfrwt beam="2">  1       -2 0.24378509E+00 0.27740639E+04</pdfrwt>
<totfact> 0.11369832E+00</totfact>
</mgrwt>
</event>
<event>
 6    1  0.2325157E-005  0.2475951E+04  0.7818608E-02  0.8411603E-01
         -2   -1    0    0    0  501 -0.00000000000E+00  0.00000000000E+00  0.25632228595E+04  0.25632228595E+04  0.00000000000E+00 0. -1.
          2   -1    0    0  501    0  0.00000000000E+00 -0.00000000000E+00 -0.59791272118E+03  0.59791272118E+03  0.00000000000E+00 0.  1.
         23    2    1    2    0    0  0.75100534139E+03  0.57195472971E+03 -0.35233213923E+02  0.94905173512E+03  0.91195290098E+02 0.  0.
         11    1    3    3    0    0  0.22131212100E+03  0.22244267290E+03 -0.10858883040E+02  0.31397087917E+03  0.00000000000E+00 0. -1.
        -11    1    3    3    0    0  0.52969322039E+03  0.34951205681E+03 -0.24374330884E+02  0.63508085594E+03  0.00000000000E+00 0.  1.
         22    1    1    2    0    0 -0.75100534139E+03 -0.57195472971E+03  0.20005433523E+04  0.22120838456E+04  0.00000000000E+00 0. -1.
<mgrwt>
<rscale>  0 0.24759512E+04</rscale>
<asrwt>0</asrwt>
<pdfrwt beam="1">  1        2 0.91986574E-01 0.24759512E+04</pdfrwt>
<pdfrwt beam="2">  1       -2 0.39434197E+00 0.24759512E+04</pdfrwt>
<totfact> 0.35987415E-01</totfact>
</mgrwt>
</event>
<event>
 6    1  0.2325157E-005  0.2950650E+04  0.7818608E-02  0.8257965E-01
          2   -1    0    0  501    0  0.00000000000E+00  0.00000000000E+00  0.33571509428E+04  0.33571509428E+04  0.00000000000E+00 0.  1.
         -2   -1    0    0    0  501 -0.00000000000E+00 -0.00000000000E+00 -0.64834273444E+03  0.64834273444E+03  0.00000000000E+00 0. -1.
         23    2    1    2    0    0 -0.11662862299E+04 -0.90110609670E+03  0.13821619666E+04  0.20225146006E+04  0.89318755387E+02 0.  0.
         13    1    3    3    0    0 -0.84678306507E+03 -0.70054645857E+03  0.10107503942E+04  0.14931253327E+04  0.00000000000E+00 0. -1.
        -13    1    3    3    0    0 -0.31950316486E+03 -0.20055963814E+03  0.37141157244E+03  0.52938926788E+03  0.00000000000E+00 0.  1.
         22    1    1    2    0    0  0.11662862299E+04  0.90110609670E+03  0.13266462418E+04  0.19829790767E+04  0.00000000000E+00 0. -1.
<mgrwt>
<rscale>  0 0.29506504E+04</rscale>
<asrwt>0</asrwt>
<pdfrwt beam="1">  1        2 0.51648475E+00 0.29506504E+04</pdfrwt>
<pdfrwt beam="2">  1       -2 0.99745038E-01 0.29506504E+04</pdfrwt>
<totfact> 0.72774863E-01</totfact>
</mgrwt>
</event>
<event>
 6    1  0.2325157E-005  0.2122803E+04  0.7818608E-02  0.8551264E-01
         -2   -1    0    0    0  501 -0.00000000000E+00  0.00000000000E+00  0.97502017507E+03  0.97502017507E+03  0.00000000000E+00 0. -1.
          2   -1    0    0  501    0  0.00000000000E+00 -0.00000000000E+00 -0.11554360905E+04  0.11554360905E+04  0.00000000000E+00 0.  1.
         23    2    1    2    0    0 -0.72689340717E+03  0.35583473953E+03  0.59576202242E+03  0.10090979025E+04  0.91399136731E+02 0.  0.
         13    1    3    3    0    0 -0.31736118969E+03  0.16208523081E+03  0.20701572252E+03  0.41212286535E+03  0.00000000000E+00 0.  1.
        -13    1    3    3    0    0 -0.40953221748E+03  0.19374950871E+03  0.38874629989E+03  0.59697503714E+03  0.00000000000E+00 0. -1.
         22    1    1    2    0    0  0.72689340717E+03 -0.35583473953E+03 -0.77617793781E+03  0.11213583631E+04  0.00000000000E+00 0.  1.
<mgrwt>
<rscale>  0 0.21228033E+04</rscale>
<asrwt>0</asrwt>
<pdfrwt beam="1">  1        2 0.17775940E+00 0.21228033E+04</pdfrwt>
<pdfrwt beam="2">  1       -2 0.15000310E+00 0.21228033E+04</pdfrwt>
<totfact> 0.55529474E+00</totfact>
</mgrwt>
</event>
<event>
 6    1  0.2736475E-005  0.2758755E+04  0.7818608E-02  0.8316189E-01
         -2   -1    0    0    0  501 -0.00000000000E+00  0.00000000000E+00  0.14346728713E+04  0.14346728713E+04  0.00000000000E+00 0. -1.
          2   -1    0    0  501    0  0.00000000000E+00 -0.00000000000E+00 -0.13262129795E+04  0.13262129795E+04  0.00000000000E+00 0.  1.
         23    2    1    2    0    0  0.10783862792E+04  0.62523718434E+02  0.91021463916E+03  0.14156584137E+04  0.93658274441E+02 0.  0.
         11    1    3    3    0    0  0.74149542855E+03  0.72246491651E+01  0.65530940438E+03  0.98959490782E+03  0.00000000000E+00 0. -1.
        -11    1    3    3    0    0  0.33689085065E+03  0.55299069269E+02  0.25490523478E+03  0.42606350586E+03  0.00000000000E+00 0.  1.
         22    1    1    2    0    0 -0.10783862792E+04 -0.62523718434E+02 -0.80175474737E+03  0.13452274371E+04  0.00000000000E+00 0.  1.
<mgrwt>
<rscale>  0 0.27587546E+04</rscale>
<asrwt>0</asrwt>
<pdfrwt beam="1">  1        2 0.20403277E+00 0.27587546E+04</pdfrwt>
<pdfrwt beam="2">  1       -2 0.22071890E+00 0.27587546E+04</pdfrwt>
<totfact> 0.13629443E+00</totfact>
</mgrwt>
</event>
<event>
 6    1  0.2325157E-005  0.6028311E+03  0.7818608E-02  0.9899550E-01
          2   -1    0    0  501    0  0.00000000000E+00  0.00000000000E+00  0.22837160052E+04  0.22837160052E+04  0.00000000000E+00 0.  1.
         -2   -1    0    0    0  501 -0.00000000000E+00 -0.00000000000E+00 -0.39782237763E+02  0.39782237763E+02  0.00000000000E+00 0. -1.
         23    2    1    2    0    0  0.22232237335E+02  0.25465949208E+03  0.17120806686E+04  0.17334021084E+04  0.90093974979E+02 0.  0.
         11    1    3    3    0    0 -0.16271145727E+02  0.10871044854E+03  0.96389247976E+03  0.97013989937E+03  0.00000000000E+00 0.  1.
        -11    1    3    3    0    0  0.38503383062E+02  0.14594904355E+03  0.74818818882E+03  0.76326220901E+03  0.00000000000E+00 0. -1.
         22    1    1    2    0    0 -0.22232237335E+02 -0.25465949208E+03  0.53185309886E+03  0.59009613458E+03  0.00000000000E+00 0. -1.
<mgrwt>
<rscale>  0 0.60283110E+03</rscale>
<asrwt>0</asrwt>
<pdfrwt beam="1">  1        2 0.35134082E+00 0.60283110E+03</pdfrwt>
<pdfrwt beam="2">  1       -2 0.61203460E-02 0.60283110E+03</pdfrwt>
<totfact> 0.72673619E+02</totfact>
</mgrwt>
</event>
<event>
 6    1  0.2325157E-005  0.2588044E+04  0.7818608E-02  0.8372274E-01
          2   -1    0    0  501    0  0.00000000000E+00  0.00000000000E+00  0.20638893735E+04  0.20638893735E+04  0.00000000000E+00 0.  1.
         -2   -1    0    0    0  501 -0.00000000000E+00 -0.00000000000E+00 -0.81132909333E+03  0.81132909333E+03  0.00000000000E+00 0. -1.
         23    2    1    2    0    0 -0.10138009836E+03  0.12296840098E+04  0.19899291759E+03  0.12527497072E+04  0.85924149148E+02 0.  0.
         13    1    3    3    0    0 -0.99226938914E+02  0.83081247136E+03  0.16101176636E+03  0.85206815272E+03  0.00000000000E+00 0. -1.
        -13    1    3    3    0    0 -0.21531594438E+01  0.39887153846E+03  0.37981151223E+02  0.40068155452E+03  0.00000000000E+00 0.  1.
         22    1    1    2    0    0  0.10138009836E+03 -0.12296840098E+04  0.10535673626E+04  0.16224687596E+04  0.00000000000E+00 0. -1.
<mgrwt>
<rscale>  0 0.25880444E+04</rscale>
<asrwt>0</asrwt>
<pdfrwt beam="1">  1        2 0.31752144E+00 0.25880444E+04</pdfrwt>
<pdfrwt beam="2">  1       -2 0.12481986E+00 0.25880444E+04</pdfrwt>
<totfact> 0.26226556E+00</totfact>
</mgrwt>
</event>
<event>
 6    1  0.2325157E-005  0.4076832E+04  0.7818608E-02  0.7989224E-01
          2   -1    0    0  501    0  0.00000000000E+00  0.00000000000E+00  0.29805616913E+04  0.29805616913E+04  0.00000000000E+00 0.  1.
         -2   -1    0    0    0  501 -0.00000000000E+00 -0.00000000000E+00 -0.13940792729E+04  0.13940792729E+04  0.00000000000E+00 0. -1.
         23    2    1    2    0    0 -0.15630137702E+04  0.66389351398E+03  0.20016267748E+04  0.26264672085E+04  0.89741897431E+02 0.  0.
         11    1    3    3    0    0 -0.58522141229E+03  0.20721498343E+03  0.76270591418E+03  0.98343401522E+03  0.00000000000E+00 0.  1.
        -11    1    3    3    0    0 -0.97779235787E+03  0.45667853055E+03  0.12389208606E+04  0.16430331933E+04  0.00000000000E+00 0. -1.
         22    1    1    2    0    0  0.15630137702E+04 -0.66389351398E+03 -0.41514435634E+03  0.17481737557E+04  0.00000000000E+00 0. -1.
<mgrwt>
<rscale>  0 0.40768317E+04</rscale>
<asrwt>0</asrwt>
<pdfrwt beam="1">  1        2 0.45854795E+00 0.40768317E+04</pdfrwt>
<pdfrwt beam="2">  1       -2 0.21447373E+00 0.40768317E+04</pdfrwt>
<totfact> 0.15038313E-01</totfact>
</mgrwt>
</event>
<event>
 6    1  0.2325157E-005  0.2473713E+04  0.7818608E-02  0.8412411E-01
          2   -1    0    0  501    0  0.00000000000E+00  0.00000000000E+00  0.27872781086E+04  0.27872781086E+04  0.00000000000E+00 0.  1.
         -2   -1    0    0    0  501 -0.00000000000E+00 -0.00000000000E+00 -0.54885576135E+03  0.54885576135E+03  0.00000000000E+00 0. -1.
         23    2    1    2    0    0 -0.11689782487E+04  0.48613157930E+02  0.16547417734E+04  0.20286338136E+04  0.91167032345E+02 0.  0.
         13    1    3    3    0    0 -0.35229246612E+03  0.56430289322E+02  0.49659132162E+03  0.61147142202E+03  0.00000000000E+00 0. -1.
        -13    1    3    3    0    0 -0.81668578262E+03 -0.78171313919E+01  0.11581504518E+04  0.14171623916E+04  0.00000000000E+00 0.  1.
         22    1    1    2    0    0  0.11689782487E+04 -0.48613157930E+02  0.58368057387E+03  0.13075000564E+04  0.00000000000E+00 0. -1.
<mgrwt>
<rscale>  0 0.24737127E+04</rscale>
<asrwt>0</asrwt>
<pdfrwt beam="1">  1        2 0.42881201E+00 0.24737127E+04</pdfrwt>
<pdfrwt beam="2">  1       -2 0.84439350E-01 0.24737127E+04</pdfrwt>
<totfact> 0.25733652E+00</totfact>
</mgrwt>
</event>
<event>
 6    1  0.2325157E-005  0.1616200E+04  0.7818608E-02  0.8810657E-01
         -2   -1    0    0    0  501 -0.00000000000E+00  0.00000000000E+00  0.43321996420E+03  0.43321996420E+03  0.00000000000E+00 0. -1.
          2   -1    0    0  501    0  0.00000000000E+00 -0.00000000000E+00 -0.15073774552E+04  0.15073774552E+04  0.00000000000E+00 0.  1.
         23    2    1    2    0    0 -0.24777667071E+03 -0.66887514178E+03 -0.89497836823E+02  0.72472659221E+03  0.91823400135E+02 0.  0.
         11    1    3    3    0    0 -0.13382715329E+03 -0.23379176927E+03 -0.37057785090E+02  0.27192200678E+03  0.00000000000E+00 0. -1.
        -11    1    3    3    0    0 -0.11394951743E+03 -0.43508337252E+03 -0.52440051733E+02  0.45280458543E+03  0.00000000000E+00 0.  1.
         22    1    1    2    0    0  0.24777667071E+03  0.66887514178E+03 -0.98465965414E+03  0.12158708272E+04  0.00000000000E+00 0.  1.
<mgrwt>
<rscale>  0 0.16162005E+04</rscale>
<asrwt>0</asrwt>
<pdfrwt beam="1">  1        2 0.23190422E+00 0.16162005E+04</pdfrwt>
<pdfrwt beam="2">  1       -2 0.66649225E-01 0.16162005E+04</pdfrwt>
<totfact> 0.24901992E+01</totfact>
</mgrwt>
</event>
<event>
 6    1  0.2325157E-005  0.3957838E+04  0.7818608E-02  0.8013106E-01
         -2   -1    0    0    0  501 -0.00000000000E+00  0.00000000000E+00  0.20146888941E+04  0.20146888941E+04  0.00000000000E+00 0. -1.
          2   -1    0    0  501    0  0.00000000000E+00 -0.00000000000E+00 -0.19437841667E+04  0.19437841667E+04  0.00000000000E+00 0.  1.
         23    2    1    2    0    0 -0.19716957035E+03  0.18732563947E+04 -0.56788422800E+03  0.19694992829E+04  0.92030261550E+02 0.  0.
         13    1    3    3    0    0 -0.46800001568E+02  0.81504477487E+03 -0.27100874078E+03  0.86019414249E+03  0.00000000000E+00 0. -1.
        -13    1    3    3    0    0 -0.15036956878E+03  0.10582116198E+04 -0.29687548722E+03  0.11093051404E+04  0.00000000000E+00 0.  1.
         22    1    1    2    0    0  0.19716957035E+03 -0.18732563947E+04  0.63878895542E+03  0.19889737779E+04  0.00000000000E+00 0.  1.
<mgrwt>
<rscale>  0 0.39578380E+04</rscale>
<asrwt>0</asrwt>
<pdfrwt beam="1">  1        2 0.29904372E+00 0.39578380E+04</pdfrwt>
<pdfrwt beam="2">  1       -2 0.30995214E+00 0.39578380E+04</pdfrwt>
<totfact> 0.15693678E-01</totfact>
</mgrwt>
</event>
<event>
 6    1  0.2325157E-005  0.7775123E+03  0.7818608E-02  0.9593150E-01
          2   -1    0    0  501    0  0.00000000000E+00  0.00000000000E+00  0.12343639509E+04  0.12343639509E+04  0.00000000000E+00 0.  1.
         -2   -1    0    0    0  501 -0.00000000000E+00 -0.00000000000E+00 -0.12243662545E+03  0.12243662545E+03  0.00000000000E+00 0. -1.
         23    2    1    2    0    0  0.19109942169E+03 -0.28424374552E+03  0.86407430302E+03  0.93401857985E+03  0.91939167557E+02 0.  0.
         13    1    3    3    0    0  0.82185747053E+02 -0.14457422559E+03  0.30279828774E+03  0.34546057196E+03  0.00000000000E+00 0.  1.
        -13    1    3    3    0    0  0.10891367464E+03 -0.13966951993E+03  0.56127601528E+03  0.58855800788E+03  0.00000000000E+00 0. -1.
         22    1    1    2    0    0 -0.19109942169E+03  0.28424374552E+03  0.24785302243E+03  0.42278199650E+03  0.00000000000E+00 0. -1.
<mgrwt>
<rscale>  0 0.77751233E+03</rscale>
<asrwt>0</asrwt>
<pdfrwt beam="1">  1        2 0.18990214E+00 0.77751233E+03</pdfrwt>
<pdfrwt beam="2">  1       -2 0.18836405E-01 0.77751233E+03</pdfrwt>
<totfact> 0.43128028E+02</totfact>
</mgrwt>
</event>
<event>
 6    1  0.2325157E-005  0.3712198E+04  0.7818608E-02  0.8065264E-01
         -2   -1    0    0    0  501 -0.00000000000E+00  0.00000000000E+00  0.13805012971E+04  0.13805012971E+04  0.00000000000E+00 0. -1.
          2   -1    0    0  501    0  0.00000000000E+00 -0.00000000000E+00 -0.24955448558E+04  0.24955448558E+04  0.00000000000E+00 0.  1.
         23    2    1    2    0    0 -0.21562902478E+03  0.17243418192E+04  0.11956494785E+03  0.17443546297E+04  0.92880093336E+02 0.  0.
         13    1    3    3    0    0 -0.17582606544E+03  0.13904502600E+04  0.59567344095E+02  0.14027882946E+04  0.00000000000E+00 0. -1.
        -13    1    3    3    0    0 -0.39802959348E+02  0.33389155915E+03  0.59997603754E+02  0.34156633514E+03  0.00000000000E+00 0.  1.
         22    1    1    2    0    0  0.21562902478E+03 -0.17243418192E+04 -0.12346085065E+04  0.21316915232E+04  0.00000000000E+00 0. -1.
<mgrwt>
<rscale>  0 0.37121977E+04</rscale>
<asrwt>0</asrwt>
<pdfrwt beam="1">  1        2 0.38392997E+00 0.37121977E+04</pdfrwt>
<pdfrwt beam="2">  1       -2 0.21238482E+00 0.37121977E+04</pdfrwt>
<totfact> 0.31258526E-01</totfact>
</mgrwt>
</event>
<event>
 6    1  0.2325157E-005  0.2400084E+04  0.7818608E-02  0.8439472E-01
          2   -1    0    0  501    0  0.00000000000E+00  0.00000000000E+00  0.20569528337E+04  0.20569528337E+04  0.00000000000E+00 0.  1.
         -2   -1    0    0    0  501 -0.00000000000E+00 -0.00000000000E+00 -0.70011342127E+03  0.70011342127E+03  0.00000000000E+00 0. -1.
         23    2    1    2    0    0 -0.87318423129E+03  0.58636759557E+03  0.13389375876E+04  0.17051165726E+04  0.91602422560E+02 0.  0.
         11    1    3    3    0    0 -0.57859682650E+03  0.33642437943E+03  0.86274172657E+03  0.10919152611E+04  0.00000000000E+00 0.  1.
        -11    1    3    3    0    0 -0.29458740479E+03  0.24994321614E+03  0.47619586102E+03  0.61320131149E+03  0.00000000000E+00 0. -1.
         22    1    1    2    0    0  0.87318423129E+03 -0.58636759557E+03  0.17901824854E+02  0.10519496824E+04  0.00000000000E+00 0. -1.
<mgrwt>
<rscale>  0 0.24000836E+04</rscale>
<asrwt>0</asrwt>
<pdfrwt beam="1">  1        2 0.31645428E+00 0.24000836E+04</pdfrwt>
<pdfrwt beam="2">  1       -2 0.10770976E+00 0.24000836E+04</pdfrwt>
<totfact> 0.38604739E+00</totfact>
</mgrwt>
</event>
<event>
 6    1  0.2325157E-005  0.2923618E+04  0.7818608E-02  0.8265885E-01
          2   -1    0    0  501    0  0.00000000000E+00  0.00000000000E+00  0.42369013169E+04  0.42369013169E+04  0.00000000000E+00 0.  1.
         -2   -1    0    0    0  501 -0.00000000000E+00 -0.00000000000E+00 -0.50435088463E+03  0.50435088463E+03  0.00000000000E+00 0. -1.
         23    2    1    2    0    0  0.21536077134E+03  0.83884501395E+03 -0.38915023227E+02  0.87162781391E+03  0.90440299050E+02 0.  0.
         11    1    3    3    0    0  0.44443897736E+02  0.34235894814E+03 -0.18081675505E+01  0.34523641014E+03  0.00000000000E+00 0. -1.
        -11    1    3    3    0    0  0.17091687360E+03  0.49648606581E+03 -0.37106855677E+02  0.52639140377E+03  0.00000000000E+00 0.  1.
         22    1    1    2    0    0 -0.21536077134E+03 -0.83884501395E+03  0.37714654555E+04  0.38696243876E+04  0.00000000000E+00 0.  1.
<mgrwt>
<rscale>  0 0.29236176E+04</rscale>
<asrwt>0</asrwt>
<pdfrwt beam="1">  1        2 0.65183095E+00 0.29236176E+04</pdfrwt>
<pdfrwt beam="2">  1       -2 0.77592447E-01 0.29236176E+04</pdfrwt>
<totfact> 0.27529891E-01</totfact>
</mgrwt>
</event>
<event>
 6    1  0.2325157E-005  0.1812180E+04  0.7818608E-02  0.8699849E-01
         -2   -1    0    0    0  501 -0.00000000000E+00  0.00000000000E+00  0.95892791699E+03  0.95892791699E+03  0.00000000000E+00 0. -1.
          2   -1    0    0  501    0  0.00000000000E+00 -0.00000000000E+00 -0.85616337909E+03  0.85616337909E+03  0.00000000000E+00 0.  1.
         23    2    1    2    0    0 -0.12384677885E+03  0.54161499046E+03 -0.66254423789E+03  0.86937339691E+03  0.90335007473E+02 0.  0.
         11    1    3    3    0    0 -0.56095163212E+02  0.37008147509E+03 -0.39258227597E+03  0.54242769928E+03  0.00000000000E+00 0.  1.
        -11    1    3    3    0    0 -0.67751615643E+02  0.17153351537E+03 -0.26996196192E+03  0.32694569763E+03  0.00000000000E+00 0. -1.
         22    1    1    2    0    0  0.12384677885E+03 -0.54161499046E+03  0.76530877579E+03  0.94571789918E+03  0.00000000000E+00 0. -1.
<mgrwt>
<rscale>  0 0.18121799E+04</rscale>
<asrwt>0</asrwt>
<pdfrwt beam="1">  1        2 0.13171744E+00 0.18121799E+04</pdfrwt>
<pdfrwt beam="2">  1       -2 0.14752737E+00 0.18121799E+04</pdfrwt>
<totfact> 0.92774323E+00</totfact>
</mgrwt>
</event>
<event>
 6    1  0.2325157E-005  0.4567132E+04  0.7818608E-02  0.7898988E-01
         -2   -1    0    0    0  501 -0.00000000000E+00  0.00000000000E+00  0.19007710680E+04  0.19007710680E+04  0.00000000000E+00 0. -1.
          2   -1    0    0  501    0  0.00000000000E+00 -0.00000000000E+00 -0.27434513313E+04  0.27434513313E+04  0.00000000000E+00 0.  1.
         23    2    1    2    0    0  0.58673154758E+03 -0.68691739377E+03 -0.25533453410E+04  0.27096722131E+04  0.81496362618E+02 0.  0.
         11    1    3    3    0    0  0.39829122811E+03 -0.44393938510E+03 -0.17888454381E+04  0.18856526937E+04  0.00000000000E+00 0. -1.
        -11    1    3    3    0    0  0.18844031948E+03 -0.24297800866E+03 -0.76449990294E+03  0.82401951937E+03  0.00000000000E+00 0.  1.
         22    1    1    2    0    0 -0.58673154758E+03  0.68691739377E+03  0.17106650777E+04  0.19345501862E+04  0.00000000000E+00 0. -1.
<mgrwt>
<rscale>  0 0.45671317E+04</rscale>
<asrwt>0</asrwt>
<pdfrwt beam="1">  1        2 0.42206943E+00 0.45671317E+04</pdfrwt>
<pdfrwt beam="2">  1       -2 0.29242632E+00 0.45671317E+04</pdfrwt>
<totfact> 0.66645848E-02</totfact>
</mgrwt>
</event>
<event>
 6    1  0.2325157E-005  0.2974821E+04  0.7818608E-02  0.8250958E-01
         -2   -1    0    0    0  501 -0.00000000000E+00  0.00000000000E+00  0.14996617590E+04  0.14996617590E+04  0.00000000000E+00 0. -1.
          2   -1    0    0  501    0  0.00000000000E+00 -0.00000000000E+00 -0.14752597450E+04  0.14752597450E+04  0.00000000000E+00 0.  1.
         23    2    1    2    0    0  0.14385299562E+04  0.37044549107E+03 -0.27931347035E+02  0.14885376110E+04  0.91464542565E+02 0.  0.
         11    1    3    3    0    0  0.10325212592E+04  0.23330555918E+03 -0.46711068503E+02  0.10595817848E+04  0.00000000000E+00 0. -1.
        -11    1    3    3    0    0  0.40600869695E+03  0.13713993189E+03  0.18779721469E+02  0.42895582623E+03  0.00000000000E+00 0.  1.
         22    1    1    2    0    0 -0.14385299562E+04 -0.37044549107E+03  0.52333361047E+02  0.14863838930E+04  0.00000000000E+00 0. -1.
<mgrwt>
<rscale>  0 0.29748214E+04</rscale>
<asrwt>0</asrwt>
<pdfrwt beam="1">  1        2 0.22696304E+00 0.29748214E+04</pdfrwt>
<pdfrwt beam="2">  1       -2 0.23071719E+00 0.29748214E+04</pdfrwt>
<totfact> 0.95163293E-01</totfact>
</mgrwt>
</event>
<event>
 6    1  0.2325157E-005  0.2478115E+04  0.7818608E-02  0.8410824E-01
         -2   -1    0    0    0  501 -0.00000000000E+00  0.00000000000E+00  0.13524549973E+04  0.13524549973E+04  0.00000000000E+00 0. -1.
          2   -1    0    0  501    0  0.00000000000E+00 -0.00000000000E+00 -0.11351680919E+04  0.11351680919E+04  0.00000000000E+00 0.  1.
         23    2    1    2    0    0 -0.65789901005E+03 -0.10479909169E+04  0.10771950703E+03  0.12453988404E+04  0.91097255561E+02 0.  0.
         11    1    3    3    0    0 -0.23609068860E+03 -0.36175244223E+03  0.80610172443E+02  0.43943331986E+03  0.00000000000E+00 0.  1.
        -11    1    3    3    0    0 -0.42180832146E+03 -0.68623847471E+03  0.27109334584E+02  0.80596552050E+03  0.00000000000E+00 0. -1.
         22    1    1    2    0    0  0.65789901005E+03  0.10479909169E+04  0.10956739836E+03  0.12422242488E+04  0.00000000000E+00 0. -1.
<mgrwt>
<rscale>  0 0.24781152E+04</rscale>
<asrwt>0</asrwt>
<pdfrwt beam="1">  1        2 0.17464124E+00 0.24781152E+04</pdfrwt>
<pdfrwt beam="2">  1       -2 0.20807000E+00 0.24781152E+04</pdfrwt>
<totfact> 0.21822976E+00</totfact>
</mgrwt>
</event>
<event>
 6    1  0.2325157E-005  0.1168719E+04  0.7818608E-02  0.9140686E-01
          2   -1    0    0  501    0  0.00000000000E+00  0.00000000000E+00  0.69459431246E+03  0.69459431246E+03  0.00000000000E+00 0.  1.
         -2   -1    0    0    0  501 -0.00000000000E+00 -0.00000000000E+00 -0.49161933464E+03  0.49161933464E+03  0.00000000000E+00 0. -1.
         23    2    1    2    0    0 -0.51658927761E+03 -0.23468401591E+03 -0.23964817489E+02  0.57511403185E+03  0.90778676432E+02 0.  0.
         11    1    3    3    0    0 -0.29559719084E+03 -0.93524670148E+02  0.12898184231E+02  0.31030779287E+03  0.00000000000E+00 0. -1.
        -11    1    3    3    0    0 -0.22099208677E+03 -0.14115934576E+03 -0.36863001720E+02  0.26480623899E+03  0.00000000000E+00 0.  1.
         22    1    1    2    0    0  0.51658927761E+03  0.23468401591E+03  0.22693979531E+03  0.61109961525E+03  0.00000000000E+00 0.  1.
<mgrwt>
<rscale>  0 0.11687189E+04</rscale>
<asrwt>0</asrwt>
<pdfrwt beam="1">  1        2 0.10686066E+00 0.11687189E+04</pdfrwt>
<pdfrwt beam="2">  1       -2 0.75633744E-01 0.11687189E+04</pdfrwt>
<totfact> 0.64151679E+01</totfact>
</mgrwt>
</event>
<event>
 6    1  0.2325157E-005  0.2467465E+04  0.7818608E-02  0.8414669E-01
         -2   -1    0    0    0  501 -0.00000000000E+00  0.00000000000E+00  0.53974178492E+03  0.53974178492E+03  0.00000000000E+00 0. -1.
          2   -1    0    0  501    0  0.00000000000E+00 -0.00000000000E+00 -0.28200441172E+04  0.28200441172E+04  0.00000000000E+00 0.  1.
         23    2    1    2    0    0 -0.56849206103E+03 -0.10559361478E+04 -0.15265055082E+04  0.19433135149E+04  0.89799659678E+02 0.  0.
         13    1    3    3    0    0 -0.13433061120E+03 -0.18373861415E+03 -0.26342117727E+03  0.34813116504E+03  0.00000000000E+00 0. -1.
        -13    1    3    3    0    0 -0.43416144984E+03 -0.87219753366E+03 -0.12630843310E+04  0.15951823499E+04  0.00000000000E+00 0.  1.
         22    1    1    2    0    0  0.56849206103E+03  0.10559361478E+04 -0.75379682401E+03  0.14164723872E+04  0.00000000000E+00 0. -1.
<mgrwt>
<rscale>  0 0.24674648E+04</rscale>
<asrwt>0</asrwt>
<pdfrwt beam="1">  1        2 0.43385294E+00 0.24674648E+04</pdfrwt>
<pdfrwt beam="2">  1       -2 0.83037199E-01 0.24674648E+04</pdfrwt>
<totfact> 0.25551055E+00</totfact>
</mgrwt>
</event>
<event>
 6    1  0.2325157E-005  0.9743787E+03  0.7818608E-02  0.9337101E-01
          1   -1    0    0  501    0  0.00000000000E+00  0.00000000000E+00  0.11648838132E+04  0.11648838132E+04  0.00000000000E+00 0.  1.
         -1   -1    0    0    0  501 -0.00000000000E+00 -0.00000000000E+00 -0.20375718749E+03  0.20375718749E+03  0.00000000000E+00 0. -1.
         23    2    1    2    0    0 -0.43331649929E+03  0.21310110984E+03  0.47477180392E+03  0.68328249285E+03  0.91057276841E+02 0.  0.
         13    1    3    3    0    0 -0.12158517825E+03  0.97239874131E+02  0.18845435483E+03  0.24444547970E+03  0.00000000000E+00 0. -1.
        -13    1    3    3    0    0 -0.31173132104E+03  0.11586123571E+03  0.28631744909E+03  0.43883701315E+03  0.00000000000E+00 0.  1.
         22    1    1    2    0    0  0.43331649929E+03 -0.21310110984E+03  0.48635482175E+03  0.68535850780E+03  0.00000000000E+00 0. -1.
<mgrwt>
<rscale>  0 0.97437867E+03</rscale>
<asrwt>0</asrwt>
<pdfrwt beam="1">  1        1 0.17921289E+00 0.97437867E+03</pdfrwt>
<pdfrwt beam="2">  1       -1 0.31347260E-01 0.97437867E+03</pdfrwt>
<totfact> 0.10740080E+02</totfact>
</mgrwt>
</event>
<event>
 6    1  0.2325157E-005  0.1153521E+04  0.7818608E-02  0.9154541E-01
         -2   -1    0    0    0  501 -0.00000000000E+00  0.00000000000E+00  0.16649825071E+03  0.16649825071E+03  0.00000000000E+00 0. -1.
          2   -1    0    0  501    0  0.00000000000E+00 -0.00000000000E+00 -0.19979347786E+04  0.19979347786E+04  0.00000000000E+00 0.  1.
         23    2    1    2    0    0 -0.10676658305E+02  0.72521060531E+02 -0.19880884250E+04  0.19914789542E+04  0.90108513172E+02 0.  0.
         13    1    3    3    0    0  0.29449345009E+02  0.69962935961E+02 -0.12737037608E+04  0.12759636933E+04  0.00000000000E+00 0. -1.
        -13    1    3    3    0    0 -0.40126003314E+02  0.25581245703E+01 -0.71438466415E+03  0.71551526086E+03  0.00000000000E+00 0.  1.
         22    1    1    2    0    0  0.10676658305E+02 -0.72521060531E+02  0.15665189708E+03  0.17295407515E+03  0.00000000000E+00 0. -1.
<mgrwt>
<rscale>  0 0.11535210E+04</rscale>
<asrwt>0</asrwt>
<pdfrwt beam="1">  1        2 0.30737459E+00 0.11535210E+04</pdfrwt>
<pdfrwt beam="2">  1       -2 0.25615115E-01 0.11535210E+04</pdfrwt>
<totfact> 0.91147765E+01</totfact>
</mgrwt>
</event>
<event>
 6    1  0.2325157E-005  0.1080437E+04  0.7818608E-02  0.9224472E-01
          2   -1    0    0  501    0  0.00000000000E+00  0.00000000000E+00  0.97857250396E+03  0.97857250396E+03  0.00000000000E+00 0.  1.
         -2   -1    0    0    0  501 -0.00000000000E+00 -0.00000000000E+00 -0.29822599972E+03  0.29822599972E+03  0.00000000000E+00 0. -1.
         23    2    1    2    0    0  0.19595211728E+03  0.35317338202E+03  0.75937921799E+03  0.86524675738E+03  0.94162011495E+02 0.  0.
         11    1    3    3    0    0  0.18876504144E+03  0.26013278864E+03  0.58844559015E+03  0.67049945649E+03  0.00000000000E+00 0. -1.
        -11    1    3    3    0    0  0.71870758454E+01  0.93040593376E+02  0.17093362784E+03  0.19474730089E+03  0.00000000000E+00 0.  1.
         22    1    1    2    0    0 -0.19595211728E+03 -0.35317338202E+03 -0.79032713751E+02  0.41155174629E+03  0.00000000000E+00 0. -1.
<mgrwt>
<rscale>  0 0.10804365E+04</rscale>
<asrwt>0</asrwt>
<pdfrwt beam="1">  1        2 0.15054961E+00 0.10804365E+04</pdfrwt>
<pdfrwt beam="2">  1       -2 0.45880924E-01 0.10804365E+04</pdfrwt>
<totfact> 0.11639070E+02</totfact>
</mgrwt>
</event>
<event>
 6    1  0.2325157E-005  0.2245113E+04  0.7818608E-02  0.8499882E-01
         -2   -1    0    0    0  501 -0.00000000000E+00  0.00000000000E+00  0.37926951256E+03  0.37926951256E+03  0.00000000000E+00 0. -1.
          2   -1    0    0  501    0  0.00000000000E+00 -0.00000000000E+00 -0.33225276838E+04  0.33225276838E+04  0.00000000000E+00 0.  1.
         23    2    1    2    0    0 -0.26040543204E+03 -0.66474582737E+03 -0.49451465125E+02  0.72122422184E+03  0.89559626641E+02 0.  0.
         11    1    3    3    0    0 -0.96129013169E+02 -0.36764107195E+03 -0.22871364661E+02  0.38068864480E+03  0.00000000000E+00 0. -1.
        -11    1    3    3    0    0 -0.16427641887E+03 -0.29710475542E+03 -0.26580100465E+02  0.34053557704E+03  0.00000000000E+00 0.  1.
         22    1    1    2    0    0  0.26040543204E+03  0.66474582737E+03 -0.28938067061E+04  0.29805729745E+04  0.00000000000E+00 0.  1.
<mgrwt>
<rscale>  0 0.22451133E+04</rscale>
<asrwt>0</asrwt>
<pdfrwt beam="1">  1        2 0.51115810E+00 0.22451133E+04</pdfrwt>
<pdfrwt beam="2">  1       -2 0.58349157E-01 0.22451133E+04</pdfrwt>
<totfact> 0.26974519E+00</totfact>
</mgrwt>
</event>
<event>
 6    1  0.2325157E-005  0.1607531E+04  0.7818608E-02  0.8815935E-01
         -4   -1    0    0    0  501 -0.00000000000E+00  0.00000000000E+00  0.82637130417E+03  0.82637130417E+03  0.00000000000E+00 0. -1.
          4   -1    0    0  501    0  0.00000000000E+00 -0.00000000000E+00 -0.78177760488E+03  0.78177760488E+03  0.00000000000E+00 0.  1.
         23    2    1    2    0    0 -0.60131850877E+03  0.72044181851E+00  0.55199643821E+03  0.82135668267E+03  0.91335996995E+02 0.  0.
         13    1    3    3    0    0 -0.33180035471E+03 -0.68949154068E+01  0.36448461209E+03  0.49293817837E+03  0.00000000000E+00 0.  1.
        -13    1    3    3    0    0 -0.26951815405E+03  0.76153572253E+01  0.18751182612E+03  0.32841850430E+03  0.00000000000E+00 0. -1.
         22    1    1    2    0    0  0.60131850877E+03 -0.72044181851E+00 -0.50740273892E+03  0.78679222638E+03  0.00000000000E+00 0. -1.
<mgrwt>
<rscale>  0 0.16075305E+04</rscale>
<asrwt>0</asrwt>
<pdfrwt beam="1">  1        4 0.12027348E+00 0.16075305E+04</pdfrwt>
<pdfrwt beam="2">  1       -4 0.12713405E+00 0.16075305E+04</pdfrwt>
<totfact> 0.46198141E-01</totfact>
</mgrwt>
</event>
<event>
 6    1  0.2325157E-005  0.1969872E+04  0.7818608E-02  0.8620838E-01
         -2   -1    0    0    0  501 -0.00000000000E+00  0.00000000000E+00  0.11234352268E+04  0.11234352268E+04  0.00000000000E+00 0. -1.
          2   -1    0    0  501    0  0.00000000000E+00 -0.00000000000E+00 -0.86351109964E+03  0.86351109964E+03  0.00000000000E+00 0.  1.
         23    2    1    2    0    0  0.39709761290E+03  0.63361347149E+03 -0.51310539110E+03  0.91143380603E+03  0.91004917307E+02 0.  0.
         11    1    3    3    0    0  0.11207749404E+03  0.25113845427E+03 -0.16233960826E+03  0.31935252668E+03  0.00000000000E+00 0. -1.
        -11    1    3    3    0    0  0.28502011886E+03  0.38247501722E+03 -0.35076578284E+03  0.59208127935E+03  0.00000000000E+00 0.  1.
         22    1    1    2    0    0 -0.39709761290E+03 -0.63361347149E+03  0.77302951824E+03  0.10755125204E+04  0.00000000000E+00 0. -1.
<mgrwt>
<rscale>  0 0.19698719E+04</rscale>
<asrwt>0</asrwt>
<pdfrwt beam="1">  1        2 0.13284786E+00 0.19698719E+04</pdfrwt>
<pdfrwt beam="2">  1       -2 0.17283619E+00 0.19698719E+04</pdfrwt>
<totfact> 0.58839805E+00</totfact>
</mgrwt>
</event>
<event>
 6    1  0.2325157E-005  0.5655273E+04  0.7818608E-02  0.7734678E-01
          2   -1    0    0  501    0  0.00000000000E+00  0.00000000000E+00  0.42260677593E+04  0.42260677593E+04  0.00000000000E+00 0.  1.
         -2   -1    0    0    0  501 -0.00000000000E+00 -0.00000000000E+00 -0.18919543764E+04  0.18919543764E+04  0.00000000000E+00 0. -1.
         23    2    1    2    0    0 -0.12632460056E+04 -0.22744344367E+04  0.23634814673E+04  0.35161564662E+04  0.92028099341E+02 0.  0.
         13    1    3    3    0    0 -0.19909371885E+03 -0.29465993155E+03  0.33121634280E+03  0.48597021502E+03  0.00000000000E+00 0. -1.
        -13    1    3    3    0    0 -0.10641522867E+04 -0.19797745052E+04  0.20322651245E+04  0.30301862512E+04  0.00000000000E+00 0.  1.
         22    1    1    2    0    0  0.12632460056E+04  0.22744344367E+04 -0.29368084363E+02  0.26018656695E+04  0.00000000000E+00 0. -1.
<mgrwt>
<rscale>  0 0.56552727E+04</rscale>
<asrwt>0</asrwt>
<pdfrwt beam="1">  1        2 0.65016427E+00 0.56552727E+04</pdfrwt>
<pdfrwt beam="2">  1       -2 0.29106990E+00 0.56552727E+04</pdfrwt>
<totfact> 0.54571794E-03</totfact>
</mgrwt>
</event>
<event>
 6    1  0.2325157E-005  0.1464307E+04  0.7818608E-02  0.8908542E-01
          2   -1    0    0  501    0  0.00000000000E+00  0.00000000000E+00  0.14492639147E+04  0.14492639147E+04  0.00000000000E+00 0.  1.
         -2   -1    0    0    0  501 -0.00000000000E+00 -0.00000000000E+00 -0.36987643512E+03  0.36987643512E+03  0.00000000000E+00 0. -1.
         23    2    1    2    0    0  0.22712194055E+03 -0.55320391851E+02 -0.31487155581E+03  0.40542079510E+03  0.10284552885E+03 0.  0.
         13    1    3    3    0    0  0.36672139572E+02 -0.24457290708E+02 -0.13361838707E+03  0.14070137971E+03  0.00000000000E+00 0.  1.
        -13    1    3    3    0    0  0.19044980097E+03 -0.30863101143E+02 -0.18125316875E+03  0.26471941539E+03  0.00000000000E+00 0. -1.
         22    1    1    2    0    0 -0.22712194055E+03  0.55320391851E+02  0.13942590354E+04  0.14137195548E+04  0.00000000000E+00 0.  1.
<mgrwt>
<rscale>  0 0.14643068E+04</rscale>
<asrwt>0</asrwt>
<pdfrwt beam="1">  1        2 0.22296368E+00 0.14643068E+04</pdfrwt>
<pdfrwt beam="2">  1       -2 0.56904068E-01 0.14643068E+04</pdfrwt>
<totfact> 0.38041405E+01</totfact>
</mgrwt>
</event>
<event>
 6    1  0.2325157E-005  0.1504881E+04  0.7818608E-02  0.8881213E-01
          2   -1    0    0  501    0  0.00000000000E+00  0.00000000000E+00  0.41823170941E+03  0.41823170941E+03  0.00000000000E+00 0.  1.
         -2   -1    0    0    0  501 -0.00000000000E+00 -0.00000000000E+00 -0.13537159385E+04  0.13537159385E+04  0.00000000000E+00 0. -1.
         23    2    1    2    0    0  0.27204066449E+03  0.35943821561E+03 -0.11747806235E+04  0.12615902062E+04  0.91095449344E+02 0.  0.
         13    1    3    3    0    0  0.48128306049E+02  0.99122173485E+02 -0.20373167452E+03  0.23162066903E+03  0.00000000000E+00 0. -1.
        -13    1    3    3    0    0  0.22391235844E+03  0.26031604213E+03 -0.97104894900E+03  0.10299695371E+04  0.00000000000E+00 0.  1.
         22    1    1    2    0    0 -0.27204066449E+03 -0.35943821561E+03  0.23929639442E+03  0.51035744176E+03  0.00000000000E+00 0.  1.
<mgrwt>
<rscale>  0 0.15048813E+04</rscale>
<asrwt>0</asrwt>
<pdfrwt beam="1">  1        2 0.64343339E-01 0.15048813E+04</pdfrwt>
<pdfrwt beam="2">  1       -2 0.20826399E+00 0.15048813E+04</pdfrwt>
<totfact> 0.85723175E+00</totfact>
</mgrwt>
</event>
<event>
 6    1  0.2325157E-005  0.8562610E+03  0.7818608E-02  0.9481972E-01
         -2   -1    0    0    0  501 -0.00000000000E+00  0.00000000000E+00  0.16585666755E+03  0.16585666755E+03  0.00000000000E+00 0. -1.
          2   -1    0    0  501    0  0.00000000000E+00 -0.00000000000E+00 -0.11051453624E+04  0.11051453624E+04  0.00000000000E+00 0.  1.
         23    2    1    2    0    0 -0.69255470730E+02  0.41768953102E+03 -0.48288061163E+03  0.64845146738E+03  0.89748291940E+02 0.  0.
         13    1    3    3    0    0 -0.55187832400E+02  0.36088944041E+03 -0.45576106479E+03  0.58395636243E+03  0.00000000000E+00 0.  1.
        -13    1    3    3    0    0 -0.14067638330E+02  0.56800090609E+02 -0.27119546843E+02  0.64495104949E+02  0.00000000000E+00 0. -1.
         22    1    1    2    0    0  0.69255470730E+02 -0.41768953102E+03 -0.45640808323E+03  0.62255056259E+03  0.00000000000E+00 0.  1.
<mgrwt>
<rscale>  0 0.85626100E+03</rscale>
<asrwt>0</asrwt>
<pdfrwt beam="1">  1        2 0.17002236E+00 0.85626100E+03</pdfrwt>
<pdfrwt beam="2">  1       -2 0.25516411E-01 0.85626100E+03</pdfrwt>
<totfact> 0.29966864E+02</totfact>
</mgrwt>
</event>
<event>
 6    1  0.2325157E-005  0.1844084E+04  0.7818608E-02  0.8683201E-01
         -1   -1    0    0    0  501 -0.00000000000E+00  0.00000000000E+00  0.11345728819E+04  0.11345728819E+04  0.00000000000E+00 0. -1.
          1   -1    0    0  501    0  0.00000000000E+00 -0.00000000000E+00 -0.74932266042E+03  0.74932266042E+03  0.00000000000E+00 0.  1.
         23    2    1    2    0    0 -0.52213177482E+03  0.46184256083E+03 -0.42002380762E+03  0.81881976885E+03  0.90142518307E+02 0.  0.
         11    1    3    3    0    0 -0.26314041686E+03  0.26610404098E+03 -0.18120054213E+03  0.41579787888E+03  0.00000000000E+00 0. -1.
        -11    1    3    3    0    0 -0.25899135796E+03  0.19573851986E+03 -0.23882326549E+03  0.40302188997E+03  0.00000000000E+00 0.  1.
         22    1    1    2    0    0  0.52213177482E+03 -0.46184256083E+03  0.80527402906E+03  0.10650757734E+04  0.00000000000E+00 0. -1.
<mgrwt>
<rscale>  0 0.18440837E+04</rscale>
<asrwt>0</asrwt>
<pdfrwt beam="1">  1        1 0.11528041E+00 0.18440837E+04</pdfrwt>
<pdfrwt beam="2">  1       -1 0.17454967E+00 0.18440837E+04</pdfrwt>
<totfact> 0.52544936E+00</totfact>
</mgrwt>
</event>
<event>
 6    1  0.2325157E-005  0.1269485E+04  0.7818608E-02  0.9054120E-01
          2   -1    0    0  501    0  0.00000000000E+00  0.00000000000E+00  0.49748030957E+03  0.49748030957E+03  0.00000000000E+00 0.  1.
         -2   -1    0    0    0  501 -0.00000000000E+00 -0.00000000000E+00 -0.80987787722E+03  0.80987787722E+03  0.00000000000E+00 0. -1.
         23    2    1    2    0    0 -0.36063777310E+03  0.10123746598E+03 -0.68066029403E+03  0.78207153786E+03  0.89603719602E+02 0.  0.
         13    1    3    3    0    0 -0.20368123038E+03  0.95839877151E+02 -0.44789304617E+03  0.50127787351E+03  0.00000000000E+00 0.  1.
        -13    1    3    3    0    0 -0.15695654272E+03  0.53975888341E+01 -0.23276724786E+03  0.28079366436E+03  0.00000000000E+00 0. -1.
         22    1    1    2    0    0  0.36063777310E+03 -0.10123746598E+03  0.36826272638E+03  0.52528664893E+03  0.00000000000E+00 0.  1.
<mgrwt>
<rscale>  0 0.12694854E+04</rscale>
<asrwt>0</asrwt>
<pdfrwt beam="1">  1        2 0.76535433E-01 0.12694854E+04</pdfrwt>
<pdfrwt beam="2">  1       -2 0.12459659E+00 0.12694854E+04</pdfrwt>
<totfact> 0.29398052E+01</totfact>
</mgrwt>
</event>
<event>
 6    1  0.2325157E-005  0.2073790E+04  0.7818608E-02  0.8572878E-01
          2   -1    0    0  501    0  0.00000000000E+00  0.00000000000E+00  0.28186318374E+04  0.28186318374E+04  0.00000000000E+00 0.  1.
         -2   -1    0    0    0  501 -0.00000000000E+00 -0.00000000000E+00 -0.38144424232E+03  0.38144424232E+03  0.00000000000E+00 0. -1.
         23    2    1    2    0    0 -0.22010172935E+03  0.54031201612E+02  0.27790781110E+04  0.27898892115E+04  0.94034694460E+02 0.  0.
         13    1    3    3    0    0 -0.10362328066E+03 -0.66697144866E+01  0.16354756261E+04  0.16387686820E+04  0.00000000000E+00 0. -1.
        -13    1    3    3    0    0 -0.11647844868E+03  0.60700916099E+02  0.11436024848E+04  0.11511205295E+04  0.00000000000E+00 0.  1.
         22    1    1    2    0    0  0.22010172935E+03 -0.54031201612E+02 -0.34189051587E+03  0.41018686821E+03  0.00000000000E+00 0. -1.
<mgrwt>
<rscale>  0 0.20737897E+04</rscale>
<asrwt>0</asrwt>
<pdfrwt beam="1">  1        2 0.43363565E+00 0.20737897E+04</pdfrwt>
<pdfrwt beam="2">  1       -2 0.58683731E-01 0.20737897E+04</pdfrwt>
<totfact> 0.56543849E+00</totfact>
</mgrwt>
</event>
<event>
 6    1  0.2325157E-005  0.1752198E+04  0.7818608E-02  0.8732141E-01
          2   -1    0    0  501    0  0.00000000000E+00  0.00000000000E+00  0.14732270294E+04  0.14732270294E+04  0.00000000000E+00 0.  1.
         -2   -1    0    0    0  501 -0.00000000000E+00 -0.00000000000E+00 -0.52099899346E+03  0.52099899346E+03  0.00000000000E+00 0. -1.
         23    2    1    2    0    0 -0.67336209700E+03  0.40167429068E+03  0.91687783650E+03  0.12093640057E+04  0.84484209576E+02 0.  0.
         11    1    3    3    0    0 -0.13308122287E+03  0.79696072124E+02  0.23635626757E+03  0.28271250593E+03  0.00000000000E+00 0. -1.
        -11    1    3    3    0    0 -0.54028087414E+03  0.32197821856E+03  0.68052156893E+03  0.92665149974E+03  0.00000000000E+00 0.  1.
         22    1    1    2    0    0  0.67336209700E+03 -0.40167429068E+03  0.35350199466E+02  0.78486201722E+03  0.00000000000E+00 0.  1.
<mgrwt>
<rscale>  0 0.17521984E+04</rscale>
<asrwt>0</asrwt>
<pdfrwt beam="1">  1        2 0.22665031E+00 0.17521984E+04</pdfrwt>
<pdfrwt beam="2">  1       -2 0.80153692E-01 0.17521984E+04</pdfrwt>
<totfact> 0.17144538E+01</totfact>
</mgrwt>
</event>
<event>
 6    1  0.2325157E-005  0.1935269E+04  0.7818608E-02  0.8637497E-01
          2   -1    0    0  501    0  0.00000000000E+00  0.00000000000E+00  0.31439287678E+04  0.31439287678E+04  0.00000000000E+00 0.  1.
         -2   -1    0    0    0  501 -0.00000000000E+00 -0.00000000000E+00 -0.29781730454E+03  0.29781730454E+03  0.00000000000E+00 0. -1.
         23    2    1    2    0    0  0.54384071863E+03  0.65739507093E+03  0.62225250824E+03  0.10598393449E+04  0.90167879065E+02 0.  0.
         13    1    3    3    0    0  0.48429291122E+03  0.54195369857E+03  0.50686717564E+03  0.88609692979E+03  0.00000000000E+00 0. -1.
        -13    1    3    3    0    0  0.59547807418E+02  0.11544137236E+03  0.11538533260E+03  0.17374241508E+03  0.00000000000E+00 0.  1.
         22    1    1    2    0    0 -0.54384071863E+03 -0.65739507093E+03  0.22238589550E+04  0.23819067274E+04  0.00000000000E+00 0.  1.
<mgrwt>
<rscale>  0 0.19352689E+04</rscale>
<asrwt>0</asrwt>
<pdfrwt beam="1">  1        2 0.48368133E+00 0.19352689E+04</pdfrwt>
<pdfrwt beam="2">  1       -2 0.45818049E-01 0.19352689E+04</pdfrwt>
<totfact> 0.59706617E+00</totfact>
</mgrwt>
</event>
<event>
 6    1  0.2325157E-005  0.9689233E+03  0.7818608E-02  0.9343302E-01
         -2   -1    0    0    0  501 -0.00000000000E+00  0.00000000000E+00  0.48722376591E+03  0.48722376591E+03  0.00000000000E+00 0. -1.
          2   -1    0    0  501    0  0.00000000000E+00 -0.00000000000E+00 -0.48171521053E+03  0.48171521053E+03  0.00000000000E+00 0.  1.
         23    2    1    2    0    0  0.16151977669E+03 -0.29407774499E+03  0.34623661422E+03  0.49074867076E+03  0.91564766501E+02 0.  0.
         13    1    3    3    0    0  0.10496351295E+03 -0.97615175015E+02  0.14140362843E+03  0.20134807567E+03  0.00000000000E+00 0. -1.
        -13    1    3    3    0    0  0.56556263746E+02 -0.19646256997E+03  0.20483298579E+03  0.28940059509E+03  0.00000000000E+00 0.  1.
         22    1    1    2    0    0 -0.16151977669E+03  0.29407774499E+03 -0.34072805884E+03  0.47819030568E+03  0.00000000000E+00 0.  1.
<mgrwt>
<rscale>  0 0.96892332E+03</rscale>
<asrwt>0</asrwt>
<pdfrwt beam="1">  1        2 0.74110032E-01 0.96892332E+03</pdfrwt>
<pdfrwt beam="2">  1       -2 0.74957503E-01 0.96892332E+03</pdfrwt>
<totfact> 0.10288793E+02</totfact>
</mgrwt>
</event>
<event>
 6    1  0.2325157E-005  0.2513147E+04  0.7818608E-02  0.8398317E-01
         -2   -1    0    0    0  501 -0.00000000000E+00  0.00000000000E+00  0.87002692568E+03  0.87002692568E+03  0.00000000000E+00 0. -1.
          2   -1    0    0  501    0  0.00000000000E+00 -0.00000000000E+00 -0.18148595252E+04  0.18148595252E+04  0.00000000000E+00 0.  1.
         23    2    1    2    0    0 -0.20123471766E+03 -0.77033342497E+03  0.56326201948E+03  0.97952479509E+03  0.91080867312E+02 0.  0.
         11    1    3    3    0    0 -0.35063901090E+02 -0.84405383692E+02  0.34667677526E+02  0.97752717717E+02  0.00000000000E+00 0.  1.
        -11    1    3    3    0    0 -0.16617081657E+03 -0.68592804128E+03  0.52859434195E+03  0.88177207737E+03  0.00000000000E+00 0. -1.
         22    1    1    2    0    0  0.20123471766E+03  0.77033342497E+03 -0.15080946190E+04  0.17053616558E+04  0.00000000000E+00 0.  1.
<mgrwt>
<rscale>  0 0.25131468E+04</rscale>
<asrwt>0</asrwt>
<pdfrwt beam="1">  1        2 0.27920915E+00 0.25131468E+04</pdfrwt>
<pdfrwt beam="2">  1       -2 0.13385030E+00 0.25131468E+04</pdfrwt>
<totfact> 0.30418484E+00</totfact>
</mgrwt>
</event>
<event>
 6    1  0.2325157E-005  0.1035259E+04  0.7818608E-02  0.9270697E-01
          2   -1    0    0  501    0  0.00000000000E+00  0.00000000000E+00  0.21885663089E+04  0.21885663089E+04  0.00000000000E+00 0.  1.
         -2   -1    0    0    0  501 -0.00000000000E+00 -0.00000000000E+00 -0.12242739191E+03  0.12242739191E+03  0.00000000000E+00 0. -1.
         23    2    1    2    0    0  0.32684915114E+03  0.30498564596E+03  0.47675256797E+03  0.65993477446E+03  0.91511112064E+02 0.  0.
         13    1    3    3    0    0  0.20196305753E+03  0.21332523620E+03  0.25243609335E+03  0.38732507565E+03  0.00000000000E+00 0.  1.
        -13    1    3    3    0    0  0.12488609360E+03  0.91660409763E+02  0.22431647463E+03  0.27260969881E+03  0.00000000000E+00 0. -1.
         22    1    1    2    0    0 -0.32684915114E+03 -0.30498564596E+03  0.15893863490E+04  0.16510589264E+04  0.00000000000E+00 0.  1.
<mgrwt>
<rscale>  0 0.10352593E+04</rscale>
<asrwt>0</asrwt>
<pdfrwt beam="1">  1        2 0.33670248E+00 0.10352593E+04</pdfrwt>
<pdfrwt beam="2">  1       -2 0.18834985E-01 0.10352593E+04</pdfrwt>
<totfact> 0.12470269E+02</totfact>
</mgrwt>
</event>
<event>
 6    1  0.2325157E-005  0.1067328E+04  0.7818608E-02  0.9237634E-01
          2   -1    0    0  501    0  0.00000000000E+00  0.00000000000E+00  0.11363654900E+04  0.11363654900E+04  0.00000000000E+00 0. -1.
         -2   -1    0    0    0  501 -0.00000000000E+00 -0.00000000000E+00 -0.25062135176E+03  0.25062135176E+03  0.00000000000E+00 0.  1.
         23    2    1    2    0    0  0.22937717350E+03 -0.47540468721E+03  0.36699280958E+03  0.64690141067E+03  0.71931971331E+02 0.  0.
         13    1    3    3    0    0  0.91958916574E+02 -0.17589596132E+03  0.97142767606E+02  0.22098087891E+03  0.00000000000E+00 0.  1.
        -13    1    3    3    0    0  0.13741825692E+03 -0.29950872589E+03  0.26985004197E+03  0.42592053176E+03  0.00000000000E+00 0. -1.
         22    1    1    2    0    0 -0.22937717350E+03  0.47540468721E+03  0.51875132869E+03  0.74008543112E+03  0.00000000000E+00 0. -1.
<mgrwt>
<rscale>  0 0.10673284E+04</rscale>
<asrwt>0</asrwt>
<pdfrwt beam="1">  1        2 0.17482546E+00 0.10673284E+04</pdfrwt>
<pdfrwt beam="2">  1       -2 0.38557132E-01 0.10673284E+04</pdfrwt>
<totfact> 0.13068909E+02</totfact>
</mgrwt>
</event>
<event>
 6    1  0.2325157E-005  0.2386464E+04  0.7818608E-02  0.8444589E-01
          2   -1    0    0  501    0  0.00000000000E+00  0.00000000000E+00  0.17107975923E+04  0.17107975923E+04  0.00000000000E+00 0.  1.
         -2   -1    0    0    0  501 -0.00000000000E+00 -0.00000000000E+00 -0.83224501758E+03  0.83224501758E+03  0.00000000000E+00 0. -1.
         23    2    1    2    0    0 -0.10783886193E+04  0.46619474993E+03  0.22852764752E+03  0.12003617226E+04  0.91563204512E+02 0.  0.
         13    1    3    3    0    0 -0.77061202058E+03  0.32443941537E+03  0.20382899156E+03  0.86061029410E+03  0.00000000000E+00 0.  1.
        -13    1    3    3    0    0 -0.30777659868E+03  0.14175533456E+03  0.24698655961E+02  0.33975142852E+03  0.00000000000E+00 0. -1.
         22    1    1    2    0    0  0.10783886193E+04 -0.46619474993E+03  0.65002492718E+03  0.13426808872E+04  0.00000000000E+00 0.  1.
<mgrwt>
<rscale>  0 0.23864641E+04</rscale>
<asrwt>0</asrwt>
<pdfrwt beam="1">  1        2 0.26319963E+00 0.23864641E+04</pdfrwt>
<pdfrwt beam="2">  1       -2 0.12803770E+00 0.23864641E+04</pdfrwt>
<totfact> 0.39303874E+00</totfact>
</mgrwt>
</event>
<event>
 6    1  0.2325157E-005  0.2325412E+04  0.7818608E-02  0.8467969E-01
          2   -1    0    0  501    0  0.00000000000E+00  0.00000000000E+00  0.25267810092E+04  0.25267810092E+04  0.00000000000E+00 0.  1.
         -2   -1    0    0    0  501 -0.00000000000E+00 -0.00000000000E+00 -0.53502249485E+03  0.53502249485E+03  0.00000000000E+00 0. -1.
         23    2    1    2    0    0 -0.99653870864E+03 -0.59331842891E+03  0.92826883380E+03  0.14882322611E+04  0.89644181943E+02 0.  0.
         13    1    3    3    0    0 -0.75248017932E+03 -0.49117830907E+03  0.70974932517E+03  0.11450880561E+04  0.00000000000E+00 0.  1.
        -13    1    3    3    0    0 -0.24405852931E+03 -0.10214011984E+03  0.21851950862E+03  0.34314420505E+03  0.00000000000E+00 0. -1.
         22    1    1    2    0    0  0.99653870864E+03  0.59331842891E+03  0.10634896805E+04  0.15735712429E+04  0.00000000000E+00 0. -1.
<mgrwt>
<rscale>  0 0.23254115E+04</rscale>
<asrwt>0</asrwt>
<pdfrwt beam="1">  1        2 0.38873553E+00 0.23254115E+04</pdfrwt>
<pdfrwt beam="2">  1       -2 0.82311155E-01 0.23254115E+04</pdfrwt>
<totfact> 0.39385434E+00</totfact>
</mgrwt>
</event>
<event>
 6    1  0.2325157E-005  0.1791640E+04  0.7818608E-02  0.8710758E-01
         -2   -1    0    0    0  501 -0.00000000000E+00  0.00000000000E+00  0.36463946366E+03  0.36463946366E+03  0.00000000000E+00 0. -1.
          2   -1    0    0  501    0  0.00000000000E+00 -0.00000000000E+00 -0.22007850032E+04  0.22007850032E+04  0.00000000000E+00 0.  1.
         23    2    1    2    0    0  0.44955432880E+03  0.72956718998E+03 -0.57061075232E+03  0.10370443842E+04  0.12448712788E+03 0.  0.
         13    1    3    3    0    0  0.24991923352E+03  0.36302027126E+03 -0.22337640437E+03  0.49410561488E+03  0.00000000000E+00 0. -1.
        -13    1    3    3    0    0  0.19963509528E+03  0.36654691872E+03 -0.34723434794E+03  0.54293876937E+03  0.00000000000E+00 0.  1.
         22    1    1    2    0    0 -0.44955432880E+03 -0.72956718998E+03 -0.12655347872E+04  0.15283800826E+04  0.00000000000E+00 0. -1.
<mgrwt>
<rscale>  0 0.17916395E+04</rscale>
<asrwt>0</asrwt>
<pdfrwt beam="1">  1        2 0.33858230E+00 0.17916395E+04</pdfrwt>
<pdfrwt beam="2">  1       -2 0.56098380E-01 0.17916395E+04</pdfrwt>
<totfact> 0.14543296E+01</totfact>
</mgrwt>
</event>
<event>
 6    1  0.2325157E-005  0.7263216E+03  0.7818608E-02  0.9673248E-01
         -2   -1    0    0    0  501 -0.00000000000E+00  0.00000000000E+00  0.39450595861E+02  0.39450595861E+02  0.00000000000E+00 0.  1.
          2   -1    0    0  501    0  0.00000000000E+00 -0.00000000000E+00 -0.33430616167E+04  0.33430616167E+04  0.00000000000E+00 0. -1.
         23    2    1    2    0    0  0.13449968751E+03  0.31465127939E+03 -0.21569914122E+04  0.21859203354E+04  0.92413023193E+02 0.  0.
         11    1    3    3    0    0  0.42958538361E+02  0.17488450661E+03 -0.89685745571E+03  0.91475861436E+03  0.00000000000E+00 0. -1.
        -11    1    3    3    0    0  0.91541149149E+02  0.13976677278E+03 -0.12601339565E+04  0.12711617210E+04  0.00000000000E+00 0.  1.
         22    1    1    2    0    0 -0.13449968751E+03 -0.31465127939E+03 -0.11466196086E+04  0.11965918772E+04  0.00000000000E+00 0.  1.
<mgrwt>
<rscale>  0 0.72632162E+03</rscale>
<asrwt>0</asrwt>
<pdfrwt beam="1">  1        2 0.51431705E+00 0.72632162E+03</pdfrwt>
<pdfrwt beam="2">  1       -2 0.60693239E-02 0.72632162E+03</pdfrwt>
<totfact> 0.17042613E+02</totfact>
</mgrwt>
</event>
<event>
 6    1  0.2325157E-005  0.2804863E+04  0.7818608E-02  0.8301760E-01
         -2   -1    0    0    0  501 -0.00000000000E+00  0.00000000000E+00  0.48557850081E+03  0.48557850081E+03  0.00000000000E+00 0. -1.
          2   -1    0    0  501    0  0.00000000000E+00 -0.00000000000E+00 -0.40504546705E+04  0.40504546705E+04  0.00000000000E+00 0.  1.
         23    2    1    2    0    0  0.94219632773E+03  0.67452295923E+03 -0.30576408739E+04  0.32711210053E+04  0.91377101180E+02 0.  0.
         11    1    3    3    0    0  0.81957810200E+03  0.55188268275E+03 -0.26443607814E+04  0.28229287457E+04  0.00000000000E+00 0.  1.
        -11    1    3    3    0    0  0.12261822573E+03  0.12264027648E+03 -0.41328009252E+03  0.44819225960E+03  0.00000000000E+00 0. -1.
         22    1    1    2    0    0 -0.94219632773E+03 -0.67452295923E+03 -0.50723529572E+03  0.12649121660E+04  0.00000000000E+00 0. -1.
<mgrwt>
<rscale>  0 0.28048627E+04</rscale>
<asrwt>0</asrwt>
<pdfrwt beam="1">  1        2 0.62314688E+00 0.28048627E+04</pdfrwt>
<pdfrwt beam="2">  1       -2 0.74704384E-01 0.28048627E+04</pdfrwt>
<totfact> 0.43628647E-01</totfact>
</mgrwt>
</event>
<event>
 6    1  0.2325157E-005  0.1914305E+04  0.7818608E-02  0.8647769E-01
          1   -1    0    0  501    0  0.00000000000E+00  0.00000000000E+00  0.53070070652E+03  0.53070070652E+03  0.00000000000E+00 0.  1.
         -1   -1    0    0    0  501 -0.00000000000E+00 -0.00000000000E+00 -0.17262847641E+04  0.17262847641E+04  0.00000000000E+00 0. -1.
         23    2    1    2    0    0 -0.57526059498E+02 -0.53086962799E+03  0.33410279189E+03  0.63677756208E+03  0.93430073179E+02 0.  0.
         13    1    3    3    0    0 -0.67803787635E+02 -0.20301048441E+03  0.13547134176E+03  0.25330435219E+03  0.00000000000E+00 0.  1.
        -13    1    3    3    0    0  0.10277728137E+02 -0.32785914358E+03  0.19863145013E+03  0.38347320989E+03  0.00000000000E+00 0. -1.
         22    1    1    2    0    0  0.57526059498E+02  0.53086962799E+03 -0.15296868495E+04  0.16202079085E+04  0.00000000000E+00 0. -1.
<mgrwt>
<rscale>  0 0.19143046E+04</rscale>
<asrwt>0</asrwt>
<pdfrwt beam="1">  1        1 0.81646262E-01 0.19143046E+04</pdfrwt>
<pdfrwt beam="2">  1       -1 0.26558227E+00 0.19143046E+04</pdfrwt>
<totfact> 0.21045383E+00</totfact>
</mgrwt>
</event>
<event>
 6    1  0.2325157E-005  0.6822179E+04  0.7818608E-02  0.7596057E-01
         -2   -1    0    0    0  501 -0.00000000000E+00  0.00000000000E+00  0.29062080153E+04  0.29062080153E+04  0.00000000000E+00 0. -1.
          2   -1    0    0  501    0  0.00000000000E+00 -0.00000000000E+00 -0.40036820010E+04  0.40036820010E+04  0.00000000000E+00 0.  1.
         23    2    1    2    0    0 -0.25881746258E+04 -0.11825213962E+04  0.13552782621E+04  0.31531629388E+04  0.93019378142E+02 0.  0.
         11    1    3    3    0    0 -0.20974422719E+03 -0.98079245787E+02  0.82771686734E+02  0.24589292674E+03  0.00000000000E+00 0. -1.
        -11    1    3    3    0    0 -0.23784303987E+04 -0.10844421504E+04  0.12725065753E+04  0.29072700121E+04  0.00000000000E+00 0.  1.
         22    1    1    2    0    0  0.25881746258E+04  0.11825213962E+04 -0.24527522477E+04  0.37567270775E+04  0.00000000000E+00 0.  1.
<mgrwt>
<rscale>  0 0.68221793E+04</rscale>
<asrwt>0</asrwt>
<pdfrwt beam="1">  1        2 0.61595108E+00 0.68221793E+04</pdfrwt>
<pdfrwt beam="2">  1       -2 0.44710892E+00 0.68221793E+04</pdfrwt>
<totfact> 0.77867593E-04</totfact>
</mgrwt>
</event>
<event>
 6    1  0.2325157E-005  0.3812460E+04  0.7818608E-02  0.8043486E-01
         -2   -1    0    0    0  501 -0.00000000000E+00  0.00000000000E+00  0.14221403943E+04  0.14221403943E+04  0.00000000000E+00 0. -1.
          2   -1    0    0  501    0  0.00000000000E+00 -0.00000000000E+00 -0.25551011632E+04  0.25551011632E+04  0.00000000000E+00 0.  1.
         23    2    1    2    0    0 -0.49059313637E+03  0.12306408766E+04  0.86149243838E+03  0.15828727077E+04  0.90322726177E+02 0.  0.
         11    1    3    3    0    0 -0.25560694430E+03  0.65817433193E+03  0.40579277548E+03  0.81436855159E+03  0.00000000000E+00 0. -1.
        -11    1    3    3    0    0 -0.23498619207E+03  0.57246654464E+03  0.45569966290E+03  0.76850415611E+03  0.00000000000E+00 0.  1.
         22    1    1    2    0    0  0.49059313637E+03 -0.12306408766E+04 -0.19944532073E+04  0.23943688498E+04  0.00000000000E+00 0.  1.
<mgrwt>
<rscale>  0 0.38124599E+04</rscale>
<asrwt>0</asrwt>
<pdfrwt beam="1">  1        2 0.39309248E+00 0.38124599E+04</pdfrwt>
<pdfrwt beam="2">  1       -2 0.21879083E+00 0.38124599E+04</pdfrwt>
<totfact> 0.26051120E-01</totfact>
</mgrwt>
</event>
<event>
 6    1  0.2325157E-005  0.7760011E+03  0.7818608E-02  0.9595419E-01
         -2   -1    0    0    0  501 -0.00000000000E+00  0.00000000000E+00  0.26055976647E+03  0.26055976647E+03  0.00000000000E+00 0. -1.
          2   -1    0    0  501    0  0.00000000000E+00 -0.00000000000E+00 -0.57777305471E+03  0.57777305471E+03  0.00000000000E+00 0.  1.
         23    2    1    2    0    0  0.67393492874E+01 -0.25196633952E+03  0.14996943312E+03  0.30749183726E+03  0.92346868020E+02 0.  0.
         11    1    3    3    0    0 -0.68957523662E+01 -0.19771607108E+03  0.15500520097E+03  0.25132808934E+03  0.00000000000E+00 0. -1.
        -11    1    3    3    0    0  0.13635101654E+02 -0.54250268441E+02 -0.50357678494E+01  0.56163747924E+02  0.00000000000E+00 0.  1.
         22    1    1    2    0    0 -0.67393492874E+01  0.25196633952E+03 -0.46718272135E+03  0.53084098392E+03  0.00000000000E+00 0.  1.
<mgrwt>
<rscale>  0 0.77600106E+03</rscale>
<asrwt>0</asrwt>
<pdfrwt beam="1">  1        2 0.88888162E-01 0.77600106E+03</pdfrwt>
<pdfrwt beam="2">  1       -2 0.40086118E-01 0.77600106E+03</pdfrwt>
<totfact> 0.30771727E+02</totfact>
</mgrwt>
</event>
<event>
 6    1  0.2325157E-005  0.1413489E+04  0.7818608E-02  0.8944112E-01
         -1   -1    0    0    0  501 -0.00000000000E+00  0.00000000000E+00  0.38000702228E+03  0.38000702228E+03  0.00000000000E+00 0. -1.
          1   -1    0    0  501    0  0.00000000000E+00 -0.00000000000E+00 -0.13144167770E+04  0.13144167770E+04  0.00000000000E+00 0.  1.
         23    2    1    2    0    0  0.18302028174E+03 -0.63516833894E+03 -0.17906296878E+03  0.69068876982E+03  0.89733982715E+02 0.  0.
         11    1    3    3    0    0  0.61604850007E+02 -0.11980919730E+03 -0.62645533579E+02  0.14857275719E+03  0.00000000000E+00 0. -1.
        -11    1    3    3    0    0  0.12141543174E+03 -0.51535914164E+03 -0.11641743520E+03  0.54211601263E+03  0.00000000000E+00 0.  1.
         22    1    1    2    0    0 -0.18302028174E+03  0.63516833894E+03 -0.75534678596E+03  0.10037350295E+04  0.00000000000E+00 0. -1.
<mgrwt>
<rscale>  0 0.14134887E+04</rscale>
<asrwt>0</asrwt>
<pdfrwt beam="1">  1        1 0.20221797E+00 0.14134887E+04</pdfrwt>
<pdfrwt beam="2">  1       -1 0.58462618E-01 0.14134887E+04</pdfrwt>
<totfact> 0.25508023E+01</totfact>
</mgrwt>
</event>
<event>
 6    1  0.2325157E-005  0.3893819E+04  0.7818608E-02  0.8026316E-01
          2   -1    0    0  501    0  0.00000000000E+00  0.00000000000E+00  0.15829777857E+04  0.15829777857E+04  0.00000000000E+00 0.  1.
         -2   -1    0    0    0  501 -0.00000000000E+00 -0.00000000000E+00 -0.23945100221E+04  0.23945100221E+04  0.00000000000E+00 0. -1.
         23    2    1    2    0    0  0.34001774924E+03 -0.16267094752E+04 -0.14399783639E+04  0.22007660170E+04  0.89652589534E+02 0.  0.
         13    1    3    3    0    0  0.25999309793E+03 -0.10337353177E+04 -0.92034375859E+03  0.14082747431E+04  0.00000000000E+00 0. -1.
        -13    1    3    3    0    0  0.80024651305E+02 -0.59297415753E+03 -0.51963460527E+03  0.79249127397E+03  0.00000000000E+00 0.  1.
         22    1    1    2    0    0 -0.34001774924E+03  0.16267094752E+04  0.62844612746E+03  0.17767217907E+04  0.00000000000E+00 0.  1.
<mgrwt>
<rscale>  0 0.38938188E+04</rscale>
<asrwt>0</asrwt>
<pdfrwt beam="1">  1        2 0.24353505E+00 0.38938188E+04</pdfrwt>
<pdfrwt beam="2">  1       -2 0.36838615E+00 0.38938188E+04</pdfrwt>
<totfact> 0.10779381E-01</totfact>
</mgrwt>
</event>
<event>
 6    1  0.2325157E-005  0.5710501E+03  0.7818608E-02  0.9967358E-01
         -2   -1    0    0    0  501 -0.00000000000E+00  0.00000000000E+00  0.42846864517E+02  0.42846864517E+02  0.00000000000E+00 0. -1.
          2   -1    0    0  501    0  0.00000000000E+00 -0.00000000000E+00 -0.19026955993E+04  0.19026955993E+04  0.00000000000E+00 0.  1.
         23    2    1    2    0    0 -0.19854755031E+02  0.22663949273E+03 -0.14988077961E+04  0.15187987113E+04  0.92547526259E+02 0.  0.
         13    1    3    3    0    0 -0.26289897667E+02  0.14209618866E+03 -0.11835082406E+04  0.11922978827E+04  0.00000000000E+00 0. -1.
        -13    1    3    3    0    0  0.64351426360E+01  0.84543304069E+02 -0.31529955553E+03  0.32650082854E+03  0.00000000000E+00 0.  1.
         22    1    1    2    0    0  0.19854755031E+02 -0.22663949273E+03 -0.36104093862E+03  0.42674375253E+03  0.00000000000E+00 0. -1.
<mgrwt>
<rscale>  0 0.57105005E+03</rscale>
<asrwt>0</asrwt>
<pdfrwt beam="1">  1        2 0.29272237E+00 0.57105005E+03</pdfrwt>
<pdfrwt beam="2">  1       -2 0.65918260E-02 0.57105005E+03</pdfrwt>
<totfact> 0.10447686E+03</totfact>
</mgrwt>
</event>
<event>
 6    1  0.2325157E-005  0.3328352E+04  0.7818608E-02  0.8155718E-01
         -2   -1    0    0    0  501 -0.00000000000E+00  0.00000000000E+00  0.14989750828E+04  0.14989750828E+04  0.00000000000E+00 0. -1.
          2   -1    0    0  501    0  0.00000000000E+00 -0.00000000000E+00 -0.18475834441E+04  0.18475834441E+04  0.00000000000E+00 0.  1.
         23    2    1    2    0    0  0.69572912563E+03  0.69572219538E+03  0.11733649999E+04  0.15342474880E+04  0.95192131710E+02 0.  0.
         13    1    3    3    0    0  0.69623738816E+02  0.11559769621E+03  0.16071636806E+03  0.20985719749E+03  0.00000000000E+00 0. -1.
        -13    1    3    3    0    0  0.62610538681E+03  0.58012449916E+03  0.10126486319E+04  0.13243902905E+04  0.00000000000E+00 0.  1.
         22    1    1    2    0    0 -0.69572912563E+03 -0.69572219538E+03 -0.15219733612E+04  0.18123110389E+04  0.00000000000E+00 0.  1.
<mgrwt>
<rscale>  0 0.33283519E+04</rscale>
<asrwt>0</asrwt>
<pdfrwt beam="1">  1        2 0.28424361E+00 0.33283519E+04</pdfrwt>
<pdfrwt beam="2">  1       -2 0.23061155E+00 0.33283519E+04</pdfrwt>
<totfact> 0.57344420E-01</totfact>
</mgrwt>
</event>
<event>
 6    1  0.2325157E-005  0.1326247E+04  0.7818608E-02  0.9009006E-01
         -2   -1    0    0    0  501 -0.00000000000E+00  0.00000000000E+00  0.10802389053E+04  0.10802389053E+04  0.00000000000E+00 0. -1.
          2   -1    0    0  501    0  0.00000000000E+00 -0.00000000000E+00 -0.40706971203E+03  0.40706971203E+03  0.00000000000E+00 0.  1.
         23    2    1    2    0    0 -0.32870990745E+03  0.49642648807E+02 -0.30130468276E+03  0.45769027499E+03  0.90450429137E+02 0.  0.
         11    1    3    3    0    0 -0.17792204178E+03  0.44155449725E+02 -0.10907568489E+03  0.21331540434E+03  0.00000000000E+00 0. -1.
        -11    1    3    3    0    0 -0.15078786567E+03  0.54871990813E+01 -0.19222899786E+03  0.24437487065E+03  0.00000000000E+00 0.  1.
         22    1    1    2    0    0  0.32870990745E+03 -0.49642648807E+02  0.97447387599E+03  0.10296183423E+04  0.00000000000E+00 0. -1.
<mgrwt>
<rscale>  0 0.13262466E+04</rscale>
<asrwt>0</asrwt>
<pdfrwt beam="1">  1        2 0.62626110E-01 0.13262466E+04</pdfrwt>
<pdfrwt beam="2">  1       -2 0.16619060E+00 0.13262466E+04</pdfrwt>
<totfact> 0.17291742E+01</totfact>
</mgrwt>
</event>
<event>
 6    1  0.2325157E-005  0.2039655E+04  0.7818608E-02  0.8588302E-01
         -2   -1    0    0    0  501 -0.00000000000E+00  0.00000000000E+00  0.30021377623E+03  0.30021377623E+03  0.00000000000E+00 0. -1.
          2   -1    0    0  501    0  0.00000000000E+00 -0.00000000000E+00 -0.34643575482E+04  0.34643575482E+04  0.00000000000E+00 0.  1.
         23    2    1    2    0    0 -0.50557512657E+03 -0.79313538915E+03 -0.23022647765E+04  0.24888341426E+04  0.95928799154E+02 0.  0.
         13    1    3    3    0    0 -0.27315403474E+03 -0.44048747601E+03 -0.13918366407E+04  0.14852109540E+04  0.00000000000E+00 0. -1.
        -13    1    3    3    0    0 -0.23242109184E+03 -0.35264791314E+03 -0.91042813572E+03  0.10036231887E+04  0.00000000000E+00 0.  1.
         22    1    1    2    0    0  0.50557512657E+03  0.79313538915E+03 -0.86187899554E+03  0.12757371818E+04  0.00000000000E+00 0. -1.
<mgrwt>
<rscale>  0 0.20396547E+04</rscale>
<asrwt>0</asrwt>
<pdfrwt beam="1">  1        2 0.53297812E+00 0.20396547E+04</pdfrwt>
<pdfrwt beam="2">  1       -2 0.46186731E-01 0.20396547E+04</pdfrwt>
<totfact> 0.35610049E+00</totfact>
</mgrwt>
</event>
<event>
 6    1  0.2325157E-005  0.3032922E+04  0.7818608E-02  0.8234392E-01
          2   -1    0    0  501    0  0.00000000000E+00  0.00000000000E+00  0.27350529688E+04  0.27350529688E+04  0.00000000000E+00 0.  1.
         -2   -1    0    0    0  501 -0.00000000000E+00 -0.00000000000E+00 -0.84080809555E+03  0.84080809555E+03  0.00000000000E+00 0. -1.
         23    2    1    2    0    0  0.97095318869E+03 -0.93601970140E+03  0.13402797271E+03  0.13583745338E+04  0.91295677191E+02 0.  0.
         13    1    3    3    0    0  0.31826557590E+03 -0.28575235047E+03  0.27011052149E+01  0.42773201724E+03  0.00000000000E+00 0. -1.
        -13    1    3    3    0    0  0.65268761280E+03 -0.65026735093E+03  0.13132686750E+03  0.93064251660E+03  0.00000000000E+00 0.  1.
         22    1    1    2    0    0 -0.97095318869E+03  0.93601970140E+03  0.17602169005E+04  0.22174865305E+04  0.00000000000E+00 0.  1.
<mgrwt>
<rscale>  0 0.30329225E+04</rscale>
<asrwt>0</asrwt>
<pdfrwt beam="1">  1        2 0.42077738E+00 0.30329225E+04</pdfrwt>
<pdfrwt beam="2">  1       -2 0.12935509E+00 0.30329225E+04</pdfrwt>
<totfact> 0.94970824E-01</totfact>
</mgrwt>
</event>
<event>
 6    1  0.2325157E-005  0.3913096E+04  0.7818608E-02  0.8022311E-01
          2   -1    0    0  501    0  0.00000000000E+00  0.00000000000E+00  0.24375518471E+04  0.24375518471E+04  0.00000000000E+00 0.  1.
         -2   -1    0    0    0  501 -0.00000000000E+00 -0.00000000000E+00 -0.15704613636E+04  0.15704613636E+04  0.00000000000E+00 0. -1.
         23    2    1    2    0    0 -0.57720432594E+03  0.16508163886E+04 -0.46264483930E+03  0.18110708784E+04  0.87051115510E+02 0.  0.
         11    1    3    3    0    0 -0.13537515479E+03  0.48151622817E+03 -0.15715622059E+03  0.52429227363E+03  0.00000000000E+00 0.  1.
        -11    1    3    3    0    0 -0.44182917115E+03  0.11693001604E+04 -0.30548861871E+03  0.12867786048E+04  0.00000000000E+00 0. -1.
         22    1    1    2    0    0  0.57720432594E+03 -0.16508163886E+04  0.13297353228E+04  0.21969423323E+04  0.00000000000E+00 0. -1.
<mgrwt>
<rscale>  0 0.39130965E+04</rscale>
<asrwt>0</asrwt>
<pdfrwt beam="1">  1        2 0.37500798E+00 0.39130965E+04</pdfrwt>
<pdfrwt beam="2">  1       -2 0.24160944E+00 0.39130965E+04</pdfrwt>
<totfact> 0.21756372E-01</totfact>
</mgrwt>
</event>
<event>
 6    1  0.2325157E-005  0.1702340E+04  0.7818608E-02  0.8760031E-01
         -2   -1    0    0    0  501 -0.00000000000E+00  0.00000000000E+00  0.27677360786E+03  0.27677360786E+03  0.00000000000E+00 0. -1.
          2   -1    0    0  501    0  0.00000000000E+00 -0.00000000000E+00 -0.26176268677E+04  0.26176268677E+04  0.00000000000E+00 0.  1.
         23    2    1    2    0    0  0.56751343963E+02 -0.62751739411E+03 -0.20712108555E+03  0.66958322766E+03  0.91889932674E+02 0.  0.
         11    1    3    3    0    0  0.74254455619E+02 -0.45961290764E+03 -0.12618456662E+03  0.48236945789E+03  0.00000000000E+00 0. -1.
        -11    1    3    3    0    0 -0.17503111657E+02 -0.16790448647E+03 -0.80936518936E+02  0.18721376977E+03  0.00000000000E+00 0.  1.
         22    1    1    2    0    0 -0.56751343963E+02  0.62751739411E+03 -0.21337321743E+04  0.22248172479E+04  0.00000000000E+00 0.  1.
<mgrwt>
<rscale>  0 0.17023396E+04</rscale>
<asrwt>0</asrwt>
<pdfrwt beam="1">  1        2 0.40271183E+00 0.17023396E+04</pdfrwt>
<pdfrwt beam="2">  1       -2 0.42580555E-01 0.17023396E+04</pdfrwt>
<totfact> 0.14813221E+01</totfact>
</mgrwt>
</event>
<event>
 6    1  0.3108892E-005  0.3972885E+04  0.7818608E-02  0.8010039E-01
         -2   -1    0    0    0  501 -0.00000000000E+00  0.00000000000E+00  0.13596287061E+04  0.13596287061E+04  0.00000000000E+00 0. -1.
          2   -1    0    0  501    0  0.00000000000E+00 -0.00000000000E+00 -0.29022288646E+04  0.29022288646E+04  0.00000000000E+00 0.  1.
         23    2    1    2    0    0  0.14176925371E+04 -0.10463199617E+04  0.20966214904E+03  0.17768906119E+04  0.93511698421E+02 0.  0.
         13    1    3    3    0    0  0.46034212560E+03 -0.32875808497E+03  0.11046990780E+03  0.57636824302E+03  0.00000000000E+00 0.  1.
        -13    1    3    3    0    0  0.95735041151E+03 -0.71756187672E+03  0.99192241237E+02  0.12005223688E+04  0.00000000000E+00 0. -1.
         22    1    1    2    0    0 -0.14176925371E+04  0.10463199617E+04 -0.17522623076E+04  0.24849669589E+04  0.00000000000E+00 0.  1.
<mgrwt>
<rscale>  0 0.39728849E+04</rscale>
<asrwt>0</asrwt>
<pdfrwt beam="1">  1        2 0.44649675E+00 0.39728849E+04</pdfrwt>
<pdfrwt beam="2">  1       -2 0.20917365E+00 0.39728849E+04</pdfrwt>
<totfact> 0.18346600E-01</totfact>
</mgrwt>
</event>
<event>
 6    1  0.2325157E-005  0.8912943E+03  0.7818608E-02  0.9436530E-01
          2   -1    0    0  501    0  0.00000000000E+00  0.00000000000E+00  0.89088212601E+03  0.89088212601E+03  0.00000000000E+00 0.  1.
         -2   -1    0    0    0  501 -0.00000000000E+00 -0.00000000000E+00 -0.22292667707E+03  0.22292667707E+03  0.00000000000E+00 0. -1.
         23    2    1    2    0    0  0.18293650041E+03 -0.40035057202E+03  0.30192936085E+03  0.54133920488E+03  0.90224453979E+02 0.  0.
         11    1    3    3    0    0  0.13677228135E+03 -0.20426030573E+03  0.14014212231E+03  0.28296420955E+03  0.00000000000E+00 0.  1.
        -11    1    3    3    0    0  0.46164219064E+02 -0.19609026629E+03  0.16178723854E+03  0.25837499533E+03  0.00000000000E+00 0. -1.
         22    1    1    2    0    0 -0.18293650041E+03  0.40035057202E+03  0.36602608810E+03  0.57246959820E+03  0.00000000000E+00 0. -1.
<mgrwt>
<rscale>  0 0.89129432E+03</rscale>
<asrwt>0</asrwt>
<pdfrwt beam="1">  1        2 0.13705879E+00 0.89129432E+03</pdfrwt>
<pdfrwt beam="2">  1       -2 0.34296412E-01 0.89129432E+03</pdfrwt>
<totfact> 0.23732632E+02</totfact>
</mgrwt>
</event>
<event>
 6    1  0.2325157E-005  0.1111442E+04  0.7818608E-02  0.9194111E-01
         -2   -1    0    0    0  501 -0.00000000000E+00  0.00000000000E+00  0.10002245087E+04  0.10002245087E+04  0.00000000000E+00 0. -1.
          2   -1    0    0  501    0  0.00000000000E+00 -0.00000000000E+00 -0.30875632207E+03  0.30875632207E+03  0.00000000000E+00 0.  1.
         23    2    1    2    0    0  0.36758145168E+03  0.23699724103E+03  0.74459841740E+03  0.86840548276E+03  0.91746735203E+02 0.  0.
         13    1    3    3    0    0  0.90050780922E+02  0.79604291567E+02  0.28101791176E+03  0.30564203427E+03  0.00000000000E+00 0. -1.
        -13    1    3    3    0    0  0.27753067076E+03  0.15739294947E+03  0.46358050564E+03  0.56276344850E+03  0.00000000000E+00 0.  1.
         22    1    1    2    0    0 -0.36758145168E+03 -0.23699724103E+03 -0.53130230747E+02  0.44057534804E+03  0.00000000000E+00 0.  1.
<mgrwt>
<rscale>  0 0.11114417E+04</rscale>
<asrwt>0</asrwt>
<pdfrwt beam="1">  1        2 0.47500973E-01 0.11114417E+04</pdfrwt>
<pdfrwt beam="2">  1       -2 0.15388069E+00 0.11114417E+04</pdfrwt>
<totfact> 0.29494400E+01</totfact>
</mgrwt>
</event>
<event>
 6    1  0.2325157E-005  0.2386724E+04  0.7818608E-02  0.8444491E-01
         -2   -1    0    0    0  501 -0.00000000000E+00  0.00000000000E+00  0.15970779521E+04  0.15970779521E+04  0.00000000000E+00 0. -1.
          2   -1    0    0  501    0  0.00000000000E+00 -0.00000000000E+00 -0.89169876782E+03  0.89169876782E+03  0.00000000000E+00 0.  1.
         23    2    1    2    0    0 -0.70629856883E+03 -0.31460805996E+03 -0.59230598475E+03  0.97820639795E+03  0.90694419408E+02 0.  0.
         13    1    3    3    0    0 -0.62901604137E+03 -0.29626902523E+03 -0.49987567654E+03  0.85633650372E+03  0.00000000000E+00 0. -1.
        -13    1    3    3    0    0 -0.77282527462E+02 -0.18339034727E+02 -0.92430308200E+02  0.12186989423E+03  0.00000000000E+00 0.  1.
         22    1    1    2    0    0  0.70629856883E+03  0.31460805996E+03  0.12976851690E+04  0.15105703220E+04  0.00000000000E+00 0. -1.
<mgrwt>
<rscale>  0 0.23867236E+04</rscale>
<asrwt>0</asrwt>
<pdfrwt beam="1">  1        2 0.13718443E+00 0.23867236E+04</pdfrwt>
<pdfrwt beam="2">  1       -2 0.24570430E+00 0.23867236E+04</pdfrwt>
<totfact> 0.18260658E+00</totfact>
</mgrwt>
</event>
<event>
 6    1  0.2325157E-005  0.1750111E+03  0.7818608E-02  0.1172721E+00
          2   -1    0    0  501    0  0.00000000000E+00  0.00000000000E+00  0.12214935105E+04  0.12214935105E+04  0.00000000000E+00 0.  1.
         -2   -1    0    0    0  501 -0.00000000000E+00 -0.00000000000E+00 -0.62687355937E+01  0.62687355937E+01  0.00000000000E+00 0. -1.
         23    2    1    2    0    0 -0.19572210073E+02 -0.49382544078E+02  0.10229810424E+04  0.10283146094E+04  0.90105581820E+02 0.  0.
         11    1    3    3    0    0  0.25166258507E+01 -0.70615947799E+02  0.81936778802E+03  0.82240897219E+03  0.00000000000E+00 0.  1.
        -11    1    3    3    0    0 -0.22088835924E+02  0.21233403720E+02  0.20361325435E+03  0.20590563726E+03  0.00000000000E+00 0. -1.
         22    1    1    2    0    0  0.19572210073E+02  0.49382544078E+02  0.19224373254E+03  0.19944763666E+03  0.00000000000E+00 0. -1.
<mgrwt>
<rscale>  0 0.17501108E+03</rscale>
<asrwt>0</asrwt>
<pdfrwt beam="1">  1        2 0.18792189E+00 0.17501108E+03</pdfrwt>
<pdfrwt beam="2">  1       -2 0.96442183E-03 0.17501108E+03</pdfrwt>
<totfact> 0.42236893E+04</totfact>
</mgrwt>
</event>
<event>
 6    1  0.2325157E-005  0.2486450E+04  0.7818608E-02  0.8407829E-01
         -2   -1    0    0    0  501 -0.00000000000E+00  0.00000000000E+00  0.12178519185E+04  0.12178519185E+04  0.00000000000E+00 0. -1.
          2   -1    0    0  501    0  0.00000000000E+00 -0.00000000000E+00 -0.12691266116E+04  0.12691266116E+04  0.00000000000E+00 0.  1.
         23    2    1    2    0    0  0.11095754045E+04  0.29953134316E+03  0.44401501694E+03  0.12355039995E+04  0.91892294153E+02 0.  0.
         11    1    3    3    0    0  0.59314771192E+03  0.18771204957E+03  0.27993677578E+03  0.68222036040E+03  0.00000000000E+00 0. -1.
        -11    1    3    3    0    0  0.51642769260E+03  0.11181929359E+03  0.16407824117E+03  0.55328363913E+03  0.00000000000E+00 0.  1.
         22    1    1    2    0    0 -0.11095754045E+04 -0.29953134316E+03 -0.49528971003E+03  0.12514745306E+04  0.00000000000E+00 0.  1.
<mgrwt>
<rscale>  0 0.24864499E+04</rscale>
<asrwt>0</asrwt>
<pdfrwt beam="1">  1        2 0.19525025E+00 0.24864499E+04</pdfrwt>
<pdfrwt beam="2">  1       -2 0.18736183E+00 0.24864499E+04</pdfrwt>
<totfact> 0.24849720E+00</totfact>
</mgrwt>
</event>
<event>
 6    1  0.2325157E-005  0.1274075E+04  0.7818608E-02  0.9050380E-01
         -2   -1    0    0    0  501 -0.00000000000E+00  0.00000000000E+00  0.39084659162E+03  0.39084659162E+03  0.00000000000E+00 0. -1.
          2   -1    0    0  501    0  0.00000000000E+00 -0.00000000000E+00 -0.10383017173E+04  0.10383017173E+04  0.00000000000E+00 0.  1.
         23    2    1    2    0    0 -0.15417658313E+03  0.60503476405E+03 -0.20264346775E+03  0.66253569782E+03  0.89731217334E+02 0.  0.
         11    1    3    3    0    0 -0.84310586087E+02  0.47435992366E+03 -0.16909170017E+03  0.51060514604E+03  0.00000000000E+00 0. -1.
        -11    1    3    3    0    0 -0.69865997044E+02  0.13067484039E+03 -0.33551767581E+02  0.15193055177E+03  0.00000000000E+00 0.  1.
         22    1    1    2    0    0  0.15417658313E+03 -0.60503476405E+03 -0.44481165797E+03  0.76661261114E+03  0.00000000000E+00 0.  1.
<mgrwt>
<rscale>  0 0.12740749E+04</rscale>
<asrwt>0</asrwt>
<pdfrwt beam="1">  1        2 0.15973872E+00 0.12740749E+04</pdfrwt>
<pdfrwt beam="2">  1       -2 0.60130246E-01 0.12740749E+04</pdfrwt>
<totfact> 0.60278746E+01</totfact>
</mgrwt>
</event>
<event>
 6    1  0.2325157E-005  0.1116813E+04  0.7818608E-02  0.9188958E-01
         -2   -1    0    0    0  501 -0.00000000000E+00  0.00000000000E+00  0.86435475027E+02  0.86435475027E+02  0.00000000000E+00 0. -1.
          2   -1    0    0  501    0  0.00000000000E+00 -0.00000000000E+00 -0.36075184082E+04  0.36075184082E+04  0.00000000000E+00 0.  1.
         23    2    1    2    0    0  0.22787781527E+03  0.18185642824E+03 -0.33330558652E+04  0.33470328008E+04  0.91471904269E+02 0.  0.
         13    1    3    3    0    0  0.55854426584E+02  0.37717641186E+02 -0.12741621960E+04  0.12759434310E+04  0.00000000000E+00 0. -1.
        -13    1    3    3    0    0  0.17202338869E+03  0.14413878705E+03 -0.20588936692E+04  0.20710893697E+04  0.00000000000E+00 0.  1.
         22    1    1    2    0    0 -0.22787781527E+03 -0.18185642824E+03 -0.18802706790E+03  0.34692108245E+03  0.00000000000E+00 0. -1.
<mgrwt>
<rscale>  0 0.11168125E+04</rscale>
<asrwt>0</asrwt>
<pdfrwt beam="1">  1        2 0.55500268E+00 0.11168125E+04</pdfrwt>
<pdfrwt beam="2">  1       -2 0.13297769E-01 0.11168125E+04</pdfrwt>
<totfact> 0.30088584E+01</totfact>
</mgrwt>
</event>
<event>
 6    1  0.2325157E-005  0.1113311E+04  0.7818608E-02  0.9192314E-01
          1   -1    0    0  501    0  0.00000000000E+00  0.00000000000E+00  0.20883565793E+04  0.20883565793E+04  0.00000000000E+00 0.  1.
         -1   -1    0    0    0  501 -0.00000000000E+00 -0.00000000000E+00 -0.14837771996E+03  0.14837771996E+03  0.00000000000E+00 0. -1.
         23    2    1    2    0    0  0.53029589342E+03 -0.76642124575E+02  0.12514613485E+04  0.13642985637E+04  0.89818230268E+02 0.  0.
         13    1    3    3    0    0  0.31383343387E+03 -0.52337928631E+02  0.84922164230E+03  0.90686717921E+03  0.00000000000E+00 0. -1.
        -13    1    3    3    0    0  0.21646245954E+03 -0.24304195944E+02  0.40223970618E+03  0.45743138454E+03  0.00000000000E+00 0.  1.
         22    1    1    2    0    0 -0.53029589342E+03  0.76642124575E+02  0.68851751088E+03  0.87243573553E+03  0.00000000000E+00 0. -1.
<mgrwt>
<rscale>  0 0.11133114E+04</rscale>
<asrwt>0</asrwt>
<pdfrwt beam="1">  1        1 0.32128561E+00 0.11133114E+04</pdfrwt>
<pdfrwt beam="2">  1       -1 0.22827343E-01 0.11133114E+04</pdfrwt>
<totfact> 0.42430713E+01</totfact>
</mgrwt>
</event>
<event>
 6    1  0.2325157E-005  0.2820355E+04  0.7818608E-02  0.8296977E-01
          2   -1    0    0  501    0  0.00000000000E+00  0.00000000000E+00  0.22740510115E+04  0.22740510115E+04  0.00000000000E+00 0.  1.
         -2   -1    0    0    0  501 -0.00000000000E+00 -0.00000000000E+00 -0.87447474515E+03  0.87447474515E+03  0.00000000000E+00 0. -1.
         23    2    1    2    0    0 -0.45726319036E+03  0.10585789799E+03  0.21831934036E+04  0.22350974137E+04  0.95034159822E+02 0.  0.
         11    1    3    3    0    0 -0.29525895607E+03  0.47046529851E+02  0.11851014869E+04  0.12222343316E+04  0.00000000000E+00 0.  1.
        -11    1    3    3    0    0 -0.16200423430E+03  0.58811368142E+02  0.99809191672E+03  0.10128630821E+04  0.00000000000E+00 0. -1.
         22    1    1    2    0    0  0.45726319036E+03 -0.10585789799E+03 -0.78361713726E+03  0.91342834291E+03  0.00000000000E+00 0. -1.
<mgrwt>
<rscale>  0 0.28203547E+04</rscale>
<asrwt>0</asrwt>
<pdfrwt beam="1">  1        2 0.34985400E+00 0.28203547E+04</pdfrwt>
<pdfrwt beam="2">  1       -2 0.13453458E+00 0.28203547E+04</pdfrwt>
<totfact> 0.16214024E+00</totfact>
</mgrwt>
</event>
<event>
 6    1  0.2325157E-005  0.1547486E+04  0.7818608E-02  0.8853475E-01
          2   -1    0    0  501    0  0.00000000000E+00  0.00000000000E+00  0.92795690576E+03  0.92795690576E+03  0.00000000000E+00 0.  1.
         -2   -1    0    0    0  501 -0.00000000000E+00 -0.00000000000E+00 -0.64515735041E+03  0.64515735041E+03  0.00000000000E+00 0. -1.
         23    2    1    2    0    0  0.23926238672E+02 -0.50057936555E+03  0.73755964713E+03  0.89638764432E+03  0.91457146820E+02 0.  0.
         13    1    3    3    0    0  0.51997055153E+02 -0.27954315981E+03  0.37109015467E+03  0.46749970570E+03  0.00000000000E+00 0.  1.
        -13    1    3    3    0    0 -0.28070816481E+02 -0.22103620574E+03  0.36646949246E+03  0.42888793861E+03  0.00000000000E+00 0. -1.
         22    1    1    2    0    0 -0.23926238672E+02  0.50057936555E+03 -0.45476009179E+03  0.67672661185E+03  0.00000000000E+00 0. -1.
<mgrwt>
<rscale>  0 0.15474860E+04</rscale>
<asrwt>0</asrwt>
<pdfrwt beam="1">  1        2 0.14276260E+00 0.15474860E+04</pdfrwt>
<pdfrwt beam="2">  1       -2 0.99254978E-01 0.15474860E+04</pdfrwt>
<totfact> 0.22733690E+01</totfact>
</mgrwt>
</event>
<event>
 6    1  0.2325157E-005  0.1624190E+04  0.7818608E-02  0.8805823E-01
         -2   -1    0    0    0  501 -0.00000000000E+00  0.00000000000E+00  0.44833721728E+03  0.44833721728E+03  0.00000000000E+00 0. -1.
          2   -1    0    0  501    0  0.00000000000E+00 -0.00000000000E+00 -0.14709873317E+04  0.14709873317E+04  0.00000000000E+00 0.  1.
         23    2    1    2    0    0  0.25989128513E+03 -0.50294151512E+03  0.17187608719E+03  0.59743707493E+03  0.83042287015E+02 0.  0.
         13    1    3    3    0    0  0.14142296365E+03 -0.29509929305E+03  0.57434523569E+02  0.33223902826E+03  0.00000000000E+00 0. -1.
        -13    1    3    3    0    0  0.11846832148E+03 -0.20784222208E+03  0.11444156362E+03  0.26519804667E+03  0.00000000000E+00 0.  1.
         22    1    1    2    0    0 -0.25989128513E+03  0.50294151512E+03 -0.11945262016E+04  0.13218874740E+04  0.00000000000E+00 0.  1.
<mgrwt>
<rscale>  0 0.16241901E+04</rscale>
<asrwt>0</asrwt>
<pdfrwt beam="1">  1        2 0.22630574E+00 0.16241901E+04</pdfrwt>
<pdfrwt beam="2">  1       -2 0.68974958E-01 0.16241901E+04</pdfrwt>
<totfact> 0.24222784E+01</totfact>
</mgrwt>
</event>
<event>
 6    1  0.2325157E-005  0.1299681E+04  0.7818608E-02  0.9029818E-01
         -2   -1    0    0    0  501 -0.00000000000E+00  0.00000000000E+00  0.21126398827E+03  0.21126398827E+03  0.00000000000E+00 0. -1.
          2   -1    0    0  501    0  0.00000000000E+00 -0.00000000000E+00 -0.19988871931E+04  0.19988871931E+04  0.00000000000E+00 0.  1.
         23    2    1    2    0    0  0.39478246313E+03  0.27422757389E+03 -0.16417018190E+03  0.51703167197E+03  0.96519146924E+02 0.  0.
         13    1    3    3    0    0  0.25795862938E+02  0.55647063644E+02 -0.17645682569E+02  0.63823133347E+02  0.00000000000E+00 0.  1.
        -13    1    3    3    0    0  0.36898660019E+03  0.21858051025E+03 -0.14652449933E+03  0.45320853863E+03  0.00000000000E+00 0. -1.
         22    1    1    2    0    0 -0.39478246313E+03 -0.27422757389E+03 -0.16234530230E+04  0.16931195095E+04  0.00000000000E+00 0.  1.
<mgrwt>
<rscale>  0 0.12996813E+04</rscale>
<asrwt>0</asrwt>
<pdfrwt beam="1">  1        2 0.30752110E+00 0.12996813E+04</pdfrwt>
<pdfrwt beam="2">  1       -2 0.32502153E-01 0.12996813E+04</pdfrwt>
<totfact> 0.57899191E+01</totfact>
</mgrwt>
</event>
<event>
 6    1  0.2325157E-005  0.4885545E+04  0.7818608E-02  0.7846410E-01
          2   -1    0    0  501    0  0.00000000000E+00  0.00000000000E+00  0.34489955607E+04  0.34489955607E+04  0.00000000000E+00 0.  1.
         -2   -1    0    0    0  501 -0.00000000000E+00 -0.00000000000E+00 -0.17301086838E+04  0.17301086838E+04  0.00000000000E+00 0. -1.
         23    2    1    2    0    0 -0.77313368112E+03 -0.18885845516E+04 -0.56179673895E+03  0.21187112872E+04  0.93992794802E+02 0.  0.
         11    1    3    3    0    0 -0.38021351002E+03 -0.80778834418E+03 -0.23669151053E+03  0.92363802073E+03  0.00000000000E+00 0.  1.
        -11    1    3    3    0    0 -0.39292017111E+03 -0.10807962074E+04 -0.32510522842E+03  0.11950732665E+04  0.00000000000E+00 0. -1.
         22    1    1    2    0    0  0.77313368112E+03  0.18885845516E+04  0.22806836159E+04  0.30603929573E+04  0.00000000000E+00 0.  1.
<mgrwt>
<rscale>  0 0.48855449E+04</rscale>
<asrwt>0</asrwt>
<pdfrwt beam="1">  1        2 0.53061470E+00 0.48855449E+04</pdfrwt>
<pdfrwt beam="2">  1       -2 0.26617057E+00 0.48855449E+04</pdfrwt>
<totfact> 0.33094298E-02</totfact>
</mgrwt>
</event>
<event>
 6    1  0.2325157E-005  0.2702150E+04  0.7818608E-02  0.8334308E-01
         -1   -1    0    0    0  501 -0.00000000000E+00  0.00000000000E+00  0.72057821237E+03  0.72057821237E+03  0.00000000000E+00 0. -1.
          1   -1    0    0  501    0  0.00000000000E+00 -0.00000000000E+00 -0.25332484488E+04  0.25332484488E+04  0.00000000000E+00 0.  1.
         23    2    1    2    0    0  0.71199984097E+03 -0.10356836448E+04 -0.14992776166E+04  0.19585277305E+04  0.91723027768E+02 0.  0.
         13    1    3    3    0    0  0.46376869845E+03 -0.63796882693E+03 -0.10004744497E+04  0.12739838124E+04  0.00000000000E+00 0. -1.
        -13    1    3    3    0    0  0.24823114252E+03 -0.39771481785E+03 -0.49880316695E+03  0.68454391810E+03  0.00000000000E+00 0.  1.
         22    1    1    2    0    0 -0.71199984097E+03  0.10356836448E+04 -0.31339261978E+03  0.12952989306E+04  0.00000000000E+00 0. -1.
<mgrwt>
<rscale>  0 0.27021500E+04</rscale>
<asrwt>0</asrwt>
<pdfrwt beam="1">  1        1 0.38973053E+00 0.27021500E+04</pdfrwt>
<pdfrwt beam="2">  1       -1 0.11085819E+00 0.27021500E+04</pdfrwt>
<totfact> 0.83980789E-01</totfact>
</mgrwt>
</event>
<event>
 6    1  0.2325157E-005  0.1350101E+04  0.7818608E-02  0.8990751E-01
         -2   -1    0    0    0  501 -0.00000000000E+00  0.00000000000E+00  0.20115652323E+03  0.20115652323E+03  0.00000000000E+00 0. -1.
          2   -1    0    0  501    0  0.00000000000E+00 -0.00000000000E+00 -0.22653675711E+04  0.22653675711E+04  0.00000000000E+00 0.  1.
         23    2    1    2    0    0  0.46239956850E+03 -0.11011884718E+03 -0.19049151871E+04  0.19652111255E+04  0.86100966354E+02 0.  0.
         13    1    3    3    0    0  0.24499427848E+03 -0.94306599827E+02 -0.93905215055E+03  0.97505634336E+03  0.00000000000E+00 0. -1.
        -13    1    3    3    0    0  0.21740529002E+03 -0.15812247354E+02 -0.96586303653E+03  0.99015478216E+03  0.00000000000E+00 0.  1.
         22    1    1    2    0    0 -0.46239956850E+03  0.11011884718E+03 -0.15929586081E+03  0.50131296883E+03  0.00000000000E+00 0. -1.
<mgrwt>
<rscale>  0 0.13501014E+04</rscale>
<asrwt>0</asrwt>
<pdfrwt beam="1">  1        2 0.34851810E+00 0.13501014E+04</pdfrwt>
<pdfrwt beam="2">  1       -2 0.30947157E-01 0.13501014E+04</pdfrwt>
<totfact> 0.44923604E+01</totfact>
</mgrwt>
</event>
<event>
 6    1  0.2325157E-005  0.3393514E+04  0.7818608E-02  0.8139500E-01
          2   -1    0    0  501    0  0.00000000000E+00  0.00000000000E+00  0.34185576939E+04  0.34185576939E+04  0.00000000000E+00 0.  1.
         -2   -1    0    0    0  501 -0.00000000000E+00 -0.00000000000E+00 -0.84216336232E+03  0.84216336232E+03  0.00000000000E+00 0. -1.
         23    2    1    2    0    0 -0.82022040248E+03  0.11588200847E+03  0.31465425375E+04  0.32551072510E+04  0.93824979301E+02 0.  0.
         11    1    3    3    0    0 -0.26664539513E+03  0.11606433176E+02  0.11545399623E+04  0.11849881859E+04  0.00000000000E+00 0. -1.
        -11    1    3    3    0    0 -0.55357500735E+03  0.10427557529E+03  0.19920025752E+04  0.20701190651E+04  0.00000000000E+00 0.  1.
         22    1    1    2    0    0  0.82022040248E+03 -0.11588200847E+03 -0.57014820592E+03  0.10056138052E+04  0.00000000000E+00 0. -1.
<mgrwt>
<rscale>  0 0.33935138E+04</rscale>
<asrwt>0</asrwt>
<pdfrwt beam="1">  1        2 0.52593195E+00 0.33935138E+04</pdfrwt>
<pdfrwt beam="2">  1       -2 0.12956360E+00 0.33935138E+04</pdfrwt>
<totfact> 0.33569268E-01</totfact>
</mgrwt>
</event>
<event>
 6    1  0.2325157E-005  0.1216708E+04  0.7818608E-02  0.9098356E-01
         -2   -1    0    0    0  501 -0.00000000000E+00  0.00000000000E+00  0.46416428546E+03  0.46416428546E+03  0.00000000000E+00 0.  1.
          2   -1    0    0  501    0  0.00000000000E+00 -0.00000000000E+00 -0.79733562887E+03  0.79733562887E+03  0.00000000000E+00 0. -1.
         23    2    1    2    0    0  0.40680285180E+03  0.43786726286E+03 -0.26413356627E+03  0.65985008695E+03  0.91756723494E+02 0.  0.
         11    1    3    3    0    0  0.10447306883E+03  0.15566746746E+03 -0.49490389519E+02  0.19389760492E+03  0.00000000000E+00 0. -1.
        -11    1    3    3    0    0  0.30232978297E+03  0.28219979539E+03 -0.21464317675E+03  0.46595248203E+03  0.00000000000E+00 0.  1.
         22    1    1    2    0    0 -0.40680285180E+03 -0.43786726286E+03 -0.69037777134E+02  0.60164982738E+03  0.00000000000E+00 0. -1.
<mgrwt>
<rscale>  0 0.12167082E+04</rscale>
<asrwt>0</asrwt>
<pdfrwt beam="1">  1        2 0.12266702E+00 0.12167082E+04</pdfrwt>
<pdfrwt beam="2">  1       -2 0.71409890E-01 0.12167082E+04</pdfrwt>
<totfact> 0.60712835E+01</totfact>
</mgrwt>
</event>
<event>
 6    1  0.2325157E-005  0.2742317E+04  0.7818608E-02  0.8321404E-01
         -2   -1    0    0    0  501 -0.00000000000E+00  0.00000000000E+00  0.64156092868E+03  0.64156092868E+03  0.00000000000E+00 0. -1.
          2   -1    0    0  501    0  0.00000000000E+00 -0.00000000000E+00 -0.29304705339E+04  0.29304705339E+04  0.00000000000E+00 0.  1.
         23    2    1    2    0    0  0.66812952815E+03  0.11896742991E+04 -0.99134407188E+03  0.16891086501E+04  0.92752135370E+02 0.  0.
         11    1    3    3    0    0  0.18271113691E+03  0.25410980053E+03 -0.24863017804E+03  0.39971504313E+03  0.00000000000E+00 0.  1.
        -11    1    3    3    0    0  0.48541839125E+03  0.93556449861E+03 -0.74271389384E+03  0.12893936070E+04  0.00000000000E+00 0. -1.
         22    1    1    2    0    0 -0.66812952815E+03 -0.11896742991E+04 -0.12975655333E+04  0.18829228125E+04  0.00000000000E+00 0. -1.
<mgrwt>
<rscale>  0 0.27423168E+04</rscale>
<asrwt>0</asrwt>
<pdfrwt beam="1">  1        2 0.45084161E+00 0.27423168E+04</pdfrwt>
<pdfrwt beam="2">  1       -2 0.98701683E-01 0.27423168E+04</pdfrwt>
<totfact> 0.14324421E+00</totfact>
</mgrwt>
</event>
<event>
 6    1  0.2325157E-005  0.3790054E+04  0.7818608E-02  0.8048293E-01
          2   -1    0    0  501    0  0.00000000000E+00  0.00000000000E+00  0.48448594628E+04  0.48448594628E+04  0.00000000000E+00 0.  1.
         -2   -1    0    0    0  501 -0.00000000000E+00 -0.00000000000E+00 -0.74122407507E+03  0.74122407507E+03  0.00000000000E+00 0. -1.
         23    2    1    2    0    0  0.41462820474E+03  0.13738931191E+04  0.23037966065E+03  0.14555135072E+04  0.77109862252E+02 0.  0.
         13    1    3    3    0    0  0.30220419447E+03  0.10426865590E+04  0.20537722145E+03  0.11048540350E+04  0.00000000000E+00 0. -1.
        -13    1    3    3    0    0  0.11242401027E+03  0.33120656002E+03  0.25002439199E+02  0.35065947221E+03  0.00000000000E+00 0.  1.
         22    1    1    2    0    0 -0.41462820474E+03 -0.13738931191E+04  0.38732557271E+04  0.41305700307E+04  0.00000000000E+00 0.  1.
<mgrwt>
<rscale>  0 0.37900535E+04</rscale>
<asrwt>0</asrwt>
<pdfrwt beam="1">  1        2 0.74536297E+00 0.37900535E+04</pdfrwt>
<pdfrwt beam="2">  1       -2 0.11403448E+00 0.37900535E+04</pdfrwt>
<totfact> 0.25318691E-02</totfact>
</mgrwt>
</event>
<event>
 6    1  0.2325157E-005  0.1877833E+04  0.7818608E-02  0.8665969E-01
         -2   -1    0    0    0  501 -0.00000000000E+00  0.00000000000E+00  0.39671194230E+03  0.39671194230E+03  0.00000000000E+00 0. -1.
          2   -1    0    0  501    0  0.00000000000E+00 -0.00000000000E+00 -0.22221778321E+04  0.22221778321E+04  0.00000000000E+00 0.  1.
         23    2    1    2    0    0  0.56833593734E+03 -0.20182809570E+03 -0.19144237636E+04  0.20092556045E+04  0.91375158586E+02 0.  0.
         11    1    3    3    0    0  0.87876182471E+02 -0.67676530870E+02 -0.37040952116E+03  0.38665947504E+03  0.00000000000E+00 0. -1.
        -11    1    3    3    0    0  0.48045975487E+03 -0.13415156483E+03 -0.15440142425E+04  0.16225961294E+04  0.00000000000E+00 0.  1.
         22    1    1    2    0    0 -0.56833593734E+03  0.20182809570E+03  0.88957873760E+02  0.60963416997E+03  0.00000000000E+00 0. -1.
<mgrwt>
<rscale>  0 0.18778333E+04</rscale>
<asrwt>0</asrwt>
<pdfrwt beam="1">  1        2 0.34187350E+00 0.18778333E+04</pdfrwt>
<pdfrwt beam="2">  1       -2 0.61032609E-01 0.18778333E+04</pdfrwt>
<totfact> 0.11760925E+01</totfact>
</mgrwt>
</event>
<event>
 6    1  0.2325157E-005  0.1429862E+04  0.7818608E-02  0.8932482E-01
          2   -1    0    0  501    0  0.00000000000E+00  0.00000000000E+00  0.15415822896E+04  0.15415822896E+04  0.00000000000E+00 0.  1.
         -2   -1    0    0    0  501 -0.00000000000E+00 -0.00000000000E+00 -0.33155975661E+03  0.33155975661E+03  0.00000000000E+00 0. -1.
         23    2    1    2    0    0  0.44307215246E+03 -0.23192440457E+02  0.13369920305E+04  0.14116530703E+04  0.91465182137E+02 0.  0.
         13    1    3    3    0    0  0.24181687941E+03  0.12399525000E+02  0.84209830708E+03  0.87621841465E+03  0.00000000000E+00 0.  1.
        -13    1    3    3    0    0  0.20125527305E+03 -0.35591965457E+02  0.49489372347E+03  0.53543465564E+03  0.00000000000E+00 0. -1.
         22    1    1    2    0    0 -0.44307215246E+03  0.23192440457E+02 -0.12696949755E+03  0.46148897591E+03  0.00000000000E+00 0. -1.
<mgrwt>
<rscale>  0 0.14298624E+04</rscale>
<asrwt>0</asrwt>
<pdfrwt beam="1">  1        2 0.23716650E+00 0.14298624E+04</pdfrwt>
<pdfrwt beam="2">  1       -2 0.51009194E-01 0.14298624E+04</pdfrwt>
<totfact> 0.42420697E+01</totfact>
</mgrwt>
</event>
<event>
 6    1  0.2325157E-005  0.2836824E+04  0.7818608E-02  0.8291926E-01
         -2   -1    0    0    0  501 -0.00000000000E+00  0.00000000000E+00  0.77777909929E+03  0.77777909929E+03  0.00000000000E+00 0. -1.
          2   -1    0    0  501    0  0.00000000000E+00 -0.00000000000E+00 -0.25867151385E+04  0.25867151385E+04  0.00000000000E+00 0.  1.
         23    2    1    2    0    0 -0.23495044852E+03 -0.11554129124E+04 -0.18370294444E+04  0.21851003465E+04  0.99023398539E+02 0.  0.
         13    1    3    3    0    0 -0.70392231764E+02 -0.41688673274E+03 -0.57641054425E+03  0.71484175154E+03  0.00000000000E+00 0. -1.
        -13    1    3    3    0    0 -0.16455821675E+03 -0.73852617965E+03 -0.12606189001E+04  0.14702585950E+04  0.00000000000E+00 0.  1.
         22    1    1    2    0    0  0.23495044852E+03  0.11554129124E+04  0.28093405157E+02  0.11793938913E+04  0.00000000000E+00 0.  1.
<mgrwt>
<rscale>  0 0.28368243E+04</rscale>
<asrwt>0</asrwt>
<pdfrwt beam="1">  1        2 0.39795617E+00 0.28368243E+04</pdfrwt>
<pdfrwt beam="2">  1       -2 0.11965832E+00 0.28368243E+04</pdfrwt>
<totfact> 0.14370797E+00</totfact>
</mgrwt>
</event>
<event>
 6    1  0.2611113E-005  0.2294525E+04  0.7818608E-02  0.8480083E-01
          2   -1    0    0  501    0  0.00000000000E+00  0.00000000000E+00  0.21578030997E+04  0.21578030997E+04  0.00000000000E+00 0.  1.
         -2   -1    0    0    0  501 -0.00000000000E+00 -0.00000000000E+00 -0.60997762483E+03  0.60997762483E+03  0.00000000000E+00 0. -1.
         23    2    1    2    0    0 -0.23912241423E+03 -0.25417218287E+03 -0.54071483284E+03  0.65028606232E+03  0.93361688381E+02 0.  0.
         11    1    3    3    0    0 -0.58980911741E+02 -0.12905695788E+03 -0.21600486040E+03  0.25844253915E+03  0.00000000000E+00 0. -1.
        -11    1    3    3    0    0 -0.18014150249E+03 -0.12511522499E+03 -0.32470997244E+03  0.39184352317E+03  0.00000000000E+00 0.  1.
         22    1    1    2    0    0  0.23912241423E+03  0.25417218287E+03  0.20885403077E+04  0.21174946622E+04  0.00000000000E+00 0.  1.
<mgrwt>
<rscale>  0 0.22945253E+04</rscale>
<asrwt>0</asrwt>
<pdfrwt beam="1">  1        2 0.33196970E+00 0.22945253E+04</pdfrwt>
<pdfrwt beam="2">  1       -2 0.93842713E-01 0.22945253E+04</pdfrwt>
<totfact> 0.47435740E+00</totfact>
</mgrwt>
</event>
<event>
 6    1  0.2325157E-005  0.1665048E+04  0.7818608E-02  0.8781554E-01
          2   -1    0    0  501    0  0.00000000000E+00  0.00000000000E+00  0.12976935300E+04  0.12976935300E+04  0.00000000000E+00 0.  1.
         -2   -1    0    0    0  501 -0.00000000000E+00 -0.00000000000E+00 -0.53409836501E+03  0.53409836501E+03  0.00000000000E+00 0. -1.
         23    2    1    2    0    0 -0.22417591014E+03  0.61160433384E+03  0.94894794123E+03  0.11545398359E+04  0.90251524679E+02 0.  0.
         11    1    3    3    0    0 -0.78058227263E+02  0.11771849924E+03  0.23542582012E+03  0.27454698812E+03  0.00000000000E+00 0.  1.
        -11    1    3    3    0    0 -0.14611768288E+03  0.49388583461E+03  0.71352212112E+03  0.87999284781E+03  0.00000000000E+00 0. -1.
         22    1    1    2    0    0  0.22417591014E+03 -0.61160433384E+03 -0.18535277625E+03  0.67725205908E+03  0.00000000000E+00 0. -1.
<mgrwt>
<rscale>  0 0.16650477E+04</rscale>
<asrwt>0</asrwt>
<pdfrwt beam="1">  1        2 0.19964516E+00 0.16650477E+04</pdfrwt>
<pdfrwt beam="2">  1       -2 0.82168980E-01 0.16650477E+04</pdfrwt>
<totfact> 0.20591146E+01</totfact>
</mgrwt>
</event>
<event>
 6    1  0.2325157E-005  0.4446625E+04  0.7818608E-02  0.7920048E-01
          2   -1    0    0  501    0  0.00000000000E+00  0.00000000000E+00  0.20477232588E+04  0.20477232588E+04  0.00000000000E+00 0.  1.
         -2   -1    0    0    0  501 -0.00000000000E+00 -0.00000000000E+00 -0.24139582110E+04  0.24139582110E+04  0.00000000000E+00 0. -1.
         23    2    1    2    0    0 -0.12679905729E+03  0.19133150563E+04  0.94410981609E+03  0.21392138344E+04  0.89665929404E+02 0.  0.
         13    1    3    3    0    0 -0.57555026658E+02  0.79404197115E+03  0.34321594185E+03  0.86695583266E+03  0.00000000000E+00 0. -1.
        -13    1    3    3    0    0 -0.69244030636E+02  0.11192730852E+04  0.60089387424E+03  0.12722580018E+04  0.00000000000E+00 0.  1.
         22    1    1    2    0    0  0.12679905729E+03 -0.19133150563E+04 -0.13103447683E+04  0.23224676354E+04  0.00000000000E+00 0. -1.
<mgrwt>
<rscale>  0 0.44466250E+04</rscale>
<asrwt>0</asrwt>
<pdfrwt beam="1">  1        2 0.31503435E+00 0.44466250E+04</pdfrwt>
<pdfrwt beam="2">  1       -2 0.37137819E+00 0.44466250E+04</pdfrwt>
<totfact> 0.54401495E-02</totfact>
</mgrwt>
</event>
<event>
 6    1  0.2325157E-005  0.2328399E+04  0.7818608E-02  0.8466807E-01
         -2   -1    0    0    0  501 -0.00000000000E+00  0.00000000000E+00  0.12350575002E+04  0.12350575002E+04  0.00000000000E+00 0. -1.
          2   -1    0    0  501    0  0.00000000000E+00 -0.00000000000E+00 -0.10974068818E+04  0.10974068818E+04  0.00000000000E+00 0.  1.
         23    2    1    2    0    0  0.91742370188E+03 -0.32369926609E+03 -0.56847020032E+03  0.11303603623E+04  0.90048410953E+02 0.  0.
         11    1    3    3    0    0  0.78325926079E+03 -0.30912184280E+03 -0.48836952931E+03  0.97342497424E+03  0.00000000000E+00 0.  1.
        -11    1    3    3    0    0  0.13416444109E+03 -0.14577423288E+02 -0.80100671012E+02  0.15693538804E+03  0.00000000000E+00 0. -1.
         22    1    1    2    0    0 -0.91742370188E+03  0.32369926609E+03  0.70612081869E+03  0.12021040197E+04  0.00000000000E+00 0. -1.
<mgrwt>
<rscale>  0 0.23283991E+04</rscale>
<asrwt>0</asrwt>
<pdfrwt beam="1">  1        2 0.16883183E+00 0.23283991E+04</pdfrwt>
<pdfrwt beam="2">  1       -2 0.19000885E+00 0.23283991E+04</pdfrwt>
<totfact> 0.30649630E+00</totfact>
</mgrwt>
</event>
<event>
 6    1  0.2325157E-005  0.2826005E+04  0.7818608E-02  0.8295240E-01
          2   -1    0    0  501    0  0.00000000000E+00  0.00000000000E+00  0.18214248450E+04  0.18214248450E+04  0.00000000000E+00 0.  1.
         -2   -1    0    0    0  501 -0.00000000000E+00 -0.00000000000E+00 -0.10961613210E+04  0.10961613210E+04  0.00000000000E+00 0. -1.
         23    2    1    2    0    0 -0.64353838795E+03  0.10874116931E+04  0.10125872924E+04  0.16217617972E+04  0.90401631904E+02 0.  0.
         13    1    3    3    0    0 -0.35264432570E+03  0.65114277171E+03  0.54836173851E+03  0.92143666405E+03  0.00000000000E+00 0. -1.
        -13    1    3    3    0    0 -0.29089406225E+03  0.43626892137E+03  0.46422555390E+03  0.70032513313E+03  0.00000000000E+00 0.  1.
         22    1    1    2    0    0  0.64353838795E+03 -0.10874116931E+04 -0.28732376837E+03  0.12958243688E+04  0.00000000000E+00 0.  1.
<mgrwt>
<rscale>  0 0.28260046E+04</rscale>
<asrwt>0</asrwt>
<pdfrwt beam="1">  1        2 0.28021921E+00 0.28260046E+04</pdfrwt>
<pdfrwt beam="2">  1       -2 0.16864020E+00 0.28260046E+04</pdfrwt>
<totfact> 0.15890845E+00</totfact>
</mgrwt>
</event>
<event>
 6    1  0.2325157E-005  0.4581509E+04  0.7818608E-02  0.7896520E-01
          2   -1    0    0  501    0  0.00000000000E+00  0.00000000000E+00  0.26283688297E+04  0.26283688297E+04  0.00000000000E+00 0.  1.
         -2   -1    0    0    0  501 -0.00000000000E+00 -0.00000000000E+00 -0.19965064166E+04  0.19965064166E+04  0.00000000000E+00 0. -1.
         23    2    1    2    0    0  0.12884157156E+04  0.18130639366E+04  0.86546451461E+03  0.23884079794E+04  0.90818254333E+02 0.  0.
         13    1    3    3    0    0  0.67965755066E+03  0.88148699011E+03  0.44709605568E+03  0.11995201469E+04  0.00000000000E+00 0.  1.
        -13    1    3    3    0    0  0.60875816498E+03  0.93157694647E+03  0.41836845893E+03  0.11888878324E+04  0.00000000000E+00 0. -1.
         22    1    1    2    0    0 -0.12884157156E+04 -0.18130639366E+04 -0.23360210157E+03  0.22364672670E+04  0.00000000000E+00 0. -1.
<mgrwt>
<rscale>  0 0.45815086E+04</rscale>
<asrwt>0</asrwt>
<pdfrwt beam="1">  1        2 0.40436443E+00 0.45815086E+04</pdfrwt>
<pdfrwt beam="2">  1       -2 0.30715483E+00 0.45815086E+04</pdfrwt>
<totfact> 0.63324614E-02</totfact>
</mgrwt>
</event>
<event>
 6    1  0.2325157E-005  0.2177333E+04  0.7818608E-02  0.8527922E-01
         -2   -1    0    0    0  501 -0.00000000000E+00  0.00000000000E+00  0.58500705080E+03  0.58500705080E+03  0.00000000000E+00 0. -1.
          2   -1    0    0  501    0  0.00000000000E+00 -0.00000000000E+00 -0.20259489605E+04  0.20259489605E+04  0.00000000000E+00 0.  1.
         23    2    1    2    0    0  0.76684329017E+03  0.54132966090E+03 -0.13784518127E+04  0.16702161717E+04  0.91685478555E+02 0.  0.
         11    1    3    3    0    0  0.39086987694E+03  0.32400910593E+03 -0.70146752307E+03  0.86592023152E+03  0.00000000000E+00 0. -1.
        -11    1    3    3    0    0  0.37597341323E+03  0.21732055497E+03 -0.67698428960E+03  0.80429594021E+03  0.00000000000E+00 0.  1.
         22    1    1    2    0    0 -0.76684329017E+03 -0.54132966090E+03 -0.62490096980E+02  0.94073983953E+03  0.00000000000E+00 0. -1.
<mgrwt>
<rscale>  0 0.21773327E+04</rscale>
<asrwt>0</asrwt>
<pdfrwt beam="1">  1        2 0.31168446E+00 0.21773327E+04</pdfrwt>
<pdfrwt beam="2">  1       -2 0.90001084E-01 0.21773327E+04</pdfrwt>
<totfact> 0.62534655E+00</totfact>
</mgrwt>
</event>
<event>
 6    1  0.2325157E-005  0.2743052E+04  0.7818608E-02  0.8321170E-01
          2   -1    0    0  501    0  0.00000000000E+00  0.00000000000E+00  0.18622227341E+04  0.18622227341E+04  0.00000000000E+00 0.  1.
         -2   -1    0    0    0  501 -0.00000000000E+00 -0.00000000000E+00 -0.10101282381E+04  0.10101282381E+04  0.00000000000E+00 0. -1.
         23    2    1    2    0    0  0.10358098908E+04 -0.39172790954E+03 -0.41807945289E+03  0.11872115876E+04  0.91258094339E+02 0.  0.
         11    1    3    3    0    0  0.74503632690E+03 -0.31731117559E+03 -0.28006797852E+03  0.85685680434E+03  0.00000000000E+00 0. -1.
        -11    1    3    3    0    0  0.29077356394E+03 -0.74416733948E+02 -0.13801147438E+03  0.33035478328E+03  0.00000000000E+00 0.  1.
         22    1    1    2    0    0 -0.10358098908E+04  0.39172790954E+03  0.12701739489E+04  0.16851393846E+04  0.00000000000E+00 0.  1.
<mgrwt>
<rscale>  0 0.27430521E+04</rscale>
<asrwt>0</asrwt>
<pdfrwt beam="1">  1        2 0.28649580E+00 0.27430521E+04</pdfrwt>
<pdfrwt beam="2">  1       -2 0.15540434E+00 0.27430521E+04</pdfrwt>
<totfact> 0.18994118E+00</totfact>
</mgrwt>
</event>
<event>
 6    1  0.2325157E-005  0.3991626E+04  0.7818608E-02  0.8006238E-01
          2   -1    0    0  501    0  0.00000000000E+00  0.00000000000E+00  0.81608659777E+03  0.81608659777E+03  0.00000000000E+00 0.  1.
         -2   -1    0    0    0  501 -0.00000000000E+00 -0.00000000000E+00 -0.48809391849E+04  0.48809391849E+04  0.00000000000E+00 0. -1.
         23    2    1    2    0    0  0.13290389669E+04  0.55640436677E+03 -0.64716843842E+02  0.14453183186E+04  0.93948802126E+02 0.  0.
         13    1    3    3    0    0  0.57264077900E+03  0.21110928132E+03  0.10805607440E+02  0.61041080559E+03  0.00000000000E+00 0.  1.
        -13    1    3    3    0    0  0.75639818790E+03  0.34529508545E+03 -0.75522451282E+02  0.83490751305E+03  0.00000000000E+00 0. -1.
         22    1    1    2    0    0 -0.13290389669E+04 -0.55640436677E+03 -0.40001357433E+04  0.42517074640E+04  0.00000000000E+00 0. -1.
<mgrwt>
<rscale>  0 0.39916258E+04</rscale>
<asrwt>0</asrwt>
<pdfrwt beam="1">  1        2 0.12555178E+00 0.39916258E+04</pdfrwt>
<pdfrwt beam="2">  1       -2 0.75091372E+00 0.39916258E+04</pdfrwt>
<totfact> 0.37604503E-03</totfact>
</mgrwt>
</event>
<event>
 6    1  0.2325157E-005  0.1371674E+04  0.7818608E-02  0.8974581E-01
         -2   -1    0    0    0  501 -0.00000000000E+00  0.00000000000E+00  0.16707275559E+04  0.16707275559E+04  0.00000000000E+00 0. -1.
          2   -1    0    0  501    0  0.00000000000E+00 -0.00000000000E+00 -0.28153749824E+03  0.28153749824E+03  0.00000000000E+00 0.  1.
         23    2    1    2    0    0 -0.15403916927E+03  0.36775281002E+03 -0.91592520465E+02  0.41874386465E+03  0.89370237961E+02 0.  0.
         13    1    3    3    0    0 -0.12252055295E+03  0.29419554975E+03 -0.34733891749E+02  0.32057565507E+03  0.00000000000E+00 0. -1.
        -13    1    3    3    0    0 -0.31518616321E+02  0.73557260265E+02 -0.56858628717E+02  0.98168209579E+02  0.00000000000E+00 0.  1.
         22    1    1    2    0    0  0.15403916927E+03 -0.36775281002E+03  0.14807825781E+04  0.15335211895E+04  0.00000000000E+00 0. -1.
<mgrwt>
<rscale>  0 0.13716741E+04</rscale>
<asrwt>0</asrwt>
<pdfrwt beam="1">  1        2 0.43313462E-01 0.13716741E+04</pdfrwt>
<pdfrwt beam="2">  1       -2 0.25703500E+00 0.13716741E+04</pdfrwt>
<totfact> 0.66987148E+00</totfact>
</mgrwt>
</event>
<event>
 6    1  0.2325157E-005  0.1345229E+04  0.7818608E-02  0.8994448E-01
         -1   -1    0    0    0  501 -0.00000000000E+00  0.00000000000E+00  0.35779100153E+03  0.35779100153E+03  0.00000000000E+00 0. -1.
          1   -1    0    0  501    0  0.00000000000E+00 -0.00000000000E+00 -0.12644537566E+04  0.12644537566E+04  0.00000000000E+00 0.  1.
         23    2    1    2    0    0  0.39967584347E+03  0.66518748346E+02 -0.10981312697E+04  0.11741089352E+04  0.92054237476E+02 0.  0.
         11    1    3    3    0    0  0.28628032523E+03  0.77330495224E+02 -0.86942330989E+03  0.91860400711E+03  0.00000000000E+00 0. -1.
        -11    1    3    3    0    0  0.11339551824E+03 -0.10811746878E+02 -0.22870795977E+03  0.25550492811E+03  0.00000000000E+00 0.  1.
         22    1    1    2    0    0 -0.39967584347E+03 -0.66518748346E+02  0.19146851455E+03  0.44813582294E+03  0.00000000000E+00 0.  1.
<mgrwt>
<rscale>  0 0.13452289E+04</rscale>
<asrwt>0</asrwt>
<pdfrwt beam="1">  1        1 0.19453135E+00 0.13452289E+04</pdfrwt>
<pdfrwt beam="2">  1       -1 0.55044769E-01 0.13452289E+04</pdfrwt>
<totfact> 0.31331847E+01</totfact>
</mgrwt>
</event>
<event>
 6    1  0.2325157E-005  0.2632050E+04  0.7818608E-02  0.8357395E-01
          2   -1    0    0  501    0  0.00000000000E+00  0.00000000000E+00  0.17481022680E+04  0.17481022680E+04  0.00000000000E+00 0.  1.
         -2   -1    0    0    0  501 -0.00000000000E+00 -0.00000000000E+00 -0.99074367607E+03  0.99074367607E+03  0.00000000000E+00 0. -1.
         23    2    1    2    0    0 -0.11683557157E+02 -0.65103974576E+03  0.15672547195E+04  0.16996534723E+04  0.92440868434E+02 0.  0.
         13    1    3    3    0    0 -0.37600825941E+02 -0.28670694206E+03  0.77733074667E+03  0.82937192046E+03  0.00000000000E+00 0. -1.
        -13    1    3    3    0    0  0.25917268784E+02 -0.36433280370E+03  0.78992397280E+03  0.87028155184E+03  0.00000000000E+00 0.  1.
         22    1    1    2    0    0  0.11683557157E+02  0.65103974576E+03 -0.80989612751E+03  0.10391924718E+04  0.00000000000E+00 0.  1.
<mgrwt>
<rscale>  0 0.26320496E+04</rscale>
<asrwt>0</asrwt>
<pdfrwt beam="1">  1        2 0.26893881E+00 0.26320496E+04</pdfrwt>
<pdfrwt beam="2">  1       -2 0.15242210E+00 0.26320496E+04</pdfrwt>
<totfact> 0.23360521E+00</totfact>
</mgrwt>
</event>
<event>
 6    1  0.2325157E-005  0.4518987E+04  0.7818608E-02  0.7907321E-01
          2   -1    0    0  501    0  0.00000000000E+00  0.00000000000E+00  0.38650559113E+04  0.38650559113E+04  0.00000000000E+00 0.  1.
         -2   -1    0    0    0  501 -0.00000000000E+00 -0.00000000000E+00 -0.13208893111E+04  0.13208893111E+04  0.00000000000E+00 0. -1.
         23    2    1    2    0    0  0.11399315202E+04  0.15034177458E+04  0.26974788972E+04  0.32930074396E+04  0.88299529688E+02 0.  0.
         11    1    3    3    0    0  0.61743695758E+03  0.87799357760E+03  0.15694719785E+04  0.19014056407E+04  0.00000000000E+00 0. -1.
        -11    1    3    3    0    0  0.52249456263E+03  0.62542416824E+03  0.11280069187E+04  0.13916017989E+04  0.00000000000E+00 0.  1.
         22    1    1    2    0    0 -0.11399315202E+04 -0.15034177458E+04 -0.15331229698E+03  0.18929377828E+04  0.00000000000E+00 0. -1.
<mgrwt>
<rscale>  0 0.45189871E+04</rscale>
<asrwt>0</asrwt>
<pdfrwt beam="1">  1        2 0.59462398E+00 0.45189871E+04</pdfrwt>
<pdfrwt beam="2">  1       -2 0.20321374E+00 0.45189871E+04</pdfrwt>
<totfact> 0.41813415E-02</totfact>
</mgrwt>
</event>
<event>
 6    1  0.2325157E-005  0.1263213E+04  0.7818608E-02  0.9059258E-01
          2   -1    0    0  501    0  0.00000000000E+00  0.00000000000E+00  0.71384323384E+03  0.71384323384E+03  0.00000000000E+00 0.  1.
         -2   -1    0    0    0  501 -0.00000000000E+00 -0.00000000000E+00 -0.55884340221E+03  0.55884340221E+03  0.00000000000E+00 0. -1.
         23    2    1    2    0    0 -0.60994386602E+03  0.94863267364E+02  0.19667580303E+03  0.65400461289E+03  0.89499178711E+02 0.  0.
         11    1    3    3    0    0 -0.10782083711E+03  0.51923336094E+02  0.42455963191E+02  0.12697981948E+03  0.00000000000E+00 0. -1.
        -11    1    3    3    0    0 -0.50212302892E+03  0.42939931269E+02  0.15421983983E+03  0.52702479341E+03  0.00000000000E+00 0.  1.
         22    1    1    2    0    0  0.60994386602E+03 -0.94863267364E+02 -0.41675971392E+02  0.61868202316E+03  0.00000000000E+00 0. -1.
<mgrwt>
<rscale>  0 0.12632127E+04</rscale>
<asrwt>0</asrwt>
<pdfrwt beam="1">  1        2 0.10982204E+00 0.12632127E+04</pdfrwt>
<pdfrwt beam="2">  1       -2 0.85975908E-01 0.12632127E+04</pdfrwt>
<totfact> 0.46120100E+01</totfact>
</mgrwt>
</event>
<event>
 6    1  0.2325157E-005  0.3084871E+04  0.7818608E-02  0.8219902E-01
         -2   -1    0    0    0  501 -0.00000000000E+00  0.00000000000E+00  0.18527568768E+04  0.18527568768E+04  0.00000000000E+00 0. -1.
          2   -1    0    0  501    0  0.00000000000E+00 -0.00000000000E+00 -0.12840900699E+04  0.12840900699E+04  0.00000000000E+00 0.  1.
         23    2    1    2    0    0  0.13760297772E+03 -0.14769145629E+04 -0.14057366224E+03  0.14926957223E+04  0.90378975496E+02 0.  0.
         11    1    3    3    0    0  0.75294938616E+02 -0.58874832615E+03 -0.95767732809E+02  0.60121990817E+03  0.00000000000E+00 0.  1.
        -11    1    3    3    0    0  0.62308039103E+02 -0.88816623678E+03 -0.44805929432E+02  0.89147581414E+03  0.00000000000E+00 0. -1.
         22    1    1    2    0    0 -0.13760297772E+03  0.14769145629E+04  0.70924046913E+03  0.16441512244E+04  0.00000000000E+00 0. -1.
<mgrwt>
<rscale>  0 0.30848706E+04</rscale>
<asrwt>0</asrwt>
<pdfrwt beam="1">  1        2 0.19755232E+00 0.30848706E+04</pdfrwt>
<pdfrwt beam="2">  1       -2 0.28503952E+00 0.30848706E+04</pdfrwt>
<totfact> 0.56326277E-01</totfact>
</mgrwt>
</event>
<event>
 6    1  0.2325157E-005  0.1204555E+04  0.7818608E-02  0.9108879E-01
          2   -1    0    0  501    0  0.00000000000E+00  0.00000000000E+00  0.90377749876E+03  0.90377749876E+03  0.00000000000E+00 0.  1.
         -2   -1    0    0    0  501 -0.00000000000E+00 -0.00000000000E+00 -0.40135778005E+03  0.40135778005E+03  0.00000000000E+00 0. -1.
         23    2    1    2    0    0 -0.16176082472E+03  0.72580197046E+02 -0.36712040733E+03  0.41770388416E+03  0.90910351181E+02 0.  0.
         13    1    3    3    0    0 -0.13882326295E+03  0.34752770202E+02 -0.20747668178E+03  0.25204409705E+03  0.00000000000E+00 0.  1.
        -13    1    3    3    0    0 -0.22937561768E+02  0.37827426844E+02 -0.15964372554E+03  0.16565978712E+03  0.00000000000E+00 0. -1.
         22    1    1    2    0    0  0.16176082472E+03 -0.72580197046E+02  0.86954012603E+03  0.88743139464E+03  0.00000000000E+00 0.  1.
<mgrwt>
<rscale>  0 0.12045549E+04</rscale>
<asrwt>0</asrwt>
<pdfrwt beam="1">  1        2 0.13904269E+00 0.12045549E+04</pdfrwt>
<pdfrwt beam="2">  1       -2 0.61747351E-01 0.12045549E+04</pdfrwt>
<totfact> 0.70085654E+01</totfact>
</mgrwt>
</event>
<event>
 6    1  0.2325157E-005  0.1599406E+04  0.7818608E-02  0.8820913E-01
          2   -1    0    0  501    0  0.00000000000E+00  0.00000000000E+00  0.47163961538E+03  0.47163961538E+03  0.00000000000E+00 0.  1.
         -2   -1    0    0    0  501 -0.00000000000E+00 -0.00000000000E+00 -0.13559607588E+04  0.13559607588E+04  0.00000000000E+00 0. -1.
         23    2    1    2    0    0  0.72387469407E+03 -0.32484037024E+03 -0.34703135812E+03  0.86937485153E+03  0.76590013072E+02 0.  0.
         13    1    3    3    0    0  0.15519064839E+02  0.31431284241E+00  0.14690794007E+01  0.15591611858E+02  0.00000000000E+00 0.  1.
        -13    1    3    3    0    0  0.70835562923E+03 -0.32515468309E+03 -0.34850043752E+03  0.85378323968E+03  0.00000000000E+00 0. -1.
         22    1    1    2    0    0 -0.72387469407E+03  0.32484037024E+03 -0.53728978530E+03  0.95822552264E+03  0.00000000000E+00 0. -1.
<mgrwt>
<rscale>  0 0.15994059E+04</rscale>
<asrwt>0</asrwt>
<pdfrwt beam="1">  1        2 0.72559943E-01 0.15994059E+04</pdfrwt>
<pdfrwt beam="2">  1       -2 0.20860934E+00 0.15994059E+04</pdfrwt>
<totfact> 0.73800252E+00</totfact>
</mgrwt>
</event>
<event>
 6    1  0.2325157E-005  0.5308839E+04  0.7818608E-02  0.7782555E-01
         -2   -1    0    0    0  501 -0.00000000000E+00  0.00000000000E+00  0.28198346944E+04  0.28198346944E+04  0.00000000000E+00 0. -1.
          2   -1    0    0  501    0  0.00000000000E+00 -0.00000000000E+00 -0.24987075858E+04  0.24987075858E+04  0.00000000000E+00 0.  1.
         23    2    1    2    0    0 -0.16137549786E+04  0.19936482374E+04 -0.52102966985E+03  0.26189003660E+04  0.91262174322E+02 0.  0.
         13    1    3    3    0    0 -0.11036747668E+04  0.13045712145E+04 -0.36925306456E+03  0.17482425090E+04  0.00000000000E+00 0.  1.
        -13    1    3    3    0    0 -0.51008021180E+03  0.68907702296E+03 -0.15177660529E+03  0.87065785700E+03  0.00000000000E+00 0. -1.
         22    1    1    2    0    0  0.16137549786E+04 -0.19936482374E+04  0.84215677852E+03  0.26996419142E+04  0.00000000000E+00 0.  1.
<mgrwt>
<rscale>  0 0.53088388E+04</rscale>
<asrwt>0</asrwt>
<pdfrwt beam="1">  1        2 0.38441655E+00 0.53088388E+04</pdfrwt>
<pdfrwt beam="2">  1       -2 0.43382072E+00 0.53088388E+04</pdfrwt>
<totfact> 0.11031327E-02</totfact>
</mgrwt>
</event>
<event>
 6    1  0.2325157E-005  0.3424640E+04  0.7818608E-02  0.8131885E-01
          1   -1    0    0  501    0  0.00000000000E+00  0.00000000000E+00  0.20323531567E+04  0.20323531567E+04  0.00000000000E+00 0. -1.
         -1   -1    0    0    0  501 -0.00000000000E+00 -0.00000000000E+00 -0.14426825980E+04  0.14426825980E+04  0.00000000000E+00 0.  1.
         23    2    1    2    0    0 -0.21208098559E+03  0.20339516260E+03  0.20055541217E+04  0.20289810529E+04  0.90381642987E+02 0.  0.
         11    1    3    3    0    0 -0.14170848918E+03  0.74764943047E+02  0.98419836689E+03  0.99715471117E+03  0.00000000000E+00 0.  1.
        -11    1    3    3    0    0 -0.70372496407E+02  0.12863021956E+03  0.10213557548E+04  0.10318263417E+04  0.00000000000E+00 0. -1.
         22    1    1    2    0    0  0.21208098559E+03 -0.20339516260E+03 -0.14158835630E+04  0.14460547018E+04  0.00000000000E+00 0.  1.
<mgrwt>
<rscale>  0 0.34246404E+04</rscale>
<asrwt>0</asrwt>
<pdfrwt beam="1">  1        1 0.31266972E+00 0.34246404E+04</pdfrwt>
<pdfrwt beam="2">  1       -1 0.22195117E+00 0.34246404E+04</pdfrwt>
<totfact> 0.24839834E-01</totfact>
</mgrwt>
</event>
<event>
 6    1  0.2325157E-005  0.6413606E+03  0.7818608E-02  0.9823127E-01
         -2   -1    0    0    0  501 -0.00000000000E+00  0.00000000000E+00  0.88884859659E+02  0.88884859659E+02  0.00000000000E+00 0. -1.
          2   -1    0    0  501    0  0.00000000000E+00 -0.00000000000E+00 -0.11569558174E+04  0.11569558174E+04  0.00000000000E+00 0.  1.
         23    2    1    2    0    0 -0.18296408183E+03  0.95822616558E+02 -0.10047211476E+04  0.10298058939E+04  0.91530135580E+02 0.  0.
         13    1    3    3    0    0 -0.10698988005E+03  0.10227757195E+03 -0.71969075578E+03  0.73475323757E+03  0.00000000000E+00 0.  1.
        -13    1    3    3    0    0 -0.75974201783E+02 -0.64549553918E+01 -0.28503039179E+03  0.29505265637E+03  0.00000000000E+00 0. -1.
         22    1    1    2    0    0  0.18296408183E+03 -0.95822616558E+02 -0.63349810210E+02  0.21603478317E+03  0.00000000000E+00 0. -1.
<mgrwt>
<rscale>  0 0.64136060E+03</rscale>
<asrwt>0</asrwt>
<pdfrwt beam="1">  1        2 0.17799319E+00 0.64136060E+03</pdfrwt>
<pdfrwt beam="2">  1       -2 0.13674594E-01 0.64136060E+03</pdfrwt>
<totfact> 0.83167176E+02</totfact>
</mgrwt>
</event>
<event>
 6    1  0.2325157E-005  0.2531212E+04  0.7818608E-02  0.8391950E-01
          2   -1    0    0  501    0  0.00000000000E+00  0.00000000000E+00  0.20407116914E+04  0.20407116914E+04  0.00000000000E+00 0.  1.
         -2   -1    0    0    0  501 -0.00000000000E+00 -0.00000000000E+00 -0.78490221761E+03  0.78490221761E+03  0.00000000000E+00 0. -1.
         23    2    1    2    0    0 -0.41459863683E+03  0.24807550835E+03  0.19325749569E+04  0.19940821858E+04  0.89912805092E+02 0.  0.
         11    1    3    3    0    0 -0.38169000738E+03  0.21691464250E+03  0.18302911479E+04  0.18822074567E+04  0.00000000000E+00 0. -1.
        -11    1    3    3    0    0 -0.32908629442E+02  0.31160865847E+02  0.10228380895E+03  0.11187472917E+03  0.00000000000E+00 0.  1.
         22    1    1    2    0    0  0.41459863683E+03 -0.24807550835E+03 -0.67676548309E+03  0.83153172315E+03  0.00000000000E+00 0. -1.
<mgrwt>
<rscale>  0 0.25312125E+04</rscale>
<asrwt>0</asrwt>
<pdfrwt beam="1">  1        2 0.31395564E+00 0.25312125E+04</pdfrwt>
<pdfrwt beam="2">  1       -2 0.12075419E+00 0.25312125E+04</pdfrwt>
<totfact> 0.29490525E+00</totfact>
</mgrwt>
</event>
<event>
 6    1  0.2325157E-005  0.1866447E+04  0.7818608E-02  0.8671740E-01
         -1   -1    0    0    0  501 -0.00000000000E+00  0.00000000000E+00  0.37062553098E+03  0.37062553098E+03  0.00000000000E+00 0.  1.
          1   -1    0    0  501    0  0.00000000000E+00 -0.00000000000E+00 -0.23498277608E+04  0.23498277608E+04  0.00000000000E+00 0. -1.
         23    2    1    2    0    0 -0.63811698434E+03  0.30786882096E+03 -0.18723325062E+04  0.20039355778E+04  0.90290030376E+02 0.  0.
         13    1    3    3    0    0 -0.36128801781E+03  0.14593420519E+03 -0.92233767854E+03  0.10012655079E+04  0.00000000000E+00 0.  1.
        -13    1    3    3    0    0 -0.27682896653E+03  0.16193461578E+03 -0.94999482768E+03  0.10026700699E+04  0.00000000000E+00 0. -1.
         22    1    1    2    0    0  0.63811698434E+03 -0.30786882096E+03 -0.10686972363E+03  0.71651771399E+03  0.00000000000E+00 0.  1.
<mgrwt>
<rscale>  0 0.18664471E+04</rscale>
<asrwt>0</asrwt>
<pdfrwt beam="1">  1        1 0.36151196E+00 0.18664471E+04</pdfrwt>
<pdfrwt beam="2">  1       -1 0.57019313E-01 0.18664471E+04</pdfrwt>
<totfact> 0.50289351E+00</totfact>
</mgrwt>
</event>
<event>
 6    1  0.2325157E-005  0.3322137E+04  0.7818608E-02  0.8157285E-01
          2   -1    0    0  501    0  0.00000000000E+00  0.00000000000E+00  0.19398791515E+04  0.19398791515E+04  0.00000000000E+00 0.  1.
         -2   -1    0    0    0  501 -0.00000000000E+00 -0.00000000000E+00 -0.14223301576E+04  0.14223301576E+04  0.00000000000E+00 0. -1.
         23    2    1    2    0    0  0.53752442360E+03 -0.15602486089E+04  0.79059973920E+02  0.16547021062E+04  0.92088833295E+02 0.  0.
         11    1    3    3    0    0  0.36231675629E+03 -0.11655623935E+04  0.74534061213E+02  0.12228509522E+04  0.00000000000E+00 0.  1.
        -11    1    3    3    0    0  0.17520766731E+03 -0.39468621535E+03  0.45259127071E+01  0.43185115393E+03  0.00000000000E+00 0. -1.
         22    1    1    2    0    0 -0.53752442360E+03  0.15602486089E+04  0.43848901999E+03  0.17075072030E+04  0.00000000000E+00 0.  1.
<mgrwt>
<rscale>  0 0.33221370E+04</rscale>
<asrwt>0</asrwt>
<pdfrwt beam="1">  1        2 0.29844295E+00 0.33221370E+04</pdfrwt>
<pdfrwt beam="2">  1       -2 0.21882003E+00 0.33221370E+04</pdfrwt>
<totfact> 0.60497038E-01</totfact>
</mgrwt>
</event>
<event>
 6    1  0.2325157E-005  0.2847195E+04  0.7818608E-02  0.8288764E-01
         -2   -1    0    0    0  501 -0.00000000000E+00  0.00000000000E+00  0.18601979954E+04  0.18601979954E+04  0.00000000000E+00 0. -1.
          2   -1    0    0  501    0  0.00000000000E+00 -0.00000000000E+00 -0.10894697301E+04  0.10894697301E+04  0.00000000000E+00 0.  1.
         23    2    1    2    0    0 -0.90541570468E+03 -0.10964621489E+04  0.36366012644E+03  0.14705763449E+04  0.91319529593E+02 0.  0.
         13    1    3    3    0    0 -0.50199887718E+03 -0.63643888859E+03  0.16441238573E+03  0.82709658697E+03  0.00000000000E+00 0. -1.
        -13    1    3    3    0    0 -0.40341682750E+03 -0.46002326031E+03  0.19924774071E+03  0.64347975797E+03  0.00000000000E+00 0.  1.
         22    1    1    2    0    0  0.90541570468E+03  0.10964621489E+04  0.40706813894E+03  0.14790913805E+04  0.00000000000E+00 0. -1.
<mgrwt>
<rscale>  0 0.28471947E+04</rscale>
<asrwt>0</asrwt>
<pdfrwt beam="1">  1        2 0.16761073E+00 0.28471947E+04</pdfrwt>
<pdfrwt beam="2">  1       -2 0.28618431E+00 0.28471947E+04</pdfrwt>
<totfact> 0.74007779E-01</totfact>
</mgrwt>
</event>
<event>
 6    1  0.2325157E-005  0.2889208E+04  0.7818608E-02  0.8276096E-01
          1   -1    0    0  501    0  0.00000000000E+00  0.00000000000E+00  0.15438861815E+04  0.15438861815E+04  0.00000000000E+00 0. -1.
         -1   -1    0    0    0  501 -0.00000000000E+00 -0.00000000000E+00 -0.13517062016E+04  0.13517062016E+04  0.00000000000E+00 0.  1.
         23    2    1    2    0    0 -0.11707044182E+04  0.83011458796E+03 -0.55962773410E+02  0.14391536133E+04  0.91609097802E+02 0.  0.
         13    1    3    3    0    0 -0.12385965531E+03  0.83797650001E+02  0.21989058375E+02  0.15115151024E+03  0.00000000000E+00 0.  1.
        -13    1    3    3    0    0 -0.10468447629E+04  0.74631693796E+03 -0.77951831785E+02  0.12880021031E+04  0.00000000000E+00 0. -1.
         22    1    1    2    0    0  0.11707044182E+04 -0.83011458796E+03  0.24814275333E+03  0.14564387697E+04  0.00000000000E+00 0.  1.
<mgrwt>
<rscale>  0 0.28892079E+04</rscale>
<asrwt>0</asrwt>
<pdfrwt beam="1">  1        1 0.23752095E+00 0.28892079E+04</pdfrwt>
<pdfrwt beam="2">  1       -1 0.20795480E+00 0.28892079E+04</pdfrwt>
<totfact> 0.69567520E-01</totfact>
</mgrwt>
</event>
<event>
 6    1  0.4104954E-005  0.3294407E+04  0.7818608E-02  0.8164320E-01
         -2   -1    0    0    0  501 -0.00000000000E+00  0.00000000000E+00  0.11758398247E+04  0.11758398247E+04  0.00000000000E+00 0.  1.
          2   -1    0    0  501    0  0.00000000000E+00 -0.00000000000E+00 -0.23075251029E+04  0.23075251029E+04  0.00000000000E+00 0. -1.
         23    2    1    2    0    0 -0.26013161498E+03  0.56914174951E+01 -0.22848022257E+04  0.23012568344E+04  0.88096298862E+02 0.  0.
         11    1    3    3    0    0 -0.84037563905E+02 -0.27663653499E+02 -0.53093898599E+03  0.53825997131E+03  0.00000000000E+00 0. -1.
        -11    1    3    3    0    0 -0.17609405107E+03  0.33355070994E+02 -0.17538632397E+04  0.17629968631E+04  0.00000000000E+00 0.  1.
         22    1    1    2    0    0  0.26013161498E+03 -0.56914174951E+01  0.11531169475E+04  0.11821080932E+04  0.00000000000E+00 0.  1.
<mgrwt>
<rscale>  0 0.32944073E+04</rscale>
<asrwt>0</asrwt>
<pdfrwt beam="1">  1        2 0.35500386E+00 0.32944073E+04</pdfrwt>
<pdfrwt beam="2">  1       -2 0.18089844E+00 0.32944073E+04</pdfrwt>
<totfact> 0.67050809E-01</totfact>
</mgrwt>
</event>
<event>
 6    1  0.2325157E-005  0.5000119E+04  0.7818608E-02  0.7828489E-01
         -2   -1    0    0    0  501 -0.00000000000E+00  0.00000000000E+00  0.24704531338E+04  0.24704531338E+04  0.00000000000E+00 0. -1.
          2   -1    0    0  501    0  0.00000000000E+00 -0.00000000000E+00 -0.25300206061E+04  0.25300206061E+04  0.00000000000E+00 0.  1.
         23    2    1    2    0    0  0.17178260747E+04 -0.52305369014E+03 -0.17682618850E+04  0.25217345076E+04  0.88787652401E+02 0.  0.
         13    1    3    3    0    0  0.50630601614E+03 -0.15569162494E+03 -0.46572472727E+03  0.70532629729E+03  0.00000000000E+00 0.  1.
        -13    1    3    3    0    0  0.12115200586E+04 -0.36736206521E+03 -0.13025371578E+04  0.18164082104E+04  0.00000000000E+00 0. -1.
         22    1    1    2    0    0 -0.17178260747E+04  0.52305369014E+03  0.17086944127E+04  0.24787392323E+04  0.00000000000E+00 0. -1.
<mgrwt>
<rscale>  0 0.50001189E+04</rscale>
<asrwt>0</asrwt>
<pdfrwt beam="1">  1        2 0.38923394E+00 0.50001189E+04</pdfrwt>
<pdfrwt beam="2">  1       -2 0.38006971E+00 0.50001189E+04</pdfrwt>
<totfact> 0.24358077E-02</totfact>
</mgrwt>
</event>
<event>
 6    1  0.2325157E-005  0.7130474E+04  0.7818608E-02  0.7564127E-01
         -2   -1    0    0    0  501 -0.00000000000E+00  0.00000000000E+00  0.44904684043E+04  0.44904684043E+04  0.00000000000E+00 0. -1.
          2   -1    0    0  501    0  0.00000000000E+00 -0.00000000000E+00 -0.28306431060E+04  0.28306431060E+04  0.00000000000E+00 0.  1.
         23    2    1    2    0    0  0.28214932839E+04 -0.68037428105E+03 -0.12948119591E+04  0.31794192431E+04  0.91843350306E+02 0.  0.
         13    1    3    3    0    0  0.20749736957E+04 -0.53009675055E+03 -0.92412861565E+03  0.23324948234E+04  0.00000000000E+00 0. -1.
        -13    1    3    3    0    0  0.74651958818E+03 -0.15027753050E+03 -0.37068334342E+03  0.84692441977E+03  0.00000000000E+00 0.  1.
         22    1    1    2    0    0 -0.28214932839E+04  0.68037428105E+03  0.29546372574E+04  0.41416922672E+04  0.00000000000E+00 0. -1.
<mgrwt>
<rscale>  0 0.71304736E+04</rscale>
<asrwt>0</asrwt>
<pdfrwt beam="1">  1        2 0.43548356E+00 0.71304736E+04</pdfrwt>
<pdfrwt beam="2">  1       -2 0.69084129E+00 0.71304736E+04</pdfrwt>
<totfact> 0.34451856E-04</totfact>
</mgrwt>
</event>
<event>
 6    1  0.2325157E-005  0.3278160E+04  0.7818608E-02  0.8168475E-01
         -2   -1    0    0    0  501 -0.00000000000E+00  0.00000000000E+00  0.12536403824E+04  0.12536403824E+04  0.00000000000E+00 0. -1.
          2   -1    0    0  501    0  0.00000000000E+00 -0.00000000000E+00 -0.21430255271E+04  0.21430255271E+04  0.00000000000E+00 0.  1.
         23    2    1    2    0    0 -0.14116729110E+04  0.26699268498E+03  0.36969374888E+03  0.14863295093E+04  0.91632095124E+02 0.  0.
         11    1    3    3    0    0 -0.40033610638E+03  0.38454858341E+02  0.12268845719E+03  0.42047619639E+03  0.00000000000E+00 0. -1.
        -11    1    3    3    0    0 -0.10113368046E+04  0.22853782664E+03  0.24700529169E+03  0.10658533130E+04  0.00000000000E+00 0.  1.
         22    1    1    2    0    0  0.14116729110E+04 -0.26699268498E+03 -0.12590788936E+04  0.19103364002E+04  0.00000000000E+00 0.  1.
<mgrwt>
<rscale>  0 0.32781601E+04</rscale>
<asrwt>0</asrwt>
<pdfrwt beam="1">  1        2 0.32969624E+00 0.32781601E+04</pdfrwt>
<pdfrwt beam="2">  1       -2 0.19286775E+00 0.32781601E+04</pdfrwt>
<totfact> 0.68974216E-01</totfact>
</mgrwt>
</event>
<event>
 6    1  0.2325157E-005  0.4439120E+04  0.7818608E-02  0.7921383E-01
          2   -1    0    0  501    0  0.00000000000E+00  0.00000000000E+00  0.28995295917E+04  0.28995295917E+04  0.00000000000E+00 0.  1.
         -2   -1    0    0    0  501 -0.00000000000E+00 -0.00000000000E+00 -0.16990500496E+04  0.16990500496E+04  0.00000000000E+00 0. -1.
         23    2    1    2    0    0 -0.11373273070E+04  0.10228218408E+04  0.22652757900E+04  0.27348551524E+04  0.90996585718E+02 0.  0.
         13    1    3    3    0    0 -0.60759255625E+03  0.51618711779E+03  0.12505857351E+04  0.14830989636E+04  0.00000000000E+00 0. -1.
        -13    1    3    3    0    0 -0.52973475070E+03  0.50663472303E+03  0.10146900549E+04  0.12517561888E+04  0.00000000000E+00 0.  1.
         22    1    1    2    0    0  0.11373273070E+04 -0.10228218408E+04 -0.10647962479E+04  0.18637244889E+04  0.00000000000E+00 0. -1.
<mgrwt>
<rscale>  0 0.44391197E+04</rscale>
<asrwt>0</asrwt>
<pdfrwt beam="1">  1        2 0.44608148E+00 0.44391197E+04</pdfrwt>
<pdfrwt beam="2">  1       -2 0.26139232E+00 0.44391197E+04</pdfrwt>
<totfact> 0.83717954E-02</totfact>
</mgrwt>
</event>
<event>
 6    1  0.2325157E-005  0.4262131E+04  0.7818608E-02  0.7953658E-01
          2   -1    0    0  501    0  0.00000000000E+00  0.00000000000E+00  0.24839762411E+04  0.24839762411E+04  0.00000000000E+00 0.  1.
         -2   -1    0    0    0  501 -0.00000000000E+00 -0.00000000000E+00 -0.18282949408E+04  0.18282949408E+04  0.00000000000E+00 0. -1.
         23    2    1    2    0    0 -0.20572376675E+04  0.42295112006E+03  0.68736389190E+03  0.22117668955E+04  0.91264503614E+02 0.  0.
         13    1    3    3    0    0 -0.92148582299E+03  0.19193791777E+03  0.35580023150E+03  0.10062654178E+04  0.00000000000E+00 0. -1.
        -13    1    3    3    0    0 -0.11357518445E+04  0.23101320229E+03  0.33156366040E+03  0.12055014777E+04  0.00000000000E+00 0.  1.
         22    1    1    2    0    0  0.20572376675E+04 -0.42295112006E+03 -0.31682591599E+02  0.21005042864E+04  0.00000000000E+00 0. -1.
<mgrwt>
<rscale>  0 0.42621315E+04</rscale>
<asrwt>0</asrwt>
<pdfrwt beam="1">  1        2 0.38215019E+00 0.42621315E+04</pdfrwt>
<pdfrwt beam="2">  1       -2 0.28127615E+00 0.42621315E+04</pdfrwt>
<totfact> 0.11362513E-01</totfact>
</mgrwt>
</event>
<event>
 6    1  0.2325157E-005  0.1497889E+04  0.7818608E-02  0.8885858E-01
         -2   -1    0    0    0  501 -0.00000000000E+00  0.00000000000E+00  0.15291229238E+04  0.15291229238E+04  0.00000000000E+00 0. -1.
          2   -1    0    0  501    0  0.00000000000E+00 -0.00000000000E+00 -0.36682338624E+03  0.36682338624E+03  0.00000000000E+00 0.  1.
         23    2    1    2    0    0 -0.64900746507E+03 -0.33794326948E+03  0.76836660257E+03  0.10649231453E+04  0.90872032865E+02 0.  0.
         13    1    3    3    0    0 -0.88874776687E+02 -0.60112998296E+02  0.15922042355E+03  0.19199854627E+03  0.00000000000E+00 0.  1.
        -13    1    3    3    0    0 -0.56013268838E+03 -0.27783027118E+03  0.60914617902E+03  0.87292459903E+03  0.00000000000E+00 0. -1.
         22    1    1    2    0    0  0.64900746507E+03  0.33794326948E+03  0.39393293503E+03  0.83102316478E+03  0.00000000000E+00 0.  1.
<mgrwt>
<rscale>  0 0.14978892E+04</rscale>
<asrwt>0</asrwt>
<pdfrwt beam="1">  1        2 0.56434368E-01 0.14978892E+04</pdfrwt>
<pdfrwt beam="2">  1       -2 0.23524968E+00 0.14978892E+04</pdfrwt>
<totfact> 0.67161279E+00</totfact>
</mgrwt>
</event>
<event>
 6    1  0.2325157E-005  0.1748087E+04  0.7818608E-02  0.8734404E-01
          1   -1    0    0  501    0  0.00000000000E+00  0.00000000000E+00  0.15518200914E+04  0.15518200914E+04  0.00000000000E+00 0.  1.
         -1   -1    0    0    0  501 -0.00000000000E+00 -0.00000000000E+00 -0.49229445848E+03  0.49229445848E+03  0.00000000000E+00 0. -1.
         23    2    1    2    0    0  0.73332593717E+03  0.38400867744E+03  0.21171548117E+03  0.85920457531E+03  0.90440382484E+02 0.  0.
         11    1    3    3    0    0  0.40457670856E+03  0.19877937143E+03  0.16005423591E+03  0.47834392444E+03  0.00000000000E+00 0. -1.
        -11    1    3    3    0    0  0.32874922861E+03  0.18522930601E+03  0.51661245262E+02  0.38086065086E+03  0.00000000000E+00 0.  1.
         22    1    1    2    0    0 -0.73332593717E+03 -0.38400867744E+03  0.84781015178E+03  0.11849099746E+04  0.00000000000E+00 0.  1.
<mgrwt>
<rscale>  0 0.17480874E+04</rscale>
<asrwt>0</asrwt>
<pdfrwt beam="1">  1        1 0.23874155E+00 0.17480874E+04</pdfrwt>
<pdfrwt beam="2">  1       -1 0.75737610E-01 0.17480874E+04</pdfrwt>
<totfact> 0.99985087E+00</totfact>
</mgrwt>
</event>
<event>
 6    1  0.2325157E-005  0.2504185E+04  0.7818608E-02  0.8401496E-01
         -2   -1    0    0    0  501 -0.00000000000E+00  0.00000000000E+00  0.38362086356E+03  0.38362086356E+03  0.00000000000E+00 0. -1.
          2   -1    0    0  501    0  0.00000000000E+00 -0.00000000000E+00 -0.40866791303E+04  0.40866791303E+04  0.00000000000E+00 0.  1.
         23    2    1    2    0    0  0.59238193950E+03 -0.23793147530E+03  0.64845112177E+02  0.64870037825E+03  0.95286635882E+02 0.  0.
         11    1    3    3    0    0  0.14741050860E+03 -0.10195234104E+03  0.33713799036E+02  0.18237532217E+03  0.00000000000E+00 0.  1.
        -11    1    3    3    0    0  0.44497143089E+03 -0.13597913426E+03  0.31131313141E+02  0.46632505608E+03  0.00000000000E+00 0. -1.
         22    1    1    2    0    0 -0.59238193950E+03  0.23793147530E+03 -0.37679033790E+04  0.38215996157E+04  0.00000000000E+00 0.  1.
<mgrwt>
<rscale>  0 0.25041848E+04</rscale>
<asrwt>0</asrwt>
<pdfrwt beam="1">  1        2 0.62871991E+00 0.25041848E+04</pdfrwt>
<pdfrwt beam="2">  1       -2 0.59018590E-01 0.25041848E+04</pdfrwt>
<totfact> 0.69689551E-01</totfact>
</mgrwt>
</event>
<event>
 6    1  0.2325157E-005  0.2263271E+04  0.7818608E-02  0.8492545E-01
         -2   -1    0    0    0  501 -0.00000000000E+00  0.00000000000E+00  0.30415617391E+03  0.30415617391E+03  0.00000000000E+00 0. -1.
          2   -1    0    0  501    0  0.00000000000E+00 -0.00000000000E+00 -0.42103329662E+04  0.42103329662E+04  0.00000000000E+00 0.  1.
         23    2    1    2    0    0 -0.69076197608E+03 -0.74421663088E+03 -0.29461288207E+04  0.31170977815E+04  0.74920292895E+02 0.  0.
         13    1    3    3    0    0 -0.18643640332E+03 -0.16924321770E+03 -0.65800193241E+03  0.70453413137E+03  0.00000000000E+00 0. -1.
        -13    1    3    3    0    0 -0.50432557277E+03 -0.57497341318E+03 -0.22881268883E+04  0.24125636501E+04  0.00000000000E+00 0.  1.
         22    1    1    2    0    0  0.69076197608E+03  0.74421663088E+03 -0.96004797169E+03  0.13973913586E+04  0.00000000000E+00 0. -1.
<mgrwt>
<rscale>  0 0.22632709E+04</rscale>
<asrwt>0</asrwt>
<pdfrwt beam="1">  1        2 0.64774354E+00 0.22632709E+04</pdfrwt>
<pdfrwt beam="2">  1       -2 0.46793257E-01 0.22632709E+04</pdfrwt>
<totfact> 0.90378610E-01</totfact>
</mgrwt>
</event>
<event>
 6    1  0.2325157E-005  0.8458785E+03  0.7818608E-02  0.9495885E-01
          2   -1    0    0  501    0  0.00000000000E+00  0.00000000000E+00  0.10152691334E+04  0.10152691334E+04  0.00000000000E+00 0.  1.
         -2   -1    0    0    0  501 -0.00000000000E+00 -0.00000000000E+00 -0.17618736742E+03  0.17618736742E+03  0.00000000000E+00 0. -1.
         23    2    1    2    0    0 -0.25177452339E+01  0.39058927758E+03  0.21515572762E+03  0.45535187230E+03  0.92125011158E+02 0.  0.
         11    1    3    3    0    0 -0.40415374329E+02  0.24171755358E+03  0.10663435315E+03  0.26726702651E+03  0.00000000000E+00 0. -1.
        -11    1    3    3    0    0  0.37897629096E+02  0.14887172400E+03  0.10852137448E+03  0.18808484579E+03  0.00000000000E+00 0.  1.
         22    1    1    2    0    0  0.25177452339E+01 -0.39058927758E+03  0.62392603835E+03  0.73610462852E+03  0.00000000000E+00 0.  1.
<mgrwt>
<rscale>  0 0.84587847E+03</rscale>
<asrwt>0</asrwt>
<pdfrwt beam="1">  1        2 0.15619525E+00 0.84587847E+03</pdfrwt>
<pdfrwt beam="2">  1       -2 0.27105749E-01 0.84587847E+03</pdfrwt>
<totfact> 0.30560843E+02</totfact>
</mgrwt>
</event>
<event>
 6    1  0.2325157E-005  0.4644431E+04  0.7818608E-02  0.7885828E-01
          2   -1    0    0  501    0  0.00000000000E+00  0.00000000000E+00  0.33240110815E+04  0.33240110815E+04  0.00000000000E+00 0.  1.
         -2   -1    0    0    0  501 -0.00000000000E+00 -0.00000000000E+00 -0.16223423009E+04  0.16223423009E+04  0.00000000000E+00 0. -1.
         23    2    1    2    0    0 -0.16172004504E+04  0.52581792074E+03 -0.83152660116E+03  0.18953042801E+04  0.94445980356E+02 0.  0.
         11    1    3    3    0    0 -0.62798850792E+03  0.23019292345E+03 -0.28376662041E+03  0.72655477628E+03  0.00000000000E+00 0. -1.
        -11    1    3    3    0    0 -0.98921194252E+03  0.29562499730E+03 -0.54775998075E+03  0.11687495039E+04  0.00000000000E+00 0.  1.
         22    1    1    2    0    0  0.16172004504E+04 -0.52581792074E+03  0.25331953817E+04  0.30510491023E+04  0.00000000000E+00 0.  1.
<mgrwt>
<rscale>  0 0.46444306E+04</rscale>
<asrwt>0</asrwt>
<pdfrwt beam="1">  1        2 0.51138632E+00 0.46444306E+04</pdfrwt>
<pdfrwt beam="2">  1       -2 0.24959112E+00 0.46444306E+04</pdfrwt>
<totfact> 0.51889867E-02</totfact>
</mgrwt>
</event>
<event>
 6    1  0.2625937E-005  0.1155233E+04  0.7818608E-02  0.9152969E-01
         -2   -1    0    0    0  501 -0.00000000000E+00  0.00000000000E+00  0.26125033302E+03  0.26125033302E+03  0.00000000000E+00 0. -1.
          2   -1    0    0  501    0  0.00000000000E+00 -0.00000000000E+00 -0.12770932853E+04  0.12770932853E+04  0.00000000000E+00 0.  1.
         23    2    1    2    0    0  0.61178440968E+02  0.43666717343E+03 -0.21656845733E+02  0.45076509866E+03  0.91099578538E+02 0.  0.
         11    1    3    3    0    0  0.51634442507E+02  0.16250506107E+03  0.25519076898E+02  0.17241007457E+03  0.00000000000E+00 0. -1.
        -11    1    3    3    0    0  0.95439984609E+01  0.27416211236E+03 -0.47175922631E+02  0.27835502409E+03  0.00000000000E+00 0.  1.
         22    1    1    2    0    0 -0.61178440968E+02 -0.43666717343E+03 -0.99418610652E+03  0.10875785196E+04  0.00000000000E+00 0.  1.
<mgrwt>
<rscale>  0 0.11552334E+04</rscale>
<asrwt>0</asrwt>
<pdfrwt beam="1">  1        2 0.19647590E+00 0.11552334E+04</pdfrwt>
<pdfrwt beam="2">  1       -2 0.40192358E-01 0.11552334E+04</pdfrwt>
<totfact> 0.98779621E+01</totfact>
</mgrwt>
</event>
<event>
 6    1  0.2325157E-005  0.4877054E+04  0.7818608E-02  0.7847758E-01
          2   -1    0    0  501    0  0.00000000000E+00  0.00000000000E+00  0.27652843964E+04  0.27652843964E+04  0.00000000000E+00 0.  1.
         -2   -1    0    0    0  501 -0.00000000000E+00 -0.00000000000E+00 -0.21503804453E+04  0.21503804453E+04  0.00000000000E+00 0. -1.
         23    2    1    2    0    0  0.13354979861E+04 -0.14418309596E+04  0.17611975993E+04  0.26404900100E+04  0.89101754247E+02 0.  0.
         11    1    3    3    0    0  0.64972418055E+03 -0.71042572884E+03  0.92198275912E+03  0.13330035390E+04  0.00000000000E+00 0. -1.
        -11    1    3    3    0    0  0.68577380552E+03 -0.73140523074E+03  0.83921484014E+03  0.13074864710E+04  0.00000000000E+00 0.  1.
         22    1    1    2    0    0 -0.13354979861E+04  0.14418309596E+04 -0.11462936482E+04  0.22751748317E+04  0.00000000000E+00 0. -1.
<mgrwt>
<rscale>  0 0.48770538E+04</rscale>
<asrwt>0</asrwt>
<pdfrwt beam="1">  1        2 0.42542837E+00 0.48770538E+04</pdfrwt>
<pdfrwt beam="2">  1       -2 0.33082776E+00 0.48770538E+04</pdfrwt>
<totfact> 0.36593275E-02</totfact>
</mgrwt>
</event>
<event>
 6    1  0.2325157E-005  0.3998335E+04  0.7818608E-02  0.8004882E-01
         -2   -1    0    0    0  501 -0.00000000000E+00  0.00000000000E+00  0.17448377161E+04  0.17448377161E+04  0.00000000000E+00 0. -1.
          2   -1    0    0  501    0  0.00000000000E+00 -0.00000000000E+00 -0.22905692128E+04  0.22905692128E+04  0.00000000000E+00 0.  1.
         23    2    1    2    0    0  0.18596755485E+04  0.19467014746E+03 -0.98377828569E+03  0.21149448487E+04  0.94246410382E+02 0.  0.
         13    1    3    3    0    0  0.12737110954E+04  0.10183905115E+03 -0.63694064727E+03  0.14277270520E+04  0.00000000000E+00 0. -1.
        -13    1    3    3    0    0  0.58596445306E+03  0.92831096309E+02 -0.34683763843E+03  0.68721779671E+03  0.00000000000E+00 0.  1.
         22    1    1    2    0    0 -0.18596755485E+04 -0.19467014746E+03  0.43804678905E+03  0.19204620802E+04  0.00000000000E+00 0. -1.
<mgrwt>
<rscale>  0 0.39983354E+04</rscale>
<asrwt>0</asrwt>
<pdfrwt beam="1">  1        2 0.35239526E+00 0.39983354E+04</pdfrwt>
<pdfrwt beam="2">  1       -2 0.26843657E+00 0.39983354E+04</pdfrwt>
<totfact> 0.17942901E-01</totfact>
</mgrwt>
</event>
<event>
 6    1  0.2325157E-005  0.1569218E+04  0.7818608E-02  0.8839685E-01
         -1   -1    0    0    0  501 -0.00000000000E+00  0.00000000000E+00  0.34693795366E+03  0.34693795366E+03  0.00000000000E+00 0. -1.
          1   -1    0    0  501    0  0.00000000000E+00 -0.00000000000E+00 -0.17744137431E+04  0.17744137431E+04  0.00000000000E+00 0.  1.
         23    2    1    2    0    0  0.28369471863E+03 -0.29715405883E+02  0.26836354364E+03  0.40168988631E+03  0.89275273665E+02 0.  0.
         11    1    3    3    0    0  0.15218253278E+03 -0.60326245927E+02  0.14051015953E+03  0.21573568125E+03  0.00000000000E+00 0.  1.
        -11    1    3    3    0    0  0.13151218585E+03  0.30610840044E+02  0.12785338410E+03  0.18595420506E+03  0.00000000000E+00 0. -1.
         22    1    1    2    0    0 -0.28369471863E+03  0.29715405883E+02 -0.16958393331E+04  0.17196618104E+04  0.00000000000E+00 0.  1.
<mgrwt>
<rscale>  0 0.15692182E+04</rscale>
<asrwt>0</asrwt>
<pdfrwt beam="1">  1        1 0.27298672E+00 0.15692182E+04</pdfrwt>
<pdfrwt beam="2">  1       -1 0.53375071E-01 0.15692182E+04</pdfrwt>
<totfact> 0.14446061E+01</totfact>
</mgrwt>
</event>
<event>
 6    1  0.2325157E-005  0.2378801E+04  0.7818608E-02  0.8447483E-01
          2   -1    0    0  501    0  0.00000000000E+00  0.00000000000E+00  0.14221808029E+04  0.14221808029E+04  0.00000000000E+00 0.  1.
         -2   -1    0    0    0  501 -0.00000000000E+00 -0.00000000000E+00 -0.99472152193E+03  0.99472152193E+03  0.00000000000E+00 0. -1.
         23    2    1    2    0    0  0.60558202866E+02 -0.70289365971E+03 -0.75599233169E+03  0.10391198629E+04  0.10256164574E+03 0.  0.
         11    1    3    3    0    0 -0.13667244703E+02 -0.47357288566E+02 -0.84133099415E+02  0.97508383103E+02  0.00000000000E+00 0.  1.
        -11    1    3    3    0    0  0.74225447569E+02 -0.65553637115E+03 -0.67185923228E+03  0.94161147984E+03  0.00000000000E+00 0. -1.
         22    1    1    2    0    0 -0.60558202866E+02  0.70289365971E+03  0.11834516127E+04  0.13777824619E+04  0.00000000000E+00 0.  1.
<mgrwt>
<rscale>  0 0.23788013E+04</rscale>
<asrwt>0</asrwt>
<pdfrwt beam="1">  1        2 0.21879705E+00 0.23788013E+04</pdfrwt>
<pdfrwt beam="2">  1       -2 0.15303408E+00 0.23788013E+04</pdfrwt>
<totfact> 0.35967348E+00</totfact>
</mgrwt>
</event>
<event>
 6    1  0.2325157E-005  0.1704026E+04  0.7818608E-02  0.8759072E-01
          2   -1    0    0  501    0  0.00000000000E+00  0.00000000000E+00  0.46585917243E+03  0.46585917243E+03  0.00000000000E+00 0.  1.
         -2   -1    0    0    0  501 -0.00000000000E+00 -0.00000000000E+00 -0.15582522835E+04  0.15582522835E+04  0.00000000000E+00 0. -1.
         23    2    1    2    0    0  0.27669716558E+03  0.55076750140E+03  0.14651588707E+03  0.64034786785E+03  0.93125316959E+02 0.  0.
         13    1    3    3    0    0  0.15452357127E+03  0.22194625959E+03  0.90111668905E+02  0.28505751893E+03  0.00000000000E+00 0. -1.
        -13    1    3    3    0    0  0.12217359432E+03  0.32882124181E+03  0.56404218162E+02  0.35529034893E+03  0.00000000000E+00 0.  1.
         22    1    1    2    0    0 -0.27669716558E+03 -0.55076750140E+03 -0.12389089981E+04  0.13837635880E+04  0.00000000000E+00 0. -1.
<mgrwt>
<rscale>  0 0.17040260E+04</rscale>
<asrwt>0</asrwt>
<pdfrwt beam="1">  1        2 0.71670644E-01 0.17040260E+04</pdfrwt>
<pdfrwt beam="2">  1       -2 0.23973111E+00 0.17040260E+04</pdfrwt>
<totfact> 0.47264401E+00</totfact>
</mgrwt>
</event>
<event>
 6    1  0.2325157E-005  0.1865431E+04  0.7818608E-02  0.8672257E-01
         -2   -1    0    0    0  501 -0.00000000000E+00  0.00000000000E+00  0.56129785691E+03  0.56129785691E+03  0.00000000000E+00 0. -1.
          2   -1    0    0  501    0  0.00000000000E+00 -0.00000000000E+00 -0.15499052978E+04  0.15499052978E+04  0.00000000000E+00 0.  1.
         23    2    1    2    0    0  0.67379089877E+03  0.53717586526E+03 -0.89328386492E+03  0.12442321808E+04  0.87209924461E+02 0.  0.
         13    1    3    3    0    0  0.61999533020E+03  0.46582362578E+03 -0.77942883797E+03  0.10994976913E+04  0.00000000000E+00 0. -1.
        -13    1    3    3    0    0  0.53795568565E+02  0.71352239479E+02 -0.11385502695E+03  0.14473448945E+03  0.00000000000E+00 0.  1.
         22    1    1    2    0    0 -0.67379089877E+03 -0.53717586526E+03 -0.95323575970E+02  0.86697097392E+03  0.00000000000E+00 0. -1.
<mgrwt>
<rscale>  0 0.18654313E+04</rscale>
<asrwt>0</asrwt>
<pdfrwt beam="1">  1        2 0.23844697E+00 0.18654313E+04</pdfrwt>
<pdfrwt beam="2">  1       -2 0.86353518E-01 0.18654313E+04</pdfrwt>
<totfact> 0.12986282E+01</totfact>
</mgrwt>
</event>
<event>
 6    1  0.2325157E-005  0.1601407E+04  0.7818608E-02  0.8819684E-01
         -2   -1    0    0    0  501 -0.00000000000E+00  0.00000000000E+00  0.23655239723E+03  0.23655239723E+03  0.00000000000E+00 0. -1.
          2   -1    0    0  501    0  0.00000000000E+00 -0.00000000000E+00 -0.27102923063E+04  0.27102923063E+04  0.00000000000E+00 0.  1.
         23    2    1    2    0    0 -0.53368576577E+02 -0.79015063330E+03 -0.14229460025E+04  0.16310354231E+04  0.91186606856E+02 0.  0.
         13    1    3    3    0    0 -0.33186772257E+02 -0.63408175258E+03 -0.12071366406E+04  0.13639427774E+04  0.00000000000E+00 0.  1.
        -13    1    3    3    0    0 -0.20181804320E+02 -0.15606888072E+03 -0.21580936186E+03  0.26709264576E+03  0.00000000000E+00 0. -1.
         22    1    1    2    0    0  0.53368576577E+02  0.79015063330E+03 -0.10507939067E+04  0.13158092805E+04  0.00000000000E+00 0. -1.
<mgrwt>
<rscale>  0 0.16014071E+04</rscale>
<asrwt>0</asrwt>
<pdfrwt beam="1">  1        2 0.41696807E+00 0.16014071E+04</pdfrwt>
<pdfrwt beam="2">  1       -2 0.36392675E-01 0.16014071E+04</pdfrwt>
<totfact> 0.17905122E+01</totfact>
</mgrwt>
</event>
<event>
 6    1  0.2325157E-005  0.1488845E+04  0.7818608E-02  0.8891905E-01
         -2   -1    0    0    0  501 -0.00000000000E+00  0.00000000000E+00  0.53781707281E+03  0.53781707281E+03  0.00000000000E+00 0. -1.
          2   -1    0    0  501    0  0.00000000000E+00 -0.00000000000E+00 -0.10303958861E+04  0.10303958861E+04  0.00000000000E+00 0.  1.
         23    2    1    2    0    0 -0.65580378390E+03  0.33221430378E+03 -0.34944706623E+03  0.81925925968E+03  0.92884529713E+02 0.  0.
         11    1    3    3    0    0 -0.39597729285E+03  0.15288090899E+03 -0.18124577410E+03  0.46154156845E+03  0.00000000000E+00 0. -1.
        -11    1    3    3    0    0 -0.25982649106E+03  0.17933339479E+03 -0.16820129214E+03  0.35771769123E+03  0.00000000000E+00 0.  1.
         22    1    1    2    0    0  0.65580378390E+03 -0.33221430378E+03 -0.14313174710E+03  0.74895369927E+03  0.00000000000E+00 0. -1.
<mgrwt>
<rscale>  0 0.14888445E+04</rscale>
<asrwt>0</asrwt>
<pdfrwt beam="1">  1        2 0.15852244E+00 0.14888445E+04</pdfrwt>
<pdfrwt beam="2">  1       -2 0.82741089E-01 0.14888445E+04</pdfrwt>
<totfact> 0.29842741E+01</totfact>
</mgrwt>
</event>
<event>
 6    1  0.2325157E-005  0.1535877E+04  0.7818608E-02  0.8860939E-01
         -2   -1    0    0    0  501 -0.00000000000E+00  0.00000000000E+00  0.30322206964E+03  0.30322206964E+03  0.00000000000E+00 0. -1.
          2   -1    0    0  501    0  0.00000000000E+00 -0.00000000000E+00 -0.19448779345E+04  0.19448779345E+04  0.00000000000E+00 0.  1.
         23    2    1    2    0    0  0.40874700926E+03 -0.62696354881E+03 -0.10545545690E+04  0.12968664152E+04  0.98080327929E+02 0.  0.
         13    1    3    3    0    0  0.16352137037E+03 -0.31826472626E+03 -0.44644793236E+03  0.57214284131E+03  0.00000000000E+00 0. -1.
        -13    1    3    3    0    0  0.24522563889E+03 -0.30869882255E+03 -0.60810663666E+03  0.72472357390E+03  0.00000000000E+00 0.  1.
         22    1    1    2    0    0 -0.40874700926E+03  0.62696354881E+03 -0.58710129579E+03  0.95123358889E+03  0.00000000000E+00 0.  1.
<mgrwt>
<rscale>  0 0.15358775E+04</rscale>
<asrwt>0</asrwt>
<pdfrwt beam="1">  1        2 0.29921199E+00 0.15358775E+04</pdfrwt>
<pdfrwt beam="2">  1       -2 0.46649550E-01 0.15358775E+04</pdfrwt>
<totfact> 0.30102792E+01</totfact>
</mgrwt>
</event>
<event>
 6    1  0.2325157E-005  0.1324446E+04  0.7818608E-02  0.9010401E-01
         -2   -1    0    0    0  501 -0.00000000000E+00  0.00000000000E+00  0.51805992728E+03  0.51805992728E+03  0.00000000000E+00 0. -1.
          2   -1    0    0  501    0  0.00000000000E+00 -0.00000000000E+00 -0.84650329048E+03  0.84650329048E+03  0.00000000000E+00 0.  1.
         23    2    1    2    0    0  0.12821960182E+03 -0.21740932334E+03  0.46189586575E+03  0.53489872112E+03  0.95193334279E+02 0.  0.
         11    1    3    3    0    0  0.76336465488E+02 -0.91239703574E+02  0.30275566195E+03  0.32528899507E+03  0.00000000000E+00 0.  1.
        -11    1    3    3    0    0  0.51883136333E+02 -0.12616961977E+03  0.15914020380E+03  0.20960972605E+03  0.00000000000E+00 0. -1.
         22    1    1    2    0    0 -0.12821960182E+03  0.21740932334E+03 -0.79033922895E+03  0.82966449664E+03  0.00000000000E+00 0.  1.
<mgrwt>
<rscale>  0 0.13244462E+04</rscale>
<asrwt>0</asrwt>
<pdfrwt beam="1">  1        2 0.13023128E+00 0.13244462E+04</pdfrwt>
<pdfrwt beam="2">  1       -2 0.79701527E-01 0.13244462E+04</pdfrwt>
<totfact> 0.43553910E+01</totfact>
</mgrwt>
</event>
<event>
 6    1  0.2325157E-005  0.6745777E+03  0.7818608E-02  0.9761723E-01
         -4   -1    0    0    0  501 -0.00000000000E+00  0.00000000000E+00  0.10284375743E+04  0.10284375743E+04  0.00000000000E+00 0.  1.
          4   -1    0    0  501    0  0.00000000000E+00 -0.00000000000E+00 -0.11061804543E+03  0.11061804543E+03  0.00000000000E+00 0. -1.
         23    2    1    2    0    0 -0.18310815750E+03  0.15049918792E+03  0.77442983043E+02  0.26589392698E+03  0.92323138366E+02 0.  0.
         11    1    3    3    0    0 -0.14846543162E+03  0.15900398055E+03  0.57440117762E+02  0.22499692741E+03  0.00000000000E+00 0.  1.
        -11    1    3    3    0    0 -0.34642725880E+02 -0.85047926379E+01  0.20002865280E+02  0.40896999568E+02  0.00000000000E+00 0. -1.
         22    1    1    2    0    0  0.18310815750E+03 -0.15049918792E+03  0.84037654581E+03  0.87316169273E+03  0.00000000000E+00 0.  1.
<mgrwt>
<rscale>  0 0.67457766E+03</rscale>
<asrwt>0</asrwt>
<pdfrwt beam="1">  1        4 0.17018162E-01 0.67457766E+03</pdfrwt>
<pdfrwt beam="2">  1       -4 0.15822116E+00 0.67457766E+03</pdfrwt>
<totfact> 0.15959497E+01</totfact>
</mgrwt>
</event>
<event>
 6    1  0.2325157E-005  0.2445570E+04  0.7818608E-02  0.8422637E-01
         -2   -1    0    0    0  501 -0.00000000000E+00  0.00000000000E+00  0.10468038583E+04  0.10468038583E+04  0.00000000000E+00 0. -1.
          2   -1    0    0  501    0  0.00000000000E+00 -0.00000000000E+00 -0.14283511898E+04  0.14283511898E+04  0.00000000000E+00 0.  1.
         23    2    1    2    0    0 -0.88959320566E+03 -0.28098425006E+03  0.60626422290E+03  0.11164424636E+04  0.92516194050E+02 0.  0.
         13    1    3    3    0    0 -0.30736727071E+03 -0.14365934952E+03  0.21752177424E+03  0.40302403163E+03  0.00000000000E+00 0. -1.
        -13    1    3    3    0    0 -0.58222593495E+03 -0.13732490055E+03  0.38874244866E+03  0.71341843194E+03  0.00000000000E+00 0.  1.
         22    1    1    2    0    0  0.88959320566E+03  0.28098425006E+03 -0.98781155442E+03  0.13587125845E+04  0.00000000000E+00 0.  1.
<mgrwt>
<rscale>  0 0.24455703E+04</rscale>
<asrwt>0</asrwt>
<pdfrwt beam="1">  1        2 0.21974634E+00 0.24455703E+04</pdfrwt>
<pdfrwt beam="2">  1       -2 0.16104675E+00 0.24455703E+04</pdfrwt>
<totfact> 0.30908240E+00</totfact>
</mgrwt>
</event>
<event>
 6    1  0.2325157E-005  0.1168897E+04  0.7818608E-02  0.9140525E-01
          2   -1    0    0  501    0  0.00000000000E+00  0.00000000000E+00  0.31232950458E+04  0.31232950458E+04  0.00000000000E+00 0.  1.
         -2   -1    0    0    0  501 -0.00000000000E+00 -0.00000000000E+00 -0.10936525373E+03  0.10936525373E+03  0.00000000000E+00 0. -1.
         23    2    1    2    0    0 -0.20897924771E+03 -0.45770397179E+03  0.23184472554E+04  0.23742540958E+04  0.93378710957E+02 0.  0.
         13    1    3    3    0    0 -0.15546949139E+03 -0.23659941073E+03  0.12058083850E+04  0.12385975558E+04  0.00000000000E+00 0.  1.
        -13    1    3    3    0    0 -0.53509756319E+02 -0.22110456106E+03  0.11126388704E+04  0.11356565400E+04  0.00000000000E+00 0. -1.
         22    1    1    2    0    0  0.20897924771E+03  0.45770397179E+03  0.69548253672E+03  0.85840620375E+03  0.00000000000E+00 0. -1.
<mgrwt>
<rscale>  0 0.11688968E+04</rscale>
<asrwt>0</asrwt>
<pdfrwt beam="1">  1        2 0.48050686E+00 0.11688968E+04</pdfrwt>
<pdfrwt beam="2">  1       -2 0.16825426E-01 0.11688968E+04</pdfrwt>
<totfact> 0.42265209E+01</totfact>
</mgrwt>
</event>
<event>
 6    1  0.2325157E-005  0.2868338E+04  0.7818608E-02  0.8282361E-01
         -2   -1    0    0    0  501 -0.00000000000E+00  0.00000000000E+00  0.79538284199E+03  0.79538284199E+03  0.00000000000E+00 0. -1.
          2   -1    0    0  501    0  0.00000000000E+00 -0.00000000000E+00 -0.25859750560E+04  0.25859750560E+04  0.00000000000E+00 0.  1.
         23    2    1    2    0    0  0.63558532187E+03 -0.35934707180E+03  0.55694737961E+03  0.92289472703E+03  0.91898172604E+02 0.  0.
         11    1    3    3    0    0  0.30367435296E+03 -0.22310217393E+03  0.27231153772E+03  0.46491533233E+03  0.00000000000E+00 0. -1.
        -11    1    3    3    0    0  0.33191096891E+03 -0.13624489787E+03  0.28463584189E+03  0.45797939470E+03  0.00000000000E+00 0.  1.
         22    1    1    2    0    0 -0.63558532187E+03  0.35934707180E+03 -0.23475395936E+04  0.24584631709E+04  0.00000000000E+00 0.  1.
<mgrwt>
<rscale>  0 0.28683376E+04</rscale>
<asrwt>0</asrwt>
<pdfrwt beam="1">  1        2 0.39784231E+00 0.28683376E+04</pdfrwt>
<pdfrwt beam="2">  1       -2 0.12236659E+00 0.28683376E+04</pdfrwt>
<totfact> 0.13569427E+00</totfact>
</mgrwt>
</event>
<event>
 6    1  0.2325157E-005  0.3117593E+04  0.7818608E-02  0.8210926E-01
         -2   -1    0    0    0  501 -0.00000000000E+00  0.00000000000E+00  0.12938756537E+04  0.12938756537E+04  0.00000000000E+00 0. -1.
          2   -1    0    0  501    0  0.00000000000E+00 -0.00000000000E+00 -0.18779597524E+04  0.18779597524E+04  0.00000000000E+00 0.  1.
         23    2    1    2    0    0  0.14691679096E+04 -0.10595010427E+03 -0.80716407668E+03  0.16820554063E+04  0.90093128704E+02 0.  0.
         13    1    3    3    0    0  0.26049922560E+03 -0.36866474884E+02 -0.11124683882E+03  0.28564810984E+03  0.00000000000E+00 0. -1.
        -13    1    3    3    0    0  0.12086686840E+04 -0.69083629389E+02 -0.69591723786E+03  0.13964072964E+04  0.00000000000E+00 0.  1.
         22    1    1    2    0    0 -0.14691679096E+04  0.10595010427E+03  0.22307997796E+03  0.14897799998E+04  0.00000000000E+00 0. -1.
<mgrwt>
<rscale>  0 0.31175929E+04</rscale>
<asrwt>0</asrwt>
<pdfrwt beam="1">  1        2 0.28891689E+00 0.31175929E+04</pdfrwt>
<pdfrwt beam="2">  1       -2 0.19905779E+00 0.31175929E+04</pdfrwt>
<totfact> 0.89342345E-01</totfact>
</mgrwt>
</event>
<event>
 6    1  0.2325157E-005  0.4009632E+04  0.7818608E-02  0.8002606E-01
         -2   -1    0    0    0  501 -0.00000000000E+00  0.00000000000E+00  0.13831196094E+04  0.13831196094E+04  0.00000000000E+00 0. -1.
          2   -1    0    0  501    0  0.00000000000E+00 -0.00000000000E+00 -0.29059584735E+04  0.29059584735E+04  0.00000000000E+00 0.  1.
         23    2    1    2    0    0  0.61339636049E+03  0.16140376725E+04 -0.18493605315E+04  0.25318105727E+04  0.92507821763E+02 0.  0.
         11    1    3    3    0    0  0.57784737883E+03  0.15024337372E+04 -0.16889449103E+04  0.23331844415E+04  0.00000000000E+00 0.  1.
        -11    1    3    3    0    0  0.35548981659E+02  0.11160393533E+03 -0.16041562114E+03  0.19862613117E+03  0.00000000000E+00 0. -1.
         22    1    1    2    0    0 -0.61339636049E+03 -0.16140376725E+04  0.32652166745E+03  0.17572675103E+04  0.00000000000E+00 0. -1.
<mgrwt>
<rscale>  0 0.40096325E+04</rscale>
<asrwt>0</asrwt>
<pdfrwt beam="1">  1        2 0.44707053E+00 0.40096325E+04</pdfrwt>
<pdfrwt beam="2">  1       -2 0.21278763E+00 0.40096325E+04</pdfrwt>
<totfact> 0.17247191E-01</totfact>
</mgrwt>
</event>
<event>
 6    1  0.2325157E-005  0.5863985E+03  0.7818608E-02  0.9934034E-01
         -1   -1    0    0    0  501 -0.00000000000E+00  0.00000000000E+00  0.63237223911E+02  0.63237223911E+02  0.00000000000E+00 0. -1.
          1   -1    0    0  501    0  0.00000000000E+00 -0.00000000000E+00 -0.13594175280E+04  0.13594175280E+04  0.00000000000E+00 0.  1.
         23    2    1    2    0    0  0.23791065361E+03  0.55107408473E+02 -0.10246934064E+04  0.10574925397E+04  0.93035417930E+02 0.  0.
         13    1    3    3    0    0  0.22470715201E+03  0.62593785017E+02 -0.82844703094E+03  0.86066007759E+03  0.00000000000E+00 0.  1.
        -13    1    3    3    0    0  0.13203501601E+02 -0.74863765440E+01 -0.19624637542E+03  0.19683246214E+03  0.00000000000E+00 0. -1.
         22    1    1    2    0    0 -0.23791065361E+03 -0.55107408473E+02 -0.27148689776E+03  0.36516221221E+03  0.00000000000E+00 0. -1.
<mgrwt>
<rscale>  0 0.58639847E+03</rscale>
<asrwt>0</asrwt>
<pdfrwt beam="1">  1        1 0.20914116E+00 0.58639847E+03</pdfrwt>
<pdfrwt beam="2">  1       -1 0.97288035E-02 0.58639847E+03</pdfrwt>
<totfact> 0.55345269E+02</totfact>
</mgrwt>
</event>
<event>
 6    1  0.2325157E-005  0.3647692E+04  0.7818608E-02  0.8079654E-01
         -2   -1    0    0    0  501 -0.00000000000E+00  0.00000000000E+00  0.38216922286E+04  0.38216922286E+04  0.00000000000E+00 0. -1.
          2   -1    0    0  501    0  0.00000000000E+00 -0.00000000000E+00 -0.87040333440E+03  0.87040333440E+03  0.00000000000E+00 0.  1.
         23    2    1    2    0    0  0.50180294075E+03 -0.15243438809E+04  0.36487181085E+03  0.16482519751E+04  0.90402856057E+02 0.  0.
         13    1    3    3    0    0  0.60775229885E+02 -0.24734244872E+03  0.85396233638E+02  0.26863438392E+03  0.00000000000E+00 0.  1.
        -13    1    3    3    0    0  0.44102771086E+03 -0.12770014322E+04  0.27947557722E+03  0.13796175912E+04  0.00000000000E+00 0. -1.
         22    1    1    2    0    0 -0.50180294075E+03  0.15243438809E+04  0.25864170833E+04  0.30438435879E+04  0.00000000000E+00 0. -1.
<mgrwt>
<rscale>  0 0.36476917E+04</rscale>
<asrwt>0</asrwt>
<pdfrwt beam="1">  1        2 0.13390821E+00 0.36476917E+04</pdfrwt>
<pdfrwt beam="2">  1       -2 0.58795264E+00 0.36476917E+04</pdfrwt>
<totfact> 0.14102982E-02</totfact>
</mgrwt>
</event>
<event>
 6    1  0.2325157E-005  0.3385980E+04  0.7818608E-02  0.8141356E-01
          2   -1    0    0  501    0  0.00000000000E+00  0.00000000000E+00  0.13020095776E+04  0.13020095776E+04  0.00000000000E+00 0.  1.
         -2   -1    0    0    0  501 -0.00000000000E+00 -0.00000000000E+00 -0.22013776129E+04  0.22013776129E+04  0.00000000000E+00 0. -1.
         23    2    1    2    0    0  0.14846381889E+04 -0.44287012978E+03 -0.11531770018E+04  0.19334497729E+04  0.90146120865E+02 0.  0.
         13    1    3    3    0    0  0.86306548504E+03 -0.21096882403E+03 -0.66282209299E+03  0.11084777865E+04  0.00000000000E+00 0.  1.
        -13    1    3    3    0    0  0.62157270381E+03 -0.23190130575E+03 -0.49035490884E+03  0.82497198641E+03  0.00000000000E+00 0. -1.
         22    1    1    2    0    0 -0.14846381889E+04  0.44287012978E+03  0.25380896647E+03  0.15699374176E+04  0.00000000000E+00 0.  1.
<mgrwt>
<rscale>  0 0.33859798E+04</rscale>
<asrwt>0</asrwt>
<pdfrwt beam="1">  1        2 0.20030917E+00 0.33859798E+04</pdfrwt>
<pdfrwt beam="2">  1       -2 0.33867347E+00 0.33859798E+04</pdfrwt>
<totfact> 0.25052909E-01</totfact>
</mgrwt>
</event>
<event>
 6    1  0.2325157E-005  0.3316383E+04  0.7818608E-02  0.8158739E-01
          2   -1    0    0  501    0  0.00000000000E+00  0.00000000000E+00  0.37801030527E+04  0.37801030527E+04  0.00000000000E+00 0.  1.
         -2   -1    0    0    0  501 -0.00000000000E+00 -0.00000000000E+00 -0.72738752546E+03  0.72738752546E+03  0.00000000000E+00 0. -1.
         23    2    1    2    0    0  0.12974291022E+04  0.22411064883E+03  0.28950186929E+04  0.31814377324E+04  0.82855024283E+02 0.  0.
         13    1    3    3    0    0  0.50168042142E+03  0.65177810877E+02  0.11954125165E+04  0.12980533413E+04  0.00000000000E+00 0. -1.
        -13    1    3    3    0    0  0.79574868076E+03  0.15893283796E+03  0.16996061763E+04  0.18833843911E+04  0.00000000000E+00 0.  1.
         22    1    1    2    0    0 -0.12974291022E+04 -0.22411064883E+03  0.15769683435E+03  0.13260528457E+04  0.00000000000E+00 0. -1.
<mgrwt>
<rscale>  0 0.33163835E+04</rscale>
<asrwt>0</asrwt>
<pdfrwt beam="1">  1        2 0.58155431E+00 0.33163835E+04</pdfrwt>
<pdfrwt beam="2">  1       -2 0.11190578E+00 0.33163835E+04</pdfrwt>
<totfact> 0.26679315E-01</totfact>
</mgrwt>
</event>
<event>
 6    1  0.2325157E-005  0.8209803E+03  0.7818608E-02  0.9530136E-01
         -2   -1    0    0    0  501 -0.00000000000E+00  0.00000000000E+00  0.78760978983E+02  0.78760978983E+02  0.00000000000E+00 0. -1.
          2   -1    0    0  501    0  0.00000000000E+00 -0.00000000000E+00 -0.21394118558E+04  0.21394118558E+04  0.00000000000E+00 0.  1.
         23    2    1    2    0    0 -0.34338530759E+03 -0.17612748412E+03 -0.70793140751E+03  0.81148014525E+03  0.91644903140E+02 0.  0.
         11    1    3    3    0    0 -0.20459126847E+03 -0.10765049182E+03 -0.32846385690E+03  0.40166493600E+03  0.00000000000E+00 0. -1.
        -11    1    3    3    0    0 -0.13879403912E+03 -0.68476992300E+02 -0.37946755061E+03  0.40981520925E+03  0.00000000000E+00 0.  1.
         22    1    1    2    0    0  0.34338530759E+03  0.17612748412E+03 -0.13527194693E+04  0.14066926895E+04  0.00000000000E+00 0. -1.
<mgrwt>
<rscale>  0 0.82098032E+03</rscale>
<asrwt>0</asrwt>
<pdfrwt beam="1">  1        2 0.32914031E+00 0.82098032E+03</pdfrwt>
<pdfrwt beam="2">  1       -2 0.12117073E-01 0.82098032E+03</pdfrwt>
<totfact> 0.28567385E+02</totfact>
</mgrwt>
</event>
<event>
 6    1  0.2325157E-005  0.2312692E+04  0.7818608E-02  0.8472934E-01
          2   -1    0    0  501    0  0.00000000000E+00  0.00000000000E+00  0.10959185649E+04  0.10959185649E+04  0.00000000000E+00 0.  1.
         -2   -1    0    0    0  501 -0.00000000000E+00 -0.00000000000E+00 -0.12201048606E+04  0.12201048606E+04  0.00000000000E+00 0. -1.
         23    2    1    2    0    0  0.30529913138E+03 -0.80521447366E+03  0.70779748284E+03  0.11186200198E+04  0.93571169689E+02 0.  0.
         13    1    3    3    0    0  0.32243581934E+02 -0.10743537862E+03  0.55410946311E+02  0.12510948056E+03  0.00000000000E+00 0.  1.
        -13    1    3    3    0    0  0.27305554945E+03 -0.69777909504E+03  0.65238653653E+03  0.99351053926E+03  0.00000000000E+00 0. -1.
         22    1    1    2    0    0 -0.30529913138E+03  0.80521447366E+03 -0.83198377858E+03  0.11974034057E+04  0.00000000000E+00 0. -1.
<mgrwt>
<rscale>  0 0.23126916E+04</rscale>
<asrwt>0</asrwt>
<pdfrwt beam="1">  1        2 0.16860286E+00 0.23126916E+04</pdfrwt>
<pdfrwt beam="2">  1       -2 0.18770844E+00 0.23126916E+04</pdfrwt>
<totfact> 0.31871522E+00</totfact>
</mgrwt>
</event>
<event>
 6    1  0.2325157E-005  0.2177834E+04  0.7818608E-02  0.8527711E-01
          2   -1    0    0  501    0  0.00000000000E+00  0.00000000000E+00  0.24510547099E+04  0.24510547099E+04  0.00000000000E+00 0.  1.
         -2   -1    0    0    0  501 -0.00000000000E+00 -0.00000000000E+00 -0.48376722390E+03  0.48376722390E+03  0.00000000000E+00 0. -1.
         23    2    1    2    0    0  0.56284110730E+03 -0.84868556746E+02 -0.26245541204E+03  0.63357310429E+03  0.92408068812E+02 0.  0.
         11    1    3    3    0    0  0.82085903974E+02  0.17913670736E+02 -0.51947945986E+02  0.98780485536E+02  0.00000000000E+00 0.  1.
        -11    1    3    3    0    0  0.48075520332E+03 -0.10278222748E+03 -0.21050746605E+03  0.53479261875E+03  0.00000000000E+00 0. -1.
         22    1    1    2    0    0 -0.56284110730E+03  0.84868556746E+02  0.22297428980E+04  0.23012488295E+04  0.00000000000E+00 0.  1.
<mgrwt>
<rscale>  0 0.21778337E+04</rscale>
<asrwt>0</asrwt>
<pdfrwt beam="1">  1        2 0.37708534E+00 0.21778337E+04</pdfrwt>
<pdfrwt beam="2">  1       -2 0.74425728E-01 0.21778337E+04</pdfrwt>
<totfact> 0.55268100E+00</totfact>
</mgrwt>
</event>
<event>
 6    1  0.2325157E-005  0.3286994E+04  0.7818608E-02  0.8166213E-01
         -2   -1    0    0    0  501 -0.00000000000E+00  0.00000000000E+00  0.25502733795E+04  0.25502733795E+04  0.00000000000E+00 0. -1.
          2   -1    0    0  501    0  0.00000000000E+00 -0.00000000000E+00 -0.10591342799E+04  0.10591342799E+04  0.00000000000E+00 0.  1.
         23    2    1    2    0    0 -0.13700575207E+04 -0.61620613446E+03  0.14748920274E+04  0.21070656286E+04  0.87472628047E+02 0.  0.
         11    1    3    3    0    0 -0.75707953235E+03 -0.31841213842E+03  0.85993270840E+03  0.11891341267E+04  0.00000000000E+00 0. -1.
        -11    1    3    3    0    0 -0.61297798832E+03 -0.29779399605E+03  0.61495931898E+03  0.91793150194E+03  0.00000000000E+00 0.  1.
         22    1    1    2    0    0  0.13700575207E+04  0.61620613446E+03  0.16247072263E+02  0.15023420308E+04  0.00000000000E+00 0.  1.
<mgrwt>
<rscale>  0 0.32869937E+04</rscale>
<asrwt>0</asrwt>
<pdfrwt beam="1">  1        2 0.16294374E+00 0.32869937E+04</pdfrwt>
<pdfrwt beam="2">  1       -2 0.39234975E+00 0.32869937E+04</pdfrwt>
<totfact> 0.16069327E-01</totfact>
</mgrwt>
</event>
<event>
 6    1  0.2718175E-005  0.3423549E+04  0.7818608E-02  0.8132151E-01
          2   -1    0    0  501    0  0.00000000000E+00  0.00000000000E+00  0.28454336225E+04  0.28454336225E+04  0.00000000000E+00 0.  1.
         -2   -1    0    0    0  501 -0.00000000000E+00 -0.00000000000E+00 -0.10297803584E+04  0.10297803584E+04  0.00000000000E+00 0. -1.
         23    2    1    2    0    0 -0.15433899479E+04  0.13250437329E+03  0.17297279504E+04  0.23237652709E+04  0.91193814494E+02 0.  0.
         13    1    3    3    0    0 -0.91845524381E+03  0.87236965365E+02  0.96372309562E+03  0.13341411200E+04  0.00000000000E+00 0. -1.
        -13    1    3    3    0    0 -0.62493470406E+03  0.45267407929E+02  0.76600485480E+03  0.98962415095E+03  0.00000000000E+00 0.  1.
         22    1    1    2    0    0  0.15433899479E+04 -0.13250437329E+03  0.85925313584E+02  0.15514487100E+04  0.00000000000E+00 0. -1.
<mgrwt>
<rscale>  0 0.34235488E+04</rscale>
<asrwt>0</asrwt>
<pdfrwt beam="1">  1        2 0.43775902E+00 0.34235488E+04</pdfrwt>
<pdfrwt beam="2">  1       -2 0.15842775E+00 0.34235488E+04</pdfrwt>
<totfact> 0.46402110E-01</totfact>
</mgrwt>
</event>
<event>
 6    1  0.2325157E-005  0.1649962E+04  0.7818608E-02  0.8790429E-01
          2   -1    0    0  501    0  0.00000000000E+00  0.00000000000E+00  0.68747127137E+03  0.68747127137E+03  0.00000000000E+00 0.  1.
         -2   -1    0    0    0  501 -0.00000000000E+00 -0.00000000000E+00 -0.98999619895E+03  0.98999619895E+03  0.00000000000E+00 0. -1.
         23    2    1    2    0    0 -0.78475470808E+03 -0.24514341483E+03 -0.17629960874E+03  0.84568139397E+03  0.90333949166E+02 0.  0.
         13    1    3    3    0    0 -0.47773806885E+03 -0.15075675610E+03 -0.62140557856E+02  0.50479967400E+03  0.00000000000E+00 0.  1.
        -13    1    3    3    0    0 -0.30701663923E+03 -0.94386658731E+02 -0.11415905088E+03  0.34088171997E+03  0.00000000000E+00 0. -1.
         22    1    1    2    0    0  0.78475470808E+03  0.24514341483E+03 -0.12622531885E+03  0.83178607635E+03  0.00000000000E+00 0. -1.
<mgrwt>
<rscale>  0 0.16499624E+04</rscale>
<asrwt>0</asrwt>
<pdfrwt beam="1">  1        2 0.10576481E+00 0.16499624E+04</pdfrwt>
<pdfrwt beam="2">  1       -2 0.15230711E+00 0.16499624E+04</pdfrwt>
<totfact> 0.11513622E+01</totfact>
</mgrwt>
</event>
<event>
 6    1  0.2325157E-005  0.1057429E+04  0.7818608E-02  0.9247708E-01
         -2   -1    0    0    0  501 -0.00000000000E+00  0.00000000000E+00  0.76165917065E+02  0.76165917065E+02  0.00000000000E+00 0. -1.
          2   -1    0    0  501    0  0.00000000000E+00 -0.00000000000E+00 -0.36701298834E+04  0.36701298834E+04  0.00000000000E+00 0.  1.
         23    2    1    2    0    0  0.43030484243E+03  0.28970764025E+03 -0.15474082169E+04  0.16350205437E+04  0.98626641336E+02 0.  0.
         11    1    3    3    0    0  0.25052624150E+03  0.22227162276E+03 -0.10336299251E+04  0.10865352705E+04  0.00000000000E+00 0. -1.
        -11    1    3    3    0    0  0.17977860094E+03  0.67436017483E+02 -0.51377829178E+03  0.54848527320E+03  0.00000000000E+00 0.  1.
         22    1    1    2    0    0 -0.43030484243E+03 -0.28970764025E+03 -0.20465557495E+04  0.21112752568E+04  0.00000000000E+00 0.  1.
<mgrwt>
<rscale>  0 0.10574286E+04</rscale>
<asrwt>0</asrwt>
<pdfrwt beam="1">  1        2 0.56463535E+00 0.10574286E+04</pdfrwt>
<pdfrwt beam="2">  1       -2 0.11717834E-01 0.10574286E+04</pdfrwt>
<totfact> 0.33755979E+01</totfact>
</mgrwt>
</event>
<event>
 6    1  0.2325157E-005  0.2718957E+04  0.7818608E-02  0.8328880E-01
         -2   -1    0    0    0  501 -0.00000000000E+00  0.00000000000E+00  0.11738685901E+04  0.11738685901E+04  0.00000000000E+00 0. -1.
          2   -1    0    0  501    0  0.00000000000E+00 -0.00000000000E+00 -0.15744370133E+04  0.15744370133E+04  0.00000000000E+00 0.  1.
         23    2    1    2    0    0  0.31892783853E+03 -0.57539577261E+03 -0.14015446763E+04  0.15504956349E+04  0.83150303515E+02 0.  0.
         13    1    3    3    0    0  0.12326579624E+03 -0.14498272207E+03 -0.40513051378E+03  0.44759935145E+03  0.00000000000E+00 0.  1.
        -13    1    3    3    0    0  0.19566204229E+03 -0.43041305053E+03 -0.99641416250E+03  0.11028962835E+04  0.00000000000E+00 0. -1.
         22    1    1    2    0    0 -0.31892783853E+03  0.57539577261E+03  0.10009762530E+04  0.11978099684E+04  0.00000000000E+00 0. -1.
<mgrwt>
<rscale>  0 0.27189573E+04</rscale>
<asrwt>0</asrwt>
<pdfrwt beam="1">  1        2 0.24222108E+00 0.27189573E+04</pdfrwt>
<pdfrwt beam="2">  1       -2 0.18059517E+00 0.27189573E+04</pdfrwt>
<totfact> 0.18137179E+00</totfact>
</mgrwt>
</event>
<event>
 6    1  0.2325157E-005  0.2427369E+04  0.7818608E-02  0.8429328E-01
         -2   -1    0    0    0  501 -0.00000000000E+00  0.00000000000E+00  0.99923999932E+03  0.99923999932E+03  0.00000000000E+00 0.  1.
          2   -1    0    0  501    0  0.00000000000E+00 -0.00000000000E+00 -0.14741503229E+04  0.14741503229E+04  0.00000000000E+00 0. -1.
         23    2    1    2    0    0 -0.34352413532E+03  0.90521930001E+03 -0.98070738228E+03  0.13810252379E+04  0.89514945258E+02 0.  0.
         11    1    3    3    0    0 -0.17096443909E+03  0.57066064680E+03 -0.58796619527E+03  0.83701054953E+03  0.00000000000E+00 0.  1.
        -11    1    3    3    0    0 -0.17255969623E+03  0.33455865321E+03 -0.39274118701E+03  0.54401468838E+03  0.00000000000E+00 0. -1.
         22    1    1    2    0    0  0.34352413532E+03 -0.90521930001E+03  0.50579705875E+03  0.10923650843E+04  0.00000000000E+00 0.  1.
<mgrwt>
<rscale>  0 0.24273689E+04</rscale>
<asrwt>0</asrwt>
<pdfrwt beam="1">  1        2 0.22679236E+00 0.24273689E+04</pdfrwt>
<pdfrwt beam="2">  1       -2 0.15372923E+00 0.24273689E+04</pdfrwt>
<totfact> 0.33063638E+00</totfact>
</mgrwt>
</event>
<event>
 6    1  0.2325157E-005  0.1012191E+04  0.7818608E-02  0.9295274E-01
          2   -1    0    0  501    0  0.00000000000E+00  0.00000000000E+00  0.27540656265E+03  0.27540656265E+03  0.00000000000E+00 0.  1.
         -2   -1    0    0    0  501 -0.00000000000E+00 -0.00000000000E+00 -0.93001633743E+03  0.93001633743E+03  0.00000000000E+00 0. -1.
         23    2    1    2    0    0  0.45308759968E+03 -0.20015348458E+03 -0.22770013008E+03  0.55151034085E+03  0.83465660323E+02 0.  0.
         13    1    3    3    0    0  0.19472612789E+03 -0.95540939037E+02 -0.55566098097E+02  0.22390606775E+03  0.00000000000E+00 0.  1.
        -13    1    3    3    0    0  0.25836147179E+03 -0.10461254554E+03 -0.17213403198E+03  0.32760427310E+03  0.00000000000E+00 0. -1.
         22    1    1    2    0    0 -0.45308759968E+03  0.20015348458E+03 -0.42690964470E+03  0.65391255923E+03  0.00000000000E+00 0. -1.
<mgrwt>
<rscale>  0 0.10121909E+04</rscale>
<asrwt>0</asrwt>
<pdfrwt beam="1">  1        2 0.42370240E-01 0.10121909E+04</pdfrwt>
<pdfrwt beam="2">  1       -2 0.14307944E+00 0.10121909E+04</pdfrwt>
<totfact> 0.40858589E+01</totfact>
</mgrwt>
</event>
<event>
 6    1  0.2325157E-005  0.5907202E+04  0.7818608E-02  0.7702015E-01
         -2   -1    0    0    0  501 -0.00000000000E+00  0.00000000000E+00  0.22729786416E+04  0.22729786416E+04  0.00000000000E+00 0. -1.
          2   -1    0    0  501    0  0.00000000000E+00 -0.00000000000E+00 -0.38380294884E+04  0.38380294884E+04  0.00000000000E+00 0.  1.
         23    2    1    2    0    0  0.16365121829E+04  0.19419447664E+04  0.77601613629E+03  0.26570370503E+04  0.91231806172E+02 0.  0.
         11    1    3    3    0    0  0.68760195431E+03  0.83993769196E+03  0.37606718764E+03  0.11487899301E+04  0.00000000000E+00 0. -1.
        -11    1    3    3    0    0  0.94891022855E+03  0.11020070744E+04  0.39994894865E+03  0.15082471202E+04  0.00000000000E+00 0.  1.
         22    1    1    2    0    0 -0.16365121829E+04 -0.19419447664E+04 -0.23410669831E+04  0.34539710797E+04  0.00000000000E+00 0.  1.
<mgrwt>
<rscale>  0 0.59072021E+04</rscale>
<asrwt>0</asrwt>
<pdfrwt beam="1">  1        2 0.59046608E+00 0.59072021E+04</pdfrwt>
<pdfrwt beam="2">  1       -2 0.34968902E+00 0.59072021E+04</pdfrwt>
<totfact> 0.48469041E-03</totfact>
</mgrwt>
</event>
<event>
 6    1  0.2325157E-005  0.3293166E+04  0.7818608E-02  0.8164636E-01
         -2   -1    0    0    0  501 -0.00000000000E+00  0.00000000000E+00  0.85226955590E+03  0.85226955590E+03  0.00000000000E+00 0.  1.
          2   -1    0    0  501    0  0.00000000000E+00 -0.00000000000E+00 -0.31811947110E+04  0.31811947110E+04  0.00000000000E+00 0. -1.
         23    2    1    2    0    0 -0.66588177844E+03 -0.68594053876E+03 -0.28054697480E+04  0.29652846404E+04  0.91321004970E+02 0.  0.
         11    1    3    3    0    0 -0.12663202872E+03 -0.83069136157E+02 -0.43274890909E+03  0.45848420954E+03  0.00000000000E+00 0.  1.
        -11    1    3    3    0    0 -0.53924974972E+03 -0.60287140260E+03 -0.23727208389E+04  0.25068004308E+04  0.00000000000E+00 0. -1.
         22    1    1    2    0    0  0.66588177844E+03  0.68594053876E+03  0.47654459287E+03  0.10681796265E+04  0.00000000000E+00 0.  1.
<mgrwt>
<rscale>  0 0.32931659E+04</rscale>
<asrwt>0</asrwt>
<pdfrwt beam="1">  1        2 0.48941457E+00 0.32931659E+04</pdfrwt>
<pdfrwt beam="2">  1       -2 0.13111839E+00 0.32931659E+04</pdfrwt>
<totfact> 0.47324330E-01</totfact>
</mgrwt>
</event>
<event>
 6    1  0.2325157E-005  0.1800243E+04  0.7818608E-02  0.8706170E-01
         -2   -1    0    0    0  501 -0.00000000000E+00  0.00000000000E+00  0.19849153050E+03  0.19849153050E+03  0.00000000000E+00 0. -1.
          2   -1    0    0  501    0  0.00000000000E+00 -0.00000000000E+00 -0.40818808829E+04  0.40818808829E+04  0.00000000000E+00 0.  1.
         23    2    1    2    0    0  0.87318579844E+03 -0.14636932351E+03 -0.23010105287E+04  0.24671432058E+04  0.90932543210E+02 0.  0.
         13    1    3    3    0    0  0.29175723113E+03 -0.38117109694E+02 -0.65315878955E+03  0.71637392494E+03  0.00000000000E+00 0.  1.
        -13    1    3    3    0    0  0.58142856731E+03 -0.10825221382E+03 -0.16478517392E+04  0.17507692809E+04  0.00000000000E+00 0. -1.
         22    1    1    2    0    0 -0.87318579844E+03  0.14636932351E+03 -0.15823788236E+04  0.18132292075E+04  0.00000000000E+00 0. -1.
<mgrwt>
<rscale>  0 0.18002431E+04</rscale>
<asrwt>0</asrwt>
<pdfrwt beam="1">  1        2 0.62798158E+00 0.18002431E+04</pdfrwt>
<pdfrwt beam="2">  1       -2 0.30537163E-01 0.18002431E+04</pdfrwt>
<totfact> 0.27880105E+00</totfact>
</mgrwt>
</event>
<event>
 6    1  0.2325157E-005  0.2781941E+04  0.7818608E-02  0.8308897E-01
         -2   -1    0    0    0  501 -0.00000000000E+00  0.00000000000E+00  0.91736186017E+03  0.91736186017E+03  0.00000000000E+00 0. -1.
          2   -1    0    0  501    0  0.00000000000E+00 -0.00000000000E+00 -0.21090897337E+04  0.21090897337E+04  0.00000000000E+00 0.  1.
         23    2    1    2    0    0  0.24906445565E+03 -0.55644222459E+03  0.76138451479E+03  0.98040441608E+03  0.99123091849E+02 0.  0.
         11    1    3    3    0    0  0.21321402972E+03 -0.50034939473E+03  0.62412754351E+03  0.82785562138E+03  0.00000000000E+00 0.  1.
        -11    1    3    3    0    0  0.35850425925E+02 -0.56092829853E+02  0.13725697128E+03  0.15254879470E+03  0.00000000000E+00 0. -1.
         22    1    1    2    0    0 -0.24906445565E+03  0.55644222459E+03 -0.19531123883E+04  0.20460471778E+04  0.00000000000E+00 0.  1.
<mgrwt>
<rscale>  0 0.27819407E+04</rscale>
<asrwt>0</asrwt>
<pdfrwt beam="1">  1        2 0.32447534E+00 0.27819407E+04</pdfrwt>
<pdfrwt beam="2">  1       -2 0.14113260E+00 0.27819407E+04</pdfrwt>
<totfact> 0.17799377E+00</totfact>
</mgrwt>
</event>
<event>
 6    1  0.2325157E-005  0.1973988E+04  0.7818608E-02  0.8618880E-01
         -2   -1    0    0    0  501 -0.00000000000E+00  0.00000000000E+00  0.80728965089E+03  0.80728965089E+03  0.00000000000E+00 0. -1.
          2   -1    0    0  501    0  0.00000000000E+00 -0.00000000000E+00 -0.12067007441E+04  0.12067007441E+04  0.00000000000E+00 0.  1.
         23    2    1    2    0    0  0.36717797020E+03 -0.32248069820E+03 -0.10724417159E+04  0.11822550515E+04  0.93713981581E+02 0.  0.
         11    1    3    3    0    0  0.25303889413E+03 -0.18687715093E+03 -0.59614750429E+03  0.67405014528E+03  0.00000000000E+00 0. -1.
        -11    1    3    3    0    0  0.11413907607E+03 -0.13560354728E+03 -0.47629421161E+03  0.50820490625E+03  0.00000000000E+00 0.  1.
         22    1    1    2    0    0 -0.36717797020E+03  0.32248069820E+03  0.67303062268E+03  0.83173534347E+03  0.00000000000E+00 0. -1.
<mgrwt>
<rscale>  0 0.19739879E+04</rscale>
<asrwt>0</asrwt>
<pdfrwt beam="1">  1        2 0.18564627E+00 0.19739879E+04</pdfrwt>
<pdfrwt beam="2">  1       -2 0.12419841E+00 0.19739879E+04</pdfrwt>
<totfact> 0.85153072E+00</totfact>
</mgrwt>
</event>
<event>
 6    1  0.2325157E-005  0.9888050E+03  0.7818608E-02  0.9320909E-01
          2   -1    0    0  501    0  0.00000000000E+00  0.00000000000E+00  0.23862458249E+04  0.23862458249E+04  0.00000000000E+00 0.  1.
         -2   -1    0    0    0  501 -0.00000000000E+00 -0.00000000000E+00 -0.10243448011E+03  0.10243448011E+03  0.00000000000E+00 0. -1.
         23    2    1    2    0    0  0.27562899905E+03  0.24198603581E+03  0.19700476854E+04  0.20060042018E+04  0.91849813541E+02 0.  0.
         13    1    3    3    0    0  0.17039314368E+03  0.12290887890E+03  0.13318166837E+04  0.13482863549E+04  0.00000000000E+00 0.  1.
        -13    1    3    3    0    0  0.10523585537E+03  0.11907715691E+03  0.63823100172E+03  0.65771784688E+03  0.00000000000E+00 0. -1.
         22    1    1    2    0    0 -0.27562899905E+03 -0.24198603581E+03  0.31376365938E+03  0.48267610319E+03  0.00000000000E+00 0. -1.
<mgrwt>
<rscale>  0 0.98880504E+03</rscale>
<asrwt>0</asrwt>
<pdfrwt beam="1">  1        2 0.36711470E+00 0.98880504E+03</pdfrwt>
<pdfrwt beam="2">  1       -2 0.15759153E-01 0.98880504E+03</pdfrwt>
<totfact> 0.13195644E+02</totfact>
</mgrwt>
</event>
<event>
 6    1  0.2325157E-005  0.1302760E+04  0.7818608E-02  0.9027379E-01
         -2   -1    0    0    0  501 -0.00000000000E+00  0.00000000000E+00  0.57973202118E+03  0.57973202118E+03  0.00000000000E+00 0.  1.
          2   -1    0    0  501    0  0.00000000000E+00 -0.00000000000E+00 -0.73188281022E+03  0.73188281022E+03  0.00000000000E+00 0. -1.
         23    2    1    2    0    0  0.60360609592E+03 -0.23655759314E+03 -0.89992820866E+02  0.66033652921E+03  0.87440323082E+02 0.  0.
         13    1    3    3    0    0  0.37025536106E+03 -0.10394261794E+03 -0.33256131425E+02  0.38600397731E+03  0.00000000000E+00 0. -1.
        -13    1    3    3    0    0  0.23335073485E+03 -0.13261497520E+03 -0.56736689441E+02  0.27433255190E+03  0.00000000000E+00 0.  1.
         22    1    1    2    0    0 -0.60360609592E+03  0.23655759314E+03 -0.62157968170E+02  0.65127830219E+03  0.00000000000E+00 0.  1.
<mgrwt>
<rscale>  0 0.13027600E+04</rscale>
<asrwt>0</asrwt>
<pdfrwt beam="1">  1        2 0.11259736E+00 0.13027600E+04</pdfrwt>
<pdfrwt beam="2">  1       -2 0.89189541E-01 0.13027600E+04</pdfrwt>
<totfact> 0.40947006E+01</totfact>
</mgrwt>
</event>
<event>
 6    1  0.2325157E-005  0.2511819E+04  0.7818608E-02  0.8398787E-01
          2   -1    0    0  501    0  0.00000000000E+00  0.00000000000E+00  0.27682038712E+04  0.27682038712E+04  0.00000000000E+00 0.  1.
         -2   -1    0    0    0  501 -0.00000000000E+00 -0.00000000000E+00 -0.56979507580E+03  0.56979507580E+03  0.00000000000E+00 0. -1.
         23    2    1    2    0    0  0.27241327884E+03 -0.65913060888E+02  0.27252888146E+04  0.27412108097E+04  0.92108925441E+02 0.  0.
         13    1    3    3    0    0  0.16383799495E+03 -0.77005924015E+02  0.14492445824E+04  0.14605076721E+04  0.00000000000E+00 0. -1.
        -13    1    3    3    0    0  0.10857528388E+03  0.11092863127E+02  0.12760442323E+04  0.12807031376E+04  0.00000000000E+00 0.  1.
         22    1    1    2    0    0 -0.27241327884E+03  0.65913060888E+02 -0.52688001925E+03  0.59678813725E+03  0.00000000000E+00 0. -1.
<mgrwt>
<rscale>  0 0.25118192E+04</rscale>
<asrwt>0</asrwt>
<pdfrwt beam="1">  1        2 0.42587751E+00 0.25118192E+04</pdfrwt>
<pdfrwt beam="2">  1       -2 0.87660782E-01 0.25118192E+04</pdfrwt>
<totfact> 0.24179591E+00</totfact>
</mgrwt>
</event>
<event>
 6    1  0.2325157E-005  0.3235899E+04  0.7818608E-02  0.8179400E-01
          2   -1    0    0  501    0  0.00000000000E+00  0.00000000000E+00  0.10200920762E+04  0.10200920762E+04  0.00000000000E+00 0.  1.
         -2   -1    0    0    0  501 -0.00000000000E+00 -0.00000000000E+00 -0.25662009250E+04  0.25662009250E+04  0.00000000000E+00 0. -1.
         23    2    1    2    0    0  0.88971742223E+02 -0.89560686316E+03  0.71478435716E+03  0.11528457113E+04  0.90049611440E+02 0.  0.
         13    1    3    3    0    0  0.92753128826E+02 -0.60174421254E+03  0.44779817757E+03  0.75579259593E+03  0.00000000000E+00 0. -1.
        -13    1    3    3    0    0 -0.37813866023E+01 -0.29386265062E+03  0.26698617959E+03  0.39705311534E+03  0.00000000000E+00 0.  1.
         22    1    1    2    0    0 -0.88971742223E+02  0.89560686316E+03 -0.22608932059E+04  0.24334472899E+04  0.00000000000E+00 0. -1.
<mgrwt>
<rscale>  0 0.32358994E+04</rscale>
<asrwt>0</asrwt>
<pdfrwt beam="1">  1        2 0.15693724E+00 0.32358994E+04</pdfrwt>
<pdfrwt beam="2">  1       -2 0.39480014E+00 0.32358994E+04</pdfrwt>
<totfact> 0.16463775E-01</totfact>
</mgrwt>
</event>
<event>
 6    1  0.2325157E-005  0.3405124E+04  0.7818608E-02  0.8136650E-01
          2   -1    0    0  501    0  0.00000000000E+00  0.00000000000E+00  0.13706882443E+04  0.13706882443E+04  0.00000000000E+00 0.  1.
         -2   -1    0    0    0  501 -0.00000000000E+00 -0.00000000000E+00 -0.21147894972E+04  0.21147894972E+04  0.00000000000E+00 0. -1.
         23    2    1    2    0    0  0.27271224459E+02 -0.12271231190E+04  0.83371355146E+03  0.14864593760E+04  0.88928745259E+02 0.  0.
         11    1    3    3    0    0  0.48728692514E+02 -0.82197571126E+03  0.59278663871E+03  0.10146006872E+04  0.00000000000E+00 0.  1.
        -11    1    3    3    0    0 -0.21457468055E+02 -0.40514740771E+03  0.24092691275E+03  0.47185868880E+03  0.00000000000E+00 0. -1.
         22    1    1    2    0    0 -0.27271224459E+02  0.12271231190E+04 -0.15778148044E+04  0.19990183655E+04  0.00000000000E+00 0. -1.
<mgrwt>
<rscale>  0 0.34051238E+04</rscale>
<asrwt>0</asrwt>
<pdfrwt beam="1">  1        2 0.21087512E+00 0.34051238E+04</pdfrwt>
<pdfrwt beam="2">  1       -2 0.32535223E+00 0.34051238E+04</pdfrwt>
<totfact> 0.27628445E-01</totfact>
</mgrwt>
</event>
<event>
 6    1  0.2732347E-005  0.3179605E+04  0.7818608E-02  0.8194224E-01
          2   -1    0    0  501    0  0.00000000000E+00  0.00000000000E+00  0.21002615400E+04  0.21002615400E+04  0.00000000000E+00 0.  1.
         -2   -1    0    0    0  501 -0.00000000000E+00 -0.00000000000E+00 -0.12034083525E+04  0.12034083525E+04  0.00000000000E+00 0. -1.
         23    2    1    2    0    0  0.83271190787E+03  0.10316638967E+04 -0.46033739089E+03  0.14063808308E+04  0.90868094560E+02 0.  0.
         13    1    3    3    0    0  0.43317087305E+03  0.47542326127E+03 -0.24849817693E+03  0.68950389887E+03  0.00000000000E+00 0.  1.
        -13    1    3    3    0    0  0.39954103482E+03  0.55624063540E+03 -0.21183921395E+03  0.71687693194E+03  0.00000000000E+00 0. -1.
         22    1    1    2    0    0 -0.83271190787E+03 -0.10316638967E+04  0.13571905784E+04  0.18972890616E+04  0.00000000000E+00 0.  1.
<mgrwt>
<rscale>  0 0.31796052E+04</rscale>
<asrwt>0</asrwt>
<pdfrwt beam="1">  1        2 0.32311716E+00 0.31796052E+04</pdfrwt>
<pdfrwt beam="2">  1       -2 0.18513975E+00 0.31796052E+04</pdfrwt>
<totfact> 0.82835502E-01</totfact>
</mgrwt>
</event>
<event>
 6    1  0.2325157E-005  0.5032379E+03  0.7818608E-02  0.1012937E+00
          2   -1    0    0  501    0  0.00000000000E+00  0.00000000000E+00  0.25711035126E+03  0.25711035126E+03  0.00000000000E+00 0.  1.
         -2   -1    0    0    0  501 -0.00000000000E+00 -0.00000000000E+00 -0.24624485813E+03  0.24624485813E+03  0.00000000000E+00 0. -1.
         23    2    1    2    0    0  0.42668353038E+02  0.28327013068E+02 -0.23226805543E+03  0.25488603533E+03  0.91626597735E+02 0.  0.
         13    1    3    3    0    0 -0.23075166519E+02  0.18700831911E+02 -0.12680615209E+03  0.13023818423E+03  0.00000000000E+00 0. -1.
        -13    1    3    3    0    0  0.65743519557E+02  0.96261811565E+01 -0.10546190334E+03  0.12464785110E+03  0.00000000000E+00 0.  1.
         22    1    1    2    0    0 -0.42668353038E+02 -0.28327013068E+02  0.24313354856E+03  0.24846917406E+03  0.00000000000E+00 0.  1.
<mgrwt>
<rscale>  0 0.50323792E+03</rscale>
<asrwt>0</asrwt>
<pdfrwt beam="1">  1        2 0.39555439E-01 0.50323792E+03</pdfrwt>
<pdfrwt beam="2">  1       -2 0.37883824E-01 0.50323792E+03</pdfrwt>
<totfact> 0.86033504E+02</totfact>
</mgrwt>
</event>
<event>
 6    1  0.2325157E-005  0.1981732E+04  0.7818608E-02  0.8615209E-01
         -2   -1    0    0    0  501 -0.00000000000E+00  0.00000000000E+00  0.40089580290E+03  0.40089580290E+03  0.00000000000E+00 0. -1.
          2   -1    0    0  501    0  0.00000000000E+00 -0.00000000000E+00 -0.24490538313E+04  0.24490538313E+04  0.00000000000E+00 0.  1.
         23    2    1    2    0    0  0.37500210224E+03  0.12420530186E+03 -0.23297173878E+04  0.23648422167E+04  0.94032276653E+02 0.  0.
         13    1    3    3    0    0  0.68104922645E+02  0.39733009788E+01 -0.61168160728E+03  0.61547417192E+03  0.00000000000E+00 0.  1.
        -13    1    3    3    0    0  0.30689717960E+03  0.12023200089E+03 -0.17180357805E+04  0.17493680448E+04  0.00000000000E+00 0. -1.
         22    1    1    2    0    0 -0.37500210224E+03 -0.12420530186E+03  0.28155935938E+03  0.48510741754E+03  0.00000000000E+00 0. -1.
<mgrwt>
<rscale>  0 0.19817320E+04</rscale>
<asrwt>0</asrwt>
<pdfrwt beam="1">  1        2 0.37677751E+00 0.19817320E+04</pdfrwt>
<pdfrwt beam="2">  1       -2 0.61676278E-01 0.19817320E+04</pdfrwt>
<totfact> 0.84714350E+00</totfact>
</mgrwt>
</event>
<event>
 6    1  0.2325157E-005  0.1870279E+04  0.7818608E-02  0.8669794E-01
         -2   -1    0    0    0  501 -0.00000000000E+00  0.00000000000E+00  0.49004594202E+03  0.49004594202E+03  0.00000000000E+00 0. -1.
          2   -1    0    0  501    0  0.00000000000E+00 -0.00000000000E+00 -0.17844973891E+04  0.17844973891E+04  0.00000000000E+00 0.  1.
         23    2    1    2    0    0  0.66755807109E+02 -0.43450487437E+03 -0.16494739239E+04  0.17094842345E+04  0.91221152897E+02 0.  0.
         13    1    3    3    0    0 -0.10189714487E+02 -0.21898450995E+03 -0.86124454165E+03  0.88870704194E+03  0.00000000000E+00 0. -1.
        -13    1    3    3    0    0  0.76945521596E+02 -0.21552036442E+03 -0.78822938223E+03  0.82077719253E+03  0.00000000000E+00 0.  1.
         22    1    1    2    0    0 -0.66755807109E+02  0.43450487437E+03  0.35502247682E+03  0.56505909663E+03  0.00000000000E+00 0. -1.
<mgrwt>
<rscale>  0 0.18702788E+04</rscale>
<asrwt>0</asrwt>
<pdfrwt beam="1">  1        2 0.27453805E+00 0.18702788E+04</pdfrwt>
<pdfrwt beam="2">  1       -2 0.75391685E-01 0.18702788E+04</pdfrwt>
<totfact> 0.13041071E+01</totfact>
</mgrwt>
</event>
<event>
 6    1  0.2325157E-005  0.4557518E+04  0.7818608E-02  0.7900644E-01
          1   -1    0    0  501    0  0.00000000000E+00  0.00000000000E+00  0.34658622198E+04  0.34658622198E+04  0.00000000000E+00 0.  1.
         -1   -1    0    0    0  501 -0.00000000000E+00 -0.00000000000E+00 -0.14982545145E+04  0.14982545145E+04  0.00000000000E+00 0. -1.
         23    2    1    2    0    0  0.99527721359E+03  0.91100994437E+02  0.32137530081E+04  0.33666956129E+04  0.86918524384E+02 0.  0.
         13    1    3    3    0    0  0.69756277062E+03  0.84980362778E+02  0.21405459091E+04  0.22529430242E+04  0.00000000000E+00 0. -1.
        -13    1    3    3    0    0  0.29771444297E+03  0.61206316590E+01  0.10732070990E+04  0.11137525888E+04  0.00000000000E+00 0.  1.
         22    1    1    2    0    0 -0.99527721359E+03 -0.91100994437E+02 -0.12461453029E+04  0.15974211214E+04  0.00000000000E+00 0. -1.
<mgrwt>
<rscale>  0 0.45575185E+04</rscale>
<asrwt>0</asrwt>
<pdfrwt beam="1">  1        1 0.53320957E+00 0.45575185E+04</pdfrwt>
<pdfrwt beam="2">  1       -1 0.23050069E+00 0.45575185E+04</pdfrwt>
<totfact> 0.18601698E-02</totfact>
</mgrwt>
</event>
<event>
 6    1  0.2325157E-005  0.2574041E+04  0.7818608E-02  0.8377073E-01
          2   -1    0    0  501    0  0.00000000000E+00  0.00000000000E+00  0.28396246791E+04  0.28396246791E+04  0.00000000000E+00 0.  1.
         -2   -1    0    0    0  501 -0.00000000000E+00 -0.00000000000E+00 -0.58332401407E+03  0.58332401407E+03  0.00000000000E+00 0. -1.
         23    2    1    2    0    0 -0.85477832480E+03 -0.60402351400E+03  0.13724734263E+03  0.10595026131E+04  0.90656296904E+02 0.  0.
         13    1    3    3    0    0 -0.36541115263E+03 -0.22981105747E+03  0.95056551134E+02  0.44201151627E+03  0.00000000000E+00 0.  1.
        -13    1    3    3    0    0 -0.48936717217E+03 -0.37421245654E+03  0.42190791493E+02  0.61749109687E+03  0.00000000000E+00 0. -1.
         22    1    1    2    0    0  0.85477832480E+03  0.60402351400E+03  0.21190533224E+04  0.23634460800E+04  0.00000000000E+00 0.  1.
<mgrwt>
<rscale>  0 0.25740406E+04</rscale>
<asrwt>0</asrwt>
<pdfrwt beam="1">  1        2 0.43686533E+00 0.25740406E+04</pdfrwt>
<pdfrwt beam="2">  1       -2 0.89742158E-01 0.25740406E+04</pdfrwt>
<totfact> 0.20628079E+00</totfact>
</mgrwt>
</event>
<event>
 6    1  0.2325157E-005  0.1288253E+04  0.7818608E-02  0.9038933E-01
         -2   -1    0    0    0  501 -0.00000000000E+00  0.00000000000E+00  0.21148639176E+03  0.21148639176E+03  0.00000000000E+00 0. -1.
          2   -1    0    0  501    0  0.00000000000E+00 -0.00000000000E+00 -0.19618236097E+04  0.19618236097E+04  0.00000000000E+00 0.  1.
         23    2    1    2    0    0 -0.30774809105E+03  0.54882140219E+03 -0.66936173435E+03  0.92254151163E+03  0.84403141083E+02 0.  0.
         11    1    3    3    0    0 -0.21374879610E+03  0.42386958333E+03 -0.54497771939E+03  0.72274109205E+03  0.00000000000E+00 0.  1.
        -11    1    3    3    0    0 -0.93999294949E+02  0.12495181886E+03 -0.12438401496E+03  0.19980041958E+03  0.00000000000E+00 0. -1.
         22    1    1    2    0    0  0.30774809105E+03 -0.54882140219E+03 -0.10809754836E+04  0.12507684898E+04  0.00000000000E+00 0. -1.
<mgrwt>
<rscale>  0 0.12882531E+04</rscale>
<asrwt>0</asrwt>
<pdfrwt beam="1">  1        2 0.30181902E+00 0.12882531E+04</pdfrwt>
<pdfrwt beam="2">  1       -2 0.32536367E-01 0.12882531E+04</pdfrwt>
<totfact> 0.60631640E+01</totfact>
</mgrwt>
</event>
<event>
 6    1  0.2325157E-005  0.1260222E+04  0.7818608E-02  0.9061718E-01
          2   -1    0    0  501    0  0.00000000000E+00  0.00000000000E+00  0.10624934751E+04  0.10624934751E+04  0.00000000000E+00 0.  1.
         -2   -1    0    0    0  501 -0.00000000000E+00 -0.00000000000E+00 -0.37368709105E+03  0.37368709105E+03  0.00000000000E+00 0. -1.
         23    2    1    2    0    0 -0.55548409027E+03 -0.16776116825E+03  0.61622132077E+03  0.85139430129E+03  0.91853992757E+02 0.  0.
         13    1    3    3    0    0 -0.18130340370E+03 -0.15387579312E+02  0.16363752490E+03  0.24471399908E+03  0.00000000000E+00 0. -1.
        -13    1    3    3    0    0 -0.37418068657E+03 -0.15237358894E+03  0.45258379587E+03  0.60668030221E+03  0.00000000000E+00 0.  1.
         22    1    1    2    0    0  0.55548409027E+03  0.16776116825E+03  0.72585063240E+02  0.58478626482E+03  0.00000000000E+00 0. -1.
<mgrwt>
<rscale>  0 0.12602224E+04</rscale>
<asrwt>0</asrwt>
<pdfrwt beam="1">  1        2 0.16346053E+00 0.12602224E+04</pdfrwt>
<pdfrwt beam="2">  1       -2 0.57490322E-01 0.12602224E+04</pdfrwt>
<totfact> 0.64034435E+01</totfact>
</mgrwt>
</event>
<event>
 6    1  0.2325157E-005  0.3819110E+04  0.7818608E-02  0.8042066E-01
          2   -1    0    0  501    0  0.00000000000E+00  0.00000000000E+00  0.35508220846E+04  0.35508220846E+04  0.00000000000E+00 0.  1.
         -2   -1    0    0    0  501 -0.00000000000E+00 -0.00000000000E+00 -0.10269172895E+04  0.10269172895E+04  0.00000000000E+00 0. -1.
         23    2    1    2    0    0 -0.48896526497E+03  0.31420261000E+03 -0.91684420742E+03  0.10882459998E+04  0.76588151658E+02 0.  0.
         11    1    3    3    0    0 -0.37255964232E+03  0.26702289386E+03 -0.75698533284E+03  0.88494559554E+03  0.00000000000E+00 0.  1.
        -11    1    3    3    0    0 -0.11640562265E+03  0.47179716145E+02 -0.15985887458E+03  0.20330040428E+03  0.00000000000E+00 0. -1.
         22    1    1    2    0    0  0.48896526497E+03 -0.31420261000E+03  0.34407490025E+04  0.34894933742E+04  0.00000000000E+00 0.  1.
<mgrwt>
<rscale>  0 0.38191102E+04</rscale>
<asrwt>0</asrwt>
<pdfrwt beam="1">  1        2 0.54628032E+00 0.38191102E+04</pdfrwt>
<pdfrwt beam="2">  1       -2 0.15798728E+00 0.38191102E+04</pdfrwt>
<totfact> 0.15594130E-01</totfact>
</mgrwt>
</event>
<event>
 6    1  0.2325157E-005  0.3926123E+04  0.7818608E-02  0.8019618E-01
         -2   -1    0    0    0  501 -0.00000000000E+00  0.00000000000E+00  0.13588195970E+04  0.13588195970E+04  0.00000000000E+00 0. -1.
          2   -1    0    0  501    0  0.00000000000E+00 -0.00000000000E+00 -0.28359982139E+04  0.28359982139E+04  0.00000000000E+00 0.  1.
         23    2    1    2    0    0 -0.14231535266E+04  0.50584274569E+03  0.59944113213E+03  0.16270186704E+04  0.81346414894E+02 0.  0.
         11    1    3    3    0    0 -0.10564453926E+04  0.40928886251E+03  0.46531507412E+03  0.12247907408E+04  0.00000000000E+00 0.  1.
        -11    1    3    3    0    0 -0.36670813406E+03  0.96553883181E+02  0.13412605801E+03  0.40222792964E+03  0.00000000000E+00 0. -1.
         22    1    1    2    0    0  0.14231535266E+04 -0.50584274569E+03 -0.20766197490E+04  0.25677991405E+04  0.00000000000E+00 0.  1.
<mgrwt>
<rscale>  0 0.39261227E+04</rscale>
<asrwt>0</asrwt>
<pdfrwt beam="1">  1        2 0.43630742E+00 0.39261227E+04</pdfrwt>
<pdfrwt beam="2">  1       -2 0.20904917E+00 0.39261227E+04</pdfrwt>
<totfact> 0.20258769E-01</totfact>
</mgrwt>
</event>
<event>
 6    1  0.2325157E-005  0.2749239E+04  0.7818608E-02  0.8319203E-01
          2   -1    0    0  501    0  0.00000000000E+00  0.00000000000E+00  0.35282973180E+04  0.35282973180E+04  0.00000000000E+00 0.  1.
         -2   -1    0    0    0  501 -0.00000000000E+00 -0.00000000000E+00 -0.53554985942E+03  0.53554985942E+03  0.00000000000E+00 0. -1.
         23    2    1    2    0    0 -0.19230268326E+03  0.13018934801E+04  0.91886088926E+03  0.16076483952E+04  0.91219915734E+02 0.  0.
         13    1    3    3    0    0 -0.10271519947E+02  0.33270042281E+03  0.24344304500E+03  0.41238282168E+03  0.00000000000E+00 0.  1.
        -13    1    3    3    0    0 -0.18203116331E+03  0.96919305733E+03  0.67541784426E+03  0.11952655735E+04  0.00000000000E+00 0. -1.
         22    1    1    2    0    0  0.19230268326E+03 -0.13018934801E+04  0.20738865693E+04  0.24561987823E+04  0.00000000000E+00 0.  1.
<mgrwt>
<rscale>  0 0.27492393E+04</rscale>
<asrwt>0</asrwt>
<pdfrwt beam="1">  1        2 0.54281496E+00 0.27492393E+04</pdfrwt>
<pdfrwt beam="2">  1       -2 0.82392288E-01 0.27492393E+04</pdfrwt>
<totfact> 0.87762157E-01</totfact>
</mgrwt>
</event>
<event>
 6    1  0.2325157E-005  0.2595861E+04  0.7818608E-02  0.8369609E-01
          2   -1    0    0  501    0  0.00000000000E+00  0.00000000000E+00  0.16495783638E+04  0.16495783638E+04  0.00000000000E+00 0.  1.
         -2   -1    0    0    0  501 -0.00000000000E+00 -0.00000000000E+00 -0.10212445921E+04  0.10212445921E+04  0.00000000000E+00 0. -1.
         23    2    1    2    0    0 -0.10593245607E+04  0.67251219906E+03  0.64869296930E+03  0.14158904160E+04  0.97477786305E+02 0.  0.
         13    1    3    3    0    0 -0.24026535307E+03  0.16429844104E+03  0.19640081583E+03  0.35113344767E+03  0.00000000000E+00 0. -1.
        -13    1    3    3    0    0 -0.81905920767E+03  0.50821375802E+03  0.45229215347E+03  0.10647569683E+04  0.00000000000E+00 0.  1.
         22    1    1    2    0    0  0.10593245607E+04 -0.67251219906E+03 -0.20359197615E+02  0.12549325399E+04  0.00000000000E+00 0.  1.
<mgrwt>
<rscale>  0 0.25958605E+04</rscale>
<asrwt>0</asrwt>
<pdfrwt beam="1">  1        2 0.25378129E+00 0.25958605E+04</pdfrwt>
<pdfrwt beam="2">  1       -2 0.15711455E+00 0.25958605E+04</pdfrwt>
<totfact> 0.24505972E+00</totfact>
</mgrwt>
</event>
<event>
 6    1  0.2325157E-005  0.4918902E+04  0.7818608E-02  0.7841141E-01
         -2   -1    0    0    0  501 -0.00000000000E+00  0.00000000000E+00  0.25356424851E+04  0.25356424851E+04  0.00000000000E+00 0. -1.
          2   -1    0    0  501    0  0.00000000000E+00 -0.00000000000E+00 -0.23855484777E+04  0.23855484777E+04  0.00000000000E+00 0.  1.
         23    2    1    2    0    0 -0.24058299951E+04 -0.14572803730E+03 -0.41060709610E+03  0.24465919340E+04  0.89214784608E+02 0.  0.
         11    1    3    3    0    0 -0.12130552350E+04 -0.48815225121E+02 -0.24451113192E+03  0.12384149640E+04  0.00000000000E+00 0.  1.
        -11    1    3    3    0    0 -0.11927747601E+04 -0.96912812178E+02 -0.16609596419E+03  0.12081769700E+04  0.00000000000E+00 0. -1.
         22    1    1    2    0    0  0.24058299951E+04  0.14572803730E+03  0.56070110355E+03  0.24745990289E+04  0.00000000000E+00 0.  1.
<mgrwt>
<rscale>  0 0.49189015E+04</rscale>
<asrwt>0</asrwt>
<pdfrwt beam="1">  1        2 0.36700746E+00 0.49189015E+04</pdfrwt>
<pdfrwt beam="2">  1       -2 0.39009884E+00 0.49189015E+04</pdfrwt>
<totfact> 0.25581385E-02</totfact>
</mgrwt>
</event>
<event>
 6    1  0.2325157E-005  0.1876828E+04  0.7818608E-02  0.8666477E-01
         -4   -1    0    0    0  501 -0.00000000000E+00  0.00000000000E+00  0.96177702451E+03  0.96177702451E+03  0.00000000000E+00 0. -1.
          4   -1    0    0  501    0  0.00000000000E+00 -0.00000000000E+00 -0.91561845711E+03  0.91561845711E+03  0.00000000000E+00 0.  1.
         23    2    1    2    0    0  0.87408477516E+03  0.33089432135E+03 -0.35356983021E+02  0.93922703671E+03  0.85918939500E+02 0.  0.
         13    1    3    3    0    0  0.23873220748E+03  0.56267686179E+02 -0.29462286121E+02  0.24703672945E+03  0.00000000000E+00 0. -1.
        -13    1    3    3    0    0  0.63535256769E+03  0.27462663517E+03 -0.58946969000E+01  0.69219030726E+03  0.00000000000E+00 0.  1.
         22    1    1    2    0    0 -0.87408477516E+03 -0.33089432135E+03  0.81515550419E+02  0.93816844492E+03  0.00000000000E+00 0. -1.
<mgrwt>
<rscale>  0 0.18768280E+04</rscale>
<asrwt>0</asrwt>
<pdfrwt beam="1">  1        4 0.14086438E+00 0.18768280E+04</pdfrwt>
<pdfrwt beam="2">  1       -4 0.14796570E+00 0.18768280E+04</pdfrwt>
<totfact> 0.20396233E-01</totfact>
</mgrwt>
</event>
<event>
 6    1  0.2325157E-005  0.4258286E+04  0.7818608E-02  0.7954377E-01
         -2   -1    0    0    0  501 -0.00000000000E+00  0.00000000000E+00  0.20800293670E+04  0.20800293670E+04  0.00000000000E+00 0. -1.
          2   -1    0    0  501    0  0.00000000000E+00 -0.00000000000E+00 -0.21794163175E+04  0.21794163175E+04  0.00000000000E+00 0.  1.
         23    2    1    2    0    0 -0.10124135939E+04 -0.46324196581E+03 -0.18635927961E+04  0.21733017130E+04  0.10338192345E+03 0.  0.
         13    1    3    3    0    0 -0.66371769780E+03 -0.27702913564E+03 -0.12846571496E+04  0.14722806514E+04  0.00000000000E+00 0. -1.
        -13    1    3    3    0    0 -0.34869589614E+03 -0.18621283018E+03 -0.57893564647E+03  0.70102106164E+03  0.00000000000E+00 0.  1.
         22    1    1    2    0    0  0.10124135939E+04  0.46324196581E+03  0.17642058456E+04  0.20861439715E+04  0.00000000000E+00 0. -1.
<mgrwt>
<rscale>  0 0.42582860E+04</rscale>
<asrwt>0</asrwt>
<pdfrwt beam="1">  1        2 0.33529482E+00 0.42582860E+04</pdfrwt>
<pdfrwt beam="2">  1       -2 0.32000452E+00 0.42582860E+04</pdfrwt>
<totfact> 0.98104424E-02</totfact>
</mgrwt>
</event>
<event>
 6    1  0.2325157E-005  0.2707150E+04  0.7818608E-02  0.8332689E-01
          2   -1    0    0  501    0  0.00000000000E+00  0.00000000000E+00  0.29860135120E+04  0.29860135120E+04  0.00000000000E+00 0.  1.
         -2   -1    0    0    0  501 -0.00000000000E+00 -0.00000000000E+00 -0.61358231822E+03  0.61358231822E+03  0.00000000000E+00 0. -1.
         23    2    1    2    0    0  0.64175245357E+03 -0.10036949179E+04  0.33737628150E+03  0.12414825599E+04  0.90589686537E+02 0.  0.
         13    1    3    3    0    0  0.41672758244E+03 -0.60958576090E+03  0.16964252102E+03  0.75765114849E+03  0.00000000000E+00 0. -1.
        -13    1    3    3    0    0  0.22502487113E+03 -0.39410915698E+03  0.16773376048E+03  0.48383141139E+03  0.00000000000E+00 0.  1.
         22    1    1    2    0    0 -0.64175245357E+03  0.10036949179E+04  0.20350549123E+04  0.23581132704E+04  0.00000000000E+00 0.  1.
<mgrwt>
<rscale>  0 0.27071499E+04</rscale>
<asrwt>0</asrwt>
<pdfrwt beam="1">  1        2 0.45938669E+00 0.27071499E+04</pdfrwt>
<pdfrwt beam="2">  1       -2 0.94397281E-01 0.27071499E+04</pdfrwt>
<totfact> 0.14731370E+00</totfact>
</mgrwt>
</event>
<event>
 6    1  0.2325157E-005  0.1967510E+04  0.7818608E-02  0.8621963E-01
          2   -1    0    0  501    0  0.00000000000E+00  0.00000000000E+00  0.12571047973E+04  0.12571047973E+04  0.00000000000E+00 0.  1.
         -2   -1    0    0    0  501 -0.00000000000E+00 -0.00000000000E+00 -0.76984356685E+03  0.76984356685E+03  0.00000000000E+00 0. -1.
         23    2    1    2    0    0  0.82042674525E+03  0.53872564393E+03  0.26152536999E+03  0.10198326596E+04  0.91311393506E+02 0.  0.
         11    1    3    3    0    0  0.51800521458E+03  0.31682144242E+03  0.12021015794E+03  0.61899572759E+03  0.00000000000E+00 0.  1.
        -11    1    3    3    0    0  0.30242153068E+03  0.22190420151E+03  0.14131521206E+03  0.40083693196E+03  0.00000000000E+00 0. -1.
         22    1    1    2    0    0 -0.82042674525E+03 -0.53872564393E+03  0.22573586046E+03  0.10071157046E+04  0.00000000000E+00 0. -1.
<mgrwt>
<rscale>  0 0.19675101E+04</rscale>
<asrwt>0</asrwt>
<pdfrwt beam="1">  1        2 0.19340074E+00 0.19675101E+04</pdfrwt>
<pdfrwt beam="2">  1       -2 0.11843747E+00 0.19675101E+04</pdfrwt>
<totfact> 0.89530555E+00</totfact>
</mgrwt>
</event>
<event>
 6    1  0.2325157E-005  0.1670078E+04  0.7818608E-02  0.8778617E-01
          2   -1    0    0  501    0  0.00000000000E+00  0.00000000000E+00  0.23267415379E+04  0.23267415379E+04  0.00000000000E+00 0.  1.
         -2   -1    0    0    0  501 -0.00000000000E+00 -0.00000000000E+00 -0.29968517802E+03  0.29968517802E+03  0.00000000000E+00 0. -1.
         23    2    1    2    0    0 -0.40385964983E+03  0.71637852739E+03  0.81288858428E+03  0.11599669658E+04  0.91840623608E+02 0.  0.
         11    1    3    3    0    0 -0.19312048956E+03  0.38379377702E+03  0.36628866856E+03  0.56458885526E+03  0.00000000000E+00 0. -1.
        -11    1    3    3    0    0 -0.21073916027E+03  0.33258475037E+03  0.44659991572E+03  0.59537811059E+03  0.00000000000E+00 0.  1.
         22    1    1    2    0    0  0.40385964983E+03 -0.71637852739E+03  0.12141677756E+04  0.14664597500E+04  0.00000000000E+00 0.  1.
<mgrwt>
<rscale>  0 0.16700778E+04</rscale>
<asrwt>0</asrwt>
<pdfrwt beam="1">  1        2 0.35796023E+00 0.16700778E+04</pdfrwt>
<pdfrwt beam="2">  1       -2 0.46105413E-01 0.16700778E+04</pdfrwt>
<totfact> 0.18642801E+01</totfact>
</mgrwt>
</event>
<event>
 6    1  0.2325157E-005  0.2114893E+04  0.7818608E-02  0.8554711E-01
         -2   -1    0    0    0  501 -0.00000000000E+00  0.00000000000E+00  0.10372258198E+04  0.10372258198E+04  0.00000000000E+00 0. -1.
          2   -1    0    0  501    0  0.00000000000E+00 -0.00000000000E+00 -0.10780618569E+04  0.10780618569E+04  0.00000000000E+00 0.  1.
         23    2    1    2    0    0 -0.18826052942E+03 -0.29331393676E+03 -0.10168821958E+04  0.10788798438E+04  0.91963170874E+02 0.  0.
         13    1    3    3    0    0 -0.11057952636E+03 -0.91186820368E+02 -0.43563047447E+03  0.45860307254E+03  0.00000000000E+00 0. -1.
        -13    1    3    3    0    0 -0.77681003060E+02 -0.20212711639E+03 -0.58125172130E+03  0.62027677123E+03  0.00000000000E+00 0.  1.
         22    1    1    2    0    0  0.18826052942E+03  0.29331393676E+03  0.97604615868E+03  0.10364078330E+04  0.00000000000E+00 0. -1.
<mgrwt>
<rscale>  0 0.21148935E+04</rscale>
<asrwt>0</asrwt>
<pdfrwt beam="1">  1        2 0.16585567E+00 0.21148935E+04</pdfrwt>
<pdfrwt beam="2">  1       -2 0.15957320E+00 0.21148935E+04</pdfrwt>
<totfact> 0.52496920E+00</totfact>
</mgrwt>
</event>
<event>
 6    1  0.2325157E-005  0.4259889E+04  0.7818608E-02  0.7954077E-01
         -2   -1    0    0    0  501 -0.00000000000E+00  0.00000000000E+00  0.14270926460E+04  0.14270926460E+04  0.00000000000E+00 0. -1.
          2   -1    0    0  501    0  0.00000000000E+00 -0.00000000000E+00 -0.31789558887E+04  0.31789558887E+04  0.00000000000E+00 0.  1.
         23    2    1    2    0    0  0.13624668498E+04  0.14477362218E+03 -0.26379248521E+04  0.29743682676E+04  0.10461236840E+03 0.  0.
         11    1    3    3    0    0  0.40576868306E+03  0.90335955217E+02 -0.82015488587E+03  0.91949053599E+03  0.00000000000E+00 0. -1.
        -11    1    3    3    0    0  0.95669816678E+03  0.54437666960E+02 -0.18177699662E+04  0.20548777316E+04  0.00000000000E+00 0.  1.
         22    1    1    2    0    0 -0.13624668498E+04 -0.14477362218E+03  0.88606160936E+03  0.16316802671E+04  0.00000000000E+00 0. -1.
<mgrwt>
<rscale>  0 0.42598895E+04</rscale>
<asrwt>0</asrwt>
<pdfrwt beam="1">  1        2 0.48907014E+00 0.42598895E+04</pdfrwt>
<pdfrwt beam="2">  1       -2 0.21955272E+00 0.42598895E+04</pdfrwt>
<totfact> 0.10276098E-01</totfact>
</mgrwt>
</event>
<event>
 6    1  0.2325157E-005  0.2117665E+04  0.7818608E-02  0.8553502E-01
         -2   -1    0    0    0  501 -0.00000000000E+00  0.00000000000E+00  0.65104953112E+03  0.65104953112E+03  0.00000000000E+00 0.  1.
          2   -1    0    0  501    0  0.00000000000E+00 -0.00000000000E+00 -0.17220285230E+04  0.17220285230E+04  0.00000000000E+00 0. -1.
         23    2    1    2    0    0  0.19363978866E+03 -0.83152052082E+03  0.16183646504E+03  0.87349254635E+03  0.88743691647E+02 0.  0.
         11    1    3    3    0    0  0.92565886068E+02 -0.50708624460E+03  0.13365765286E+03  0.53251222605E+03  0.00000000000E+00 0.  1.
        -11    1    3    3    0    0  0.10107390259E+03 -0.32443427622E+03  0.28178812178E+02  0.34098032029E+03  0.00000000000E+00 0. -1.
         22    1    1    2    0    0 -0.19363978866E+03  0.83152052082E+03 -0.12328154569E+04  0.14995855078E+04  0.00000000000E+00 0. -1.
<mgrwt>
<rscale>  0 0.21176646E+04</rscale>
<asrwt>0</asrwt>
<pdfrwt beam="1">  1        2 0.26492746E+00 0.21176646E+04</pdfrwt>
<pdfrwt beam="2">  1       -2 0.10016147E+00 0.21176646E+04</pdfrwt>
<totfact> 0.72194765E+00</totfact>
</mgrwt>
</event>
<event>
 6    1  0.2325157E-005  0.2438217E+04  0.7818608E-02  0.8425333E-01
          2   -1    0    0  501    0  0.00000000000E+00  0.00000000000E+00  0.13185576732E+04  0.13185576732E+04  0.00000000000E+00 0.  1.
         -2   -1    0    0    0  501 -0.00000000000E+00 -0.00000000000E+00 -0.11271601521E+04  0.11271601521E+04  0.00000000000E+00 0. -1.
         23    2    1    2    0    0  0.17811254043E+03 -0.89884881557E+03  0.89935917149E+03  0.12877614492E+04  0.99143130894E+02 0.  0.
         11    1    3    3    0    0  0.48578100206E+02 -0.46528848162E+03  0.49209258606E+03  0.67897593197E+03  0.00000000000E+00 0.  1.
        -11    1    3    3    0    0  0.12953444023E+03 -0.43356033395E+03  0.40726658544E+03  0.60878551723E+03  0.00000000000E+00 0. -1.
         22    1    1    2    0    0 -0.17811254043E+03  0.89884881557E+03 -0.70796165040E+03  0.11579563760E+04  0.00000000000E+00 0. -1.
<mgrwt>
<rscale>  0 0.24382171E+04</rscale>
<asrwt>0</asrwt>
<pdfrwt beam="1">  1        2 0.20285503E+00 0.24382171E+04</pdfrwt>
<pdfrwt beam="2">  1       -2 0.17340925E+00 0.24382171E+04</pdfrwt>
<totfact> 0.29144953E+00</totfact>
</mgrwt>
</event>
<event>
 6    1  0.2325157E-005  0.2876676E+04  0.7818608E-02  0.8279851E-01
         -2   -1    0    0    0  501 -0.00000000000E+00  0.00000000000E+00  0.13024130187E+04  0.13024130187E+04  0.00000000000E+00 0. -1.
          2   -1    0    0  501    0  0.00000000000E+00 -0.00000000000E+00 -0.15884490471E+04  0.15884490471E+04  0.00000000000E+00 0.  1.
         23    2    1    2    0    0 -0.90247957363E+03  0.74109229474E+03  0.69985604863E+03  0.13625720548E+04  0.55829611966E+02 0.  0.
         11    1    3    3    0    0 -0.54607700303E+03  0.45906804850E+03  0.39710091369E+03  0.81647578166E+03  0.00000000000E+00 0. -1.
        -11    1    3    3    0    0 -0.35640257060E+03  0.28202424623E+03  0.30275513495E+03  0.54609627313E+03  0.00000000000E+00 0.  1.
         22    1    1    2    0    0  0.90247957363E+03 -0.74109229474E+03 -0.98589207701E+03  0.15282900110E+04  0.00000000000E+00 0.  1.
<mgrwt>
<rscale>  0 0.28766764E+04</rscale>
<asrwt>0</asrwt>
<pdfrwt beam="1">  1        2 0.24437678E+00 0.28766764E+04</pdfrwt>
<pdfrwt beam="2">  1       -2 0.20037123E+00 0.28766764E+04</pdfrwt>
<totfact> 0.12946558E+00</totfact>
</mgrwt>
</event>
<event>
 6    1  0.2325157E-005  0.1952553E+04  0.7818608E-02  0.8629131E-01
          2   -1    0    0  501    0  0.00000000000E+00  0.00000000000E+00  0.23976165159E+04  0.23976165159E+04  0.00000000000E+00 0.  1.
         -2   -1    0    0    0  501 -0.00000000000E+00 -0.00000000000E+00 -0.39752627967E+03  0.39752627967E+03  0.00000000000E+00 0. -1.
         23    2    1    2    0    0  0.90914839367E+03 -0.14282434199E+03  0.54536704480E+03  0.10737569707E+04  0.92624101433E+02 0.  0.
         11    1    3    3    0    0  0.57269480723E+03 -0.96719021473E+02  0.39476569026E+03  0.70226338475E+03  0.00000000000E+00 0.  1.
        -11    1    3    3    0    0  0.33645358644E+03 -0.46105320521E+02  0.15060135454E+03  0.37149358594E+03  0.00000000000E+00 0. -1.
         22    1    1    2    0    0 -0.90914839367E+03  0.14282434199E+03  0.14547231914E+04  0.17213858249E+04  0.00000000000E+00 0.  1.
<mgrwt>
<rscale>  0 0.19525528E+04</rscale>
<asrwt>0</asrwt>
<pdfrwt beam="1">  1        2 0.36886407E+00 0.19525528E+04</pdfrwt>
<pdfrwt beam="2">  1       -2 0.61157891E-01 0.19525528E+04</pdfrwt>
<totfact> 0.92539693E+00</totfact>
</mgrwt>
</event>
<event>
 6    1  0.2325157E-005  0.1496414E+04  0.7818608E-02  0.8886841E-01
          2   -1    0    0  501    0  0.00000000000E+00  0.00000000000E+00  0.21462547650E+03  0.21462547650E+03  0.00000000000E+00 0.  1.
         -2   -1    0    0    0  501 -0.00000000000E+00 -0.00000000000E+00 -0.26083294289E+04  0.26083294289E+04  0.00000000000E+00 0. -1.
         23    2    1    2    0    0 -0.74184318521E+03 -0.58601059746E+01 -0.13397631567E+04  0.15340961648E+04  0.90111456549E+02 0.  0.
         11    1    3    3    0    0 -0.55594597697E+03  0.15703467820E+01 -0.10785158271E+04  0.12133733080E+04  0.00000000000E+00 0. -1.
        -11    1    3    3    0    0 -0.18589720824E+03 -0.74304527566E+01 -0.26124732963E+03  0.32072285684E+03  0.00000000000E+00 0.  1.
         22    1    1    2    0    0  0.74184318521E+03  0.58601059746E+01 -0.10539407956E+04  0.12888587405E+04  0.00000000000E+00 0. -1.
<mgrwt>
<rscale>  0 0.14964143E+04</rscale>
<asrwt>0</asrwt>
<pdfrwt beam="1">  1        2 0.33019303E-01 0.14964143E+04</pdfrwt>
<pdfrwt beam="2">  1       -2 0.40128147E+00 0.14964143E+04</pdfrwt>
<totfact> 0.11349876E+00</totfact>
</mgrwt>
</event>
<event>
 6    1  0.2325157E-005  0.1610722E+04  0.7818608E-02  0.8813988E-01
         -2   -1    0    0    0  501 -0.00000000000E+00  0.00000000000E+00  0.40525336570E+03  0.40525336570E+03  0.00000000000E+00 0. -1.
          2   -1    0    0  501    0  0.00000000000E+00 -0.00000000000E+00 -0.16004955547E+04  0.16004955547E+04  0.00000000000E+00 0.  1.
         23    2    1    2    0    0 -0.25958039076E+03 -0.47777211279E+02  0.34448590656E+03  0.44356223199E+03  0.91718442216E+02 0.  0.
         13    1    3    3    0    0 -0.11021001686E+03  0.19211175599E+02  0.17676952537E+03  0.20919555967E+03  0.00000000000E+00 0. -1.
        -13    1    3    3    0    0 -0.14937037390E+03 -0.66988386878E+02  0.16771638119E+03  0.23436667232E+03  0.00000000000E+00 0.  1.
         22    1    1    2    0    0  0.25958039076E+03  0.47777211279E+02 -0.15397280956E+04  0.15621866884E+04  0.00000000000E+00 0.  1.
<mgrwt>
<rscale>  0 0.16107218E+04</rscale>
<asrwt>0</asrwt>
<pdfrwt beam="1">  1        2 0.24623009E+00 0.16107218E+04</pdfrwt>
<pdfrwt beam="2">  1       -2 0.62346671E-01 0.16107218E+04</pdfrwt>
<totfact> 0.25487392E+01</totfact>
</mgrwt>
</event>
<event>
 6    1  0.2325157E-005  0.4431939E+04  0.7818608E-02  0.7922662E-01
         -2   -1    0    0    0  501 -0.00000000000E+00  0.00000000000E+00  0.24871935963E+04  0.24871935963E+04  0.00000000000E+00 0. -1.
          2   -1    0    0  501    0  0.00000000000E+00 -0.00000000000E+00 -0.19743223380E+04  0.19743223380E+04  0.00000000000E+00 0.  1.
         23    2    1    2    0    0  0.19929758069E+04 -0.71530845697E+03  0.91091419561E+03  0.23069726102E+04  0.93483671137E+02 0.  0.
         13    1    3    3    0    0  0.17827845277E+04 -0.66971854894E+03  0.82085115601E+03  0.20737985021E+04  0.00000000000E+00 0.  1.
        -13    1    3    3    0    0  0.21019127927E+03 -0.45589908035E+02  0.90063039598E+02  0.23317410812E+03  0.00000000000E+00 0. -1.
         22    1    1    2    0    0 -0.19929758069E+04  0.71530845697E+03 -0.39804293729E+03  0.21545433241E+04  0.00000000000E+00 0.  1.
<mgrwt>
<rscale>  0 0.44319395E+04</rscale>
<asrwt>0</asrwt>
<pdfrwt beam="1">  1        2 0.30374190E+00 0.44319395E+04</pdfrwt>
<pdfrwt beam="2">  1       -2 0.38264517E+00 0.44319395E+04</pdfrwt>
<totfact> 0.50634378E-02</totfact>
</mgrwt>
</event>
<event>
 6    1  0.2325157E-005  0.9394122E+03  0.7818608E-02  0.9377612E-01
         -2   -1    0    0    0  501 -0.00000000000E+00  0.00000000000E+00  0.28663942013E+03  0.28663942013E+03  0.00000000000E+00 0.  1.
          2   -1    0    0  501    0  0.00000000000E+00 -0.00000000000E+00 -0.76969118459E+03  0.76969118459E+03  0.00000000000E+00 0. -1.
         23    2    1    2    0    0  0.44819629208E+03 -0.12509974353E+03 -0.27391500557E+03  0.54616588036E+03  0.82084569312E+02 0.  0.
         11    1    3    3    0    0  0.12434157729E+02 -0.19955707414E+02 -0.73765572942E+01  0.24642486367E+02  0.00000000000E+00 0. -1.
        -11    1    3    3    0    0  0.43576213436E+03 -0.10514403612E+03 -0.26653844828E+03  0.52152339399E+03  0.00000000000E+00 0.  1.
         22    1    1    2    0    0 -0.44819629208E+03  0.12509974353E+03 -0.20913675889E+03  0.51016472437E+03  0.00000000000E+00 0. -1.
<mgrwt>
<rscale>  0 0.93941223E+03</rscale>
<asrwt>0</asrwt>
<pdfrwt beam="1">  1        2 0.11841403E+00 0.93941223E+03</pdfrwt>
<pdfrwt beam="2">  1       -2 0.44098373E-01 0.93941223E+03</pdfrwt>
<totfact> 0.17695355E+02</totfact>
</mgrwt>
</event>
<event>
 6    1  0.2325157E-005  0.7292886E+03  0.7818608E-02  0.9668415E-01
         -2   -1    0    0    0  501 -0.00000000000E+00  0.00000000000E+00  0.49447569378E+02  0.49447569378E+02  0.00000000000E+00 0. -1.
          2   -1    0    0  501    0  0.00000000000E+00 -0.00000000000E+00 -0.26890192998E+04  0.26890192998E+04  0.00000000000E+00 0.  1.
         23    2    1    2    0    0  0.56063224157E+02 -0.27299736881E+03 -0.21889753772E+04  0.22086482946E+04  0.94039558464E+02 0.  0.
         13    1    3    3    0    0  0.11464092824E+02 -0.10527785814E+03 -0.11906684192E+04  0.11953686198E+04  0.00000000000E+00 0.  1.
        -13    1    3    3    0    0  0.44599131333E+02 -0.16771951067E+03 -0.99830695807E+03  0.10132796748E+04  0.00000000000E+00 0. -1.
         22    1    1    2    0    0 -0.56063224157E+02  0.27299736881E+03 -0.45059635322E+03  0.52981857463E+03  0.00000000000E+00 0. -1.
<mgrwt>
<rscale>  0 0.72928861E+03</rscale>
<asrwt>0</asrwt>
<pdfrwt beam="1">  1        2 0.41369534E+00 0.72928861E+03</pdfrwt>
<pdfrwt beam="2">  1       -2 0.76073172E-02 0.72928861E+03</pdfrwt>
<totfact> 0.30076206E+02</totfact>
</mgrwt>
</event>
<event>
 6    1  0.2325157E-005  0.2683520E+04  0.7818608E-02  0.8340372E-01
          2   -1    0    0  501    0  0.00000000000E+00  0.00000000000E+00  0.20449595873E+04  0.20449595873E+04  0.00000000000E+00 0. -1.
         -2   -1    0    0    0  501 -0.00000000000E+00 -0.00000000000E+00 -0.88036923357E+03  0.88036923357E+03  0.00000000000E+00 0.  1.
         23    2    1    2    0    0 -0.75048978396E+03 -0.28094868740E+03  0.17541429760E+04  0.19304723612E+04  0.86826703660E+02 0.  0.
         11    1    3    3    0    0 -0.32463255732E+03 -0.12449708712E+03  0.86525537736E+03  0.93249809117E+03  0.00000000000E+00 0. -1.
        -11    1    3    3    0    0 -0.42585722664E+03 -0.15645160028E+03  0.88888759864E+03  0.99797427007E+03  0.00000000000E+00 0.  1.
         22    1    1    2    0    0  0.75048978396E+03  0.28094868740E+03 -0.58955262229E+03  0.99485645961E+03  0.00000000000E+00 0.  1.
<mgrwt>
<rscale>  0 0.26835197E+04</rscale>
<asrwt>0</asrwt>
<pdfrwt beam="1">  1        2 0.31460917E+00 0.26835197E+04</pdfrwt>
<pdfrwt beam="2">  1       -2 0.13544142E+00 0.26835197E+04</pdfrwt>
<totfact> 0.21676271E+00</totfact>
</mgrwt>
</event>
<event>
 6    1  0.2325157E-005  0.3095658E+04  0.7818608E-02  0.8216931E-01
          2   -1    0    0  501    0  0.00000000000E+00  0.00000000000E+00  0.10367850324E+04  0.10367850324E+04  0.00000000000E+00 0.  1.
         -2   -1    0    0    0  501 -0.00000000000E+00 -0.00000000000E+00 -0.23107722628E+04  0.23107722628E+04  0.00000000000E+00 0. -1.
         23    2    1    2    0    0 -0.70110406306E+03 -0.32286125804E+03  0.81151339892E+03  0.11237994006E+04  0.92654179884E+02 0.  0.
         11    1    3    3    0    0 -0.51748331264E+03 -0.27423753155E+03  0.57886511517E+03  0.82345614584E+03  0.00000000000E+00 0. -1.
        -11    1    3    3    0    0 -0.18362075042E+03 -0.48623726489E+02  0.23264828375E+03  0.30034325479E+03  0.00000000000E+00 0.  1.
         22    1    1    2    0    0  0.70110406306E+03  0.32286125804E+03 -0.20855006293E+04  0.22237578946E+04  0.00000000000E+00 0. -1.
<mgrwt>
<rscale>  0 0.30956577E+04</rscale>
<asrwt>0</asrwt>
<pdfrwt beam="1">  1        2 0.15950539E+00 0.30956577E+04</pdfrwt>
<pdfrwt beam="2">  1       -2 0.35550342E+00 0.30956577E+04</pdfrwt>
<totfact> 0.29093968E-01</totfact>
</mgrwt>
</event>
<event>
 6    1  0.2325157E-005  0.2156782E+04  0.7818608E-02  0.8536635E-01
         -2   -1    0    0    0  501 -0.00000000000E+00  0.00000000000E+00  0.67655114237E+03  0.67655114237E+03  0.00000000000E+00 0. -1.
          2   -1    0    0  501    0  0.00000000000E+00 -0.00000000000E+00 -0.17189045201E+04  0.17189045201E+04  0.00000000000E+00 0.  1.
         23    2    1    2    0    0  0.79513787002E+03  0.55340445940E+03 -0.10432219970E+04  0.14266928006E+04  0.92948825346E+02 0.  0.
         13    1    3    3    0    0  0.41488537421E+03  0.33407249057E+03 -0.53143436722E+03  0.75243391029E+03  0.00000000000E+00 0. -1.
        -13    1    3    3    0    0  0.38025249581E+03  0.21933196883E+03 -0.51178762978E+03  0.67425889028E+03  0.00000000000E+00 0.  1.
         22    1    1    2    0    0 -0.79513787002E+03 -0.55340445940E+03  0.86861930063E+00  0.96876286187E+03  0.00000000000E+00 0. -1.
<mgrwt>
<rscale>  0 0.21567817E+04</rscale>
<asrwt>0</asrwt>
<pdfrwt beam="1">  1        2 0.26444685E+00 0.21567817E+04</pdfrwt>
<pdfrwt beam="2">  1       -2 0.10408479E+00 0.21567817E+04</pdfrwt>
<totfact> 0.65917674E+00</totfact>
</mgrwt>
</event>
<event>
 6    1  0.2325157E-005  0.3300466E+04  0.7818608E-02  0.8162777E-01
          2   -1    0    0  501    0  0.00000000000E+00  0.00000000000E+00  0.48175337211E+04  0.48175337211E+04  0.00000000000E+00 0.  1.
         -2   -1    0    0    0  501 -0.00000000000E+00 -0.00000000000E+00 -0.56528279252E+03  0.56528279252E+03  0.00000000000E+00 0. -1.
         23    2    1    2    0    0  0.38145149490E+03  0.15619955842E+04  0.27259568995E+04  0.31658571294E+04  0.80466747678E+02 0.  0.
         11    1    3    3    0    0  0.21881107865E+03  0.10412244915E+04  0.18336864095E+04  0.21200076835E+04  0.00000000000E+00 0. -1.
        -11    1    3    3    0    0  0.16264041625E+03  0.52077109279E+03  0.89227048999E+03  0.10458494458E+04  0.00000000000E+00 0.  1.
         22    1    1    2    0    0 -0.38145149490E+03 -0.15619955842E+04  0.15262940291E+04  0.22169593842E+04  0.00000000000E+00 0. -1.
<mgrwt>
<rscale>  0 0.33004660E+04</rscale>
<asrwt>0</asrwt>
<pdfrwt beam="1">  1        2 0.74115900E+00 0.33004660E+04</pdfrwt>
<pdfrwt beam="2">  1       -2 0.86966587E-01 0.33004660E+04</pdfrwt>
<totfact> 0.54055568E-02</totfact>
</mgrwt>
</event>
<event>
 6    1  0.3315271E-005  0.5479122E+04  0.7818608E-02  0.7758569E-01
         -2   -1    0    0    0  501 -0.00000000000E+00  0.00000000000E+00  0.22433515978E+04  0.22433515978E+04  0.00000000000E+00 0. -1.
          2   -1    0    0  501    0  0.00000000000E+00 -0.00000000000E+00 -0.33455271872E+04  0.33455271872E+04  0.00000000000E+00 0.  1.
         23    2    1    2    0    0 -0.13188651835E+04  0.51278768941E+01  0.18972004139E+04  0.23123427977E+04  0.90156175449E+02 0.  0.
         11    1    3    3    0    0 -0.55490450158E+03  0.40659949905E+02  0.76007750522E+03  0.94196074830E+03  0.00000000000E+00 0. -1.
        -11    1    3    3    0    0 -0.76396068196E+03 -0.35532073011E+02  0.11371229087E+04  0.13703820494E+04  0.00000000000E+00 0.  1.
         22    1    1    2    0    0  0.13188651835E+04 -0.51278768941E+01 -0.29993760033E+04  0.32765359874E+04  0.00000000000E+00 0.  1.
<mgrwt>
<rscale>  0 0.54791217E+04</rscale>
<asrwt>0</asrwt>
<pdfrwt beam="1">  1        2 0.51469649E+00 0.54791217E+04</pdfrwt>
<pdfrwt beam="2">  1       -2 0.34513101E+00 0.54791217E+04</pdfrwt>
<totfact> 0.12133793E-02</totfact>
</mgrwt>
</event>
<event>
 6    1  0.2325157E-005  0.3616499E+04  0.7818608E-02  0.8086723E-01
          2   -1    0    0  501    0  0.00000000000E+00  0.00000000000E+00  0.24329665303E+04  0.24329665303E+04  0.00000000000E+00 0.  1.
         -2   -1    0    0    0  501 -0.00000000000E+00 -0.00000000000E+00 -0.13439424362E+04  0.13439424362E+04  0.00000000000E+00 0. -1.
         23    2    1    2    0    0 -0.32420013605E+03 -0.15111022950E+04  0.15231264086E+04  0.21716112702E+04  0.86287762784E+02 0.  0.
         13    1    3    3    0    0 -0.46642646919E+02 -0.20721611830E+03  0.16938945398E+03  0.27167414915E+03  0.00000000000E+00 0. -1.
        -13    1    3    3    0    0 -0.27755748914E+03 -0.13038861767E+04  0.13537369546E+04  0.18999371210E+04  0.00000000000E+00 0.  1.
         22    1    1    2    0    0  0.32420013605E+03  0.15111022950E+04 -0.43410231448E+03  0.16052976963E+04  0.00000000000E+00 0. -1.
<mgrwt>
<rscale>  0 0.36164994E+04</rscale>
<asrwt>0</asrwt>
<pdfrwt beam="1">  1        2 0.37430254E+00 0.36164994E+04</pdfrwt>
<pdfrwt beam="2">  1       -2 0.20676037E+00 0.36164994E+04</pdfrwt>
<totfact> 0.37219964E-01</totfact>
</mgrwt>
</event>
<event>
 6    1  0.2325157E-005  0.2669779E+04  0.7818608E-02  0.8344878E-01
          2   -1    0    0  501    0  0.00000000000E+00  0.00000000000E+00  0.13077602332E+04  0.13077602332E+04  0.00000000000E+00 0. -1.
         -2   -1    0    0    0  501 -0.00000000000E+00 -0.00000000000E+00 -0.13625814582E+04  0.13625814582E+04  0.00000000000E+00 0.  1.
         23    2    1    2    0    0 -0.57397789306E+03 -0.72106618163E+03 -0.99134241007E+03  0.13563938271E+04  0.87506458595E+02 0.  0.
         13    1    3    3    0    0 -0.17428396951E+03 -0.21773939569E+03 -0.24280901786E+03  0.36978583750E+03  0.00000000000E+00 0. -1.
        -13    1    3    3    0    0 -0.39969392356E+03 -0.50332678593E+03 -0.74853339221E+03  0.98660798964E+03  0.00000000000E+00 0.  1.
         22    1    1    2    0    0  0.57397789306E+03  0.72106618163E+03  0.93652118509E+03  0.13139478643E+04  0.00000000000E+00 0. -1.
<mgrwt>
<rscale>  0 0.26697789E+04</rscale>
<asrwt>0</asrwt>
<pdfrwt beam="1">  1        2 0.20119388E+00 0.26697789E+04</pdfrwt>
<pdfrwt beam="2">  1       -2 0.20962792E+00 0.26697789E+04</pdfrwt>
<totfact> 0.16567582E+00</totfact>
</mgrwt>
</event>
<event>
 6    1  0.2325157E-005  0.4848633E+04  0.7818608E-02  0.7852291E-01
          2   -1    0    0  501    0  0.00000000000E+00  0.00000000000E+00  0.14617671986E+04  0.14617671986E+04  0.00000000000E+00 0. -1.
         -2   -1    0    0    0  501 -0.00000000000E+00 -0.00000000000E+00 -0.40206877011E+04  0.40206877011E+04  0.00000000000E+00 0.  1.
         23    2    1    2    0    0  0.23474929705E+04 -0.39262730853E+03 -0.76401190575E+03  0.25014187845E+04  0.92207881014E+02 0.  0.
         13    1    3    3    0    0  0.12269702552E+04 -0.17410185667E+03 -0.36157771678E+03  0.12909321860E+04  0.00000000000E+00 0. -1.
        -13    1    3    3    0    0  0.11205227153E+04 -0.21852545186E+03 -0.40243418897E+03  0.12104865985E+04  0.00000000000E+00 0.  1.
         22    1    1    2    0    0 -0.23474929705E+04  0.39262730853E+03 -0.17949085967E+04  0.29810361153E+04  0.00000000000E+00 0. -1.
<mgrwt>
<rscale>  0 0.48486325E+04</rscale>
<asrwt>0</asrwt>
<pdfrwt beam="1">  1        2 0.22488727E+00 0.48486325E+04</pdfrwt>
<pdfrwt beam="2">  1       -2 0.61856732E+00 0.48486325E+04</pdfrwt>
<totfact> 0.42831512E-03</totfact>
</mgrwt>
</event>
<event>
 6    1  0.2325157E-005  0.2970963E+04  0.7818608E-02  0.8252071E-01
          2   -1    0    0  501    0  0.00000000000E+00  0.00000000000E+00  0.19865721539E+04  0.19865721539E+04  0.00000000000E+00 0.  1.
         -2   -1    0    0    0  501 -0.00000000000E+00 -0.00000000000E+00 -0.11107857403E+04  0.11107857403E+04  0.00000000000E+00 0. -1.
         23    2    1    2    0    0 -0.10340753166E+04  0.33236260313E+03 -0.61605298604E+03  0.12519957468E+04  0.90528493118E+02 0.  0.
         11    1    3    3    0    0 -0.83928170268E+03  0.23424658855E+03 -0.50734580709E+03  0.10082980753E+04  0.00000000000E+00 0. -1.
        -11    1    3    3    0    0 -0.19479361396E+03  0.98116014582E+02 -0.10870717895E+03  0.24369767154E+03  0.00000000000E+00 0.  1.
         22    1    1    2    0    0  0.10340753166E+04 -0.33236260313E+03  0.14918393997E+04  0.18453621473E+04  0.00000000000E+00 0.  1.
<mgrwt>
<rscale>  0 0.29709635E+04</rscale>
<asrwt>0</asrwt>
<pdfrwt beam="1">  1        2 0.30562648E+00 0.29709635E+04</pdfrwt>
<pdfrwt beam="2">  1       -2 0.17089011E+00 0.29709635E+04</pdfrwt>
<totfact> 0.12251977E+00</totfact>
</mgrwt>
</event>
<event>
 6    1  0.2325157E-005  0.6760788E+03  0.7818608E-02  0.9759038E-01
          4   -1    0    0  501    0  0.00000000000E+00  0.00000000000E+00  0.10149616449E+04  0.10149616449E+04  0.00000000000E+00 0.  1.
         -4   -1    0    0    0  501 -0.00000000000E+00 -0.00000000000E+00 -0.11258614863E+03  0.11258614863E+03  0.00000000000E+00 0. -1.
         23    2    1    2    0    0 -0.25615026339E+02 -0.24695431546E+03  0.82658829643E+03  0.86795915133E+03  0.91990831581E+02 0.  0.
         13    1    3    3    0    0 -0.50868334428E+02 -0.95219324224E+02  0.27839188282E+03  0.29859060195E+03  0.00000000000E+00 0. -1.
        -13    1    3    3    0    0  0.25253308089E+02 -0.15173499124E+03  0.54819641361E+03  0.56936854939E+03  0.00000000000E+00 0.  1.
         22    1    1    2    0    0  0.25615026339E+02  0.24695431546E+03  0.75787199846E+02  0.25958864220E+03  0.00000000000E+00 0. -1.
<mgrwt>
<rscale>  0 0.67607876E+03</rscale>
<asrwt>0</asrwt>
<pdfrwt beam="1">  1        4 0.15614794E+00 0.67607876E+03</pdfrwt>
<pdfrwt beam="2">  1       -4 0.17320947E-01 0.67607876E+03</pdfrwt>
<totfact> 0.16019306E+01</totfact>
</mgrwt>
</event>
<event>
 6    1  0.2325157E-005  0.1719540E+04  0.7818608E-02  0.8750298E-01
          4   -1    0    0  501    0  0.00000000000E+00  0.00000000000E+00  0.16657350629E+04  0.16657350629E+04  0.00000000000E+00 0.  1.
         -4   -1    0    0    0  501 -0.00000000000E+00 -0.00000000000E+00 -0.44377071222E+03  0.44377071222E+03  0.00000000000E+00 0. -1.
         23    2    1    2    0    0 -0.49078883272E+03 -0.39046797138E+03 -0.10440232734E+03  0.64233588736E+03  0.91414611808E+02 0.  0.
         11    1    3    3    0    0 -0.37307656212E+03 -0.33154356919E+03 -0.56675338967E+02  0.50231399893E+03  0.00000000000E+00 0. -1.
        -11    1    3    3    0    0 -0.11771227059E+03 -0.58924402191E+02 -0.47726988369E+02  0.14002188843E+03  0.00000000000E+00 0.  1.
         22    1    1    2    0    0  0.49078883272E+03  0.39046797138E+03  0.13263666780E+04  0.14671698877E+04  0.00000000000E+00 0.  1.
<mgrwt>
<rscale>  0 0.17195400E+04</rscale>
<asrwt>0</asrwt>
<pdfrwt beam="1">  1        4 0.25626693E+00 0.17195400E+04</pdfrwt>
<pdfrwt beam="2">  1       -4 0.68272418E-01 0.17195400E+04</pdfrwt>
<totfact> 0.21745798E-01</totfact>
</mgrwt>
</event>
<event>
 6    1  0.2325157E-005  0.2948074E+04  0.7818608E-02  0.8258716E-01
          2   -1    0    0  501    0  0.00000000000E+00  0.00000000000E+00  0.15671684193E+04  0.15671684193E+04  0.00000000000E+00 0.  1.
         -2   -1    0    0    0  501 -0.00000000000E+00 -0.00000000000E+00 -0.13864397371E+04  0.13864397371E+04  0.00000000000E+00 0. -1.
         23    2    1    2    0    0 -0.16679355724E+03 -0.11667389819E+04  0.97451743005E+03  0.15326224003E+04  0.10073359889E+03 0.  0.
         13    1    3    3    0    0 -0.77537985557E+02 -0.24854041342E+03  0.21112036660E+03  0.33519589123E+03  0.00000000000E+00 0.  1.
        -13    1    3    3    0    0 -0.89255571680E+02 -0.91819856847E+03  0.76339706345E+03  0.11974265091E+04  0.00000000000E+00 0. -1.
         22    1    1    2    0    0  0.16679355724E+03  0.11667389819E+04 -0.79378874791E+03  0.14209857561E+04  0.00000000000E+00 0. -1.
<mgrwt>
<rscale>  0 0.29480737E+04</rscale>
<asrwt>0</asrwt>
<pdfrwt beam="1">  1        2 0.24110284E+00 0.29480737E+04</pdfrwt>
<pdfrwt beam="2">  1       -2 0.21329842E+00 0.29480737E+04</pdfrwt>
<totfact> 0.10908453E+00</totfact>
</mgrwt>
</event>
<event>
 6    1  0.2325157E-005  0.1784927E+04  0.7818608E-02  0.8714357E-01
          2   -1    0    0  501    0  0.00000000000E+00  0.00000000000E+00  0.15374309735E+04  0.15374309735E+04  0.00000000000E+00 0.  1.
         -2   -1    0    0    0  501 -0.00000000000E+00 -0.00000000000E+00 -0.51806604694E+03  0.51806604694E+03  0.00000000000E+00 0. -1.
         23    2    1    2    0    0  0.48239349687E+01 -0.72577594905E+03  0.11042244540E+04  0.13247609956E+04  0.94371882221E+02 0.  0.
         11    1    3    3    0    0  0.35032078849E+02 -0.58499827530E+03  0.84698624086E+03  0.10299688931E+04  0.00000000000E+00 0. -1.
        -11    1    3    3    0    0 -0.30208143880E+02 -0.14077767375E+03  0.25723821312E+03  0.29479210246E+03  0.00000000000E+00 0.  1.
         22    1    1    2    0    0 -0.48239349687E+01  0.72577594905E+03 -0.84859527430E+02  0.73073602481E+03  0.00000000000E+00 0. -1.
<mgrwt>
<rscale>  0 0.17849267E+04</rscale>
<asrwt>0</asrwt>
<pdfrwt beam="1">  1        2 0.23652784E+00 0.17849267E+04</pdfrwt>
<pdfrwt beam="2">  1       -2 0.79702469E-01 0.17849267E+04</pdfrwt>
<totfact> 0.15930640E+01</totfact>
</mgrwt>
</event>
<event>
 6    1  0.2325157E-005  0.2626152E+04  0.7818608E-02  0.8359372E-01
         -2   -1    0    0    0  501 -0.00000000000E+00  0.00000000000E+00  0.10154093003E+04  0.10154093003E+04  0.00000000000E+00 0. -1.
          2   -1    0    0  501    0  0.00000000000E+00 -0.00000000000E+00 -0.16980032530E+04  0.16980032530E+04  0.00000000000E+00 0.  1.
         23    2    1    2    0    0 -0.13011399363E+03  0.14448738085E+03 -0.16817494899E+04  0.16955137164E+04  0.93162015159E+02 0.  0.
         13    1    3    3    0    0  0.10280371908E+02 -0.41809503430E+01 -0.92437975556E+02  0.93101802975E+02  0.00000000000E+00 0.  1.
        -13    1    3    3    0    0 -0.14039436554E+03  0.14866833119E+03 -0.15893115144E+04  0.16024119134E+04  0.00000000000E+00 0. -1.
         22    1    1    2    0    0  0.13011399363E+03 -0.14448738085E+03  0.99915553722E+03  0.10178988369E+04  0.00000000000E+00 0. -1.
<mgrwt>
<rscale>  0 0.26261518E+04</rscale>
<asrwt>0</asrwt>
<pdfrwt beam="1">  1        2 0.26123127E+00 0.26261518E+04</pdfrwt>
<pdfrwt beam="2">  1       -2 0.15621682E+00 0.26261518E+04</pdfrwt>
<totfact> 0.23330531E+00</totfact>
</mgrwt>
</event>
<event>
 6    1  0.2325157E-005  0.4868378E+04  0.7818608E-02  0.7849138E-01
         -2   -1    0    0    0  501 -0.00000000000E+00  0.00000000000E+00  0.24241061135E+04  0.24241061135E+04  0.00000000000E+00 0. -1.
          2   -1    0    0  501    0  0.00000000000E+00 -0.00000000000E+00 -0.24443134982E+04  0.24443134982E+04  0.00000000000E+00 0.  1.
         23    2    1    2    0    0 -0.64803156935E+03  0.21856466073E+04 -0.86102676877E+03  0.24386103098E+04  0.91962709924E+02 0.  0.
         13    1    3    3    0    0 -0.41364046520E+03  0.12416270481E+04 -0.48018896281E+03  0.13940292683E+04  0.00000000000E+00 0.  1.
        -13    1    3    3    0    0 -0.23439110415E+03  0.94401955918E+03 -0.38083780595E+03  0.10445810415E+04  0.00000000000E+00 0. -1.
         22    1    1    2    0    0  0.64803156935E+03 -0.21856466073E+04  0.84081938404E+03  0.24298093018E+04  0.00000000000E+00 0. -1.
<mgrwt>
<rscale>  0 0.48683777E+04</rscale>
<asrwt>0</asrwt>
<pdfrwt beam="1">  1        2 0.37604823E+00 0.48683777E+04</pdfrwt>
<pdfrwt beam="2">  1       -2 0.37293940E+00 0.48683777E+04</pdfrwt>
<totfact> 0.30666991E-02</totfact>
</mgrwt>
</event>
<event>
 6    1  0.2325157E-005  0.1649970E+04  0.7818608E-02  0.8790424E-01
         -2   -1    0    0    0  501 -0.00000000000E+00  0.00000000000E+00  0.78428191448E+03  0.78428191448E+03  0.00000000000E+00 0. -1.
          2   -1    0    0  501    0  0.00000000000E+00 -0.00000000000E+00 -0.86780089474E+03  0.86780089474E+03  0.00000000000E+00 0.  1.
         23    2    1    2    0    0  0.25692299999E+03 -0.74023557883E+03 -0.29237238227E+03  0.84117104853E+03  0.90160872261E+02 0.  0.
         11    1    3    3    0    0  0.45884017914E+02 -0.17773943962E+03 -0.10683344036E+03  0.21239123210E+03  0.00000000000E+00 0. -1.
        -11    1    3    3    0    0  0.21103898207E+03 -0.56249613922E+03 -0.18553894191E+03  0.62877981643E+03  0.00000000000E+00 0.  1.
         22    1    1    2    0    0 -0.25692299999E+03  0.74023557883E+03  0.20885340201E+03  0.81091176069E+03  0.00000000000E+00 0.  1.
<mgrwt>
<rscale>  0 0.16499704E+04</rscale>
<asrwt>0</asrwt>
<pdfrwt beam="1">  1        2 0.13350783E+00 0.16499704E+04</pdfrwt>
<pdfrwt beam="2">  1       -2 0.12065876E+00 0.16499704E+04</pdfrwt>
<totfact> 0.15434982E+01</totfact>
</mgrwt>
</event>
<event>
 6    1  0.2325157E-005  0.8357490E+03  0.7818608E-02  0.9509666E-01
         -2   -1    0    0    0  501 -0.00000000000E+00  0.00000000000E+00  0.34516822381E+03  0.34516822381E+03  0.00000000000E+00 0. -1.
          2   -1    0    0  501    0  0.00000000000E+00 -0.00000000000E+00 -0.50589564228E+03  0.50589564228E+03  0.00000000000E+00 0.  1.
         23    2    1    2    0    0 -0.41584526669E+01 -0.26273437579E+03 -0.40652119539E+03  0.49125665976E+03  0.83827075075E+02 0.  0.
         11    1    3    3    0    0 -0.67761141002E+01 -0.24417401844E+03 -0.40432706965E+03  0.47238463804E+03  0.00000000000E+00 0. -1.
        -11    1    3    3    0    0  0.26176614333E+01 -0.18560357349E+02 -0.21941257364E+01  0.18872021726E+02  0.00000000000E+00 0.  1.
         22    1    1    2    0    0  0.41584526669E+01  0.26273437579E+03  0.24579377692E+03  0.35980720632E+03  0.00000000000E+00 0. -1.
<mgrwt>
<rscale>  0 0.83574901E+03</rscale>
<asrwt>0</asrwt>
<pdfrwt beam="1">  1        2 0.77830098E-01 0.83574901E+03</pdfrwt>
<pdfrwt beam="2">  1       -2 0.53102804E-01 0.83574901E+03</pdfrwt>
<totfact> 0.20435941E+02</totfact>
</mgrwt>
</event>
<event>
 6    1  0.2325157E-005  0.5978561E+03  0.7818608E-02  0.9909864E-01
          2   -1    0    0  501    0  0.00000000000E+00  0.00000000000E+00  0.24018017996E+03  0.24018017996E+03  0.00000000000E+00 0. -1.
         -2   -1    0    0    0  501 -0.00000000000E+00 -0.00000000000E+00 -0.37204563819E+03  0.37204563819E+03  0.00000000000E+00 0.  1.
         23    2    1    2    0    0  0.13268884893E+03 -0.21018105599E+03 -0.22445901036E+03  0.34697881473E+03  0.90719587809E+02 0.  0.
         13    1    3    3    0    0  0.18181217375E+02 -0.44956637048E+02 -0.98394141456E+02  0.10969531874E+03  0.00000000000E+00 0.  1.
        -13    1    3    3    0    0  0.11450763155E+03 -0.16522441895E+03 -0.12606486890E+03  0.23728349599E+03  0.00000000000E+00 0. -1.
         22    1    1    2    0    0 -0.13268884893E+03  0.21018105599E+03  0.92593552132E+02  0.26524700342E+03  0.00000000000E+00 0. -1.
<mgrwt>
<rscale>  0 0.59785613E+03</rscale>
<asrwt>0</asrwt>
<pdfrwt beam="1">  1        2 0.36950797E-01 0.59785613E+03</pdfrwt>
<pdfrwt beam="2">  1       -2 0.57237791E-01 0.59785613E+03</pdfrwt>
<totfact> 0.40641389E+02</totfact>
</mgrwt>
</event>
<event>
 6    1  0.2325157E-005  0.2686496E+04  0.7818608E-02  0.8339400E-01
          4   -1    0    0  501    0  0.00000000000E+00  0.00000000000E+00  0.60145772768E+03  0.60145772768E+03  0.00000000000E+00 0.  1.
         -4   -1    0    0    0  501 -0.00000000000E+00 -0.00000000000E+00 -0.29999024895E+04  0.29999024895E+04  0.00000000000E+00 0. -1.
         23    2    1    2    0    0  0.12522823432E+04 -0.23140834818E+03 -0.63462242234E+03  0.14258533484E+04  0.92473030956E+02 0.  0.
         13    1    3    3    0    0  0.37243857454E+03 -0.36465914238E+02 -0.21729091396E+03  0.43273039643E+03  0.00000000000E+00 0. -1.
        -13    1    3    3    0    0  0.87984376868E+03 -0.19494243394E+03 -0.41733150838E+03  0.99312295197E+03  0.00000000000E+00 0.  1.
         22    1    1    2    0    0 -0.12522823432E+04  0.23140834818E+03 -0.17638223394E+04  0.21755068687E+04  0.00000000000E+00 0. -1.
<mgrwt>
<rscale>  0 0.26864955E+04</rscale>
<asrwt>0</asrwt>
<pdfrwt beam="1">  1        4 0.92531957E-01 0.26864955E+04</pdfrwt>
<pdfrwt beam="2">  1       -4 0.46152347E+00 0.26864955E+04</pdfrwt>
<totfact> 0.41999570E-03</totfact>
</mgrwt>
</event>
<event>
 6    1  0.2325157E-005  0.3473893E+03  0.7818608E-02  0.1063692E+00
          2   -1    0    0  501    0  0.00000000000E+00  0.00000000000E+00  0.12637522946E+04  0.12637522946E+04  0.00000000000E+00 0.  1.
         -2   -1    0    0    0  501 -0.00000000000E+00 -0.00000000000E+00 -0.23873210144E+02  0.23873210144E+02  0.00000000000E+00 0. -1.
         23    2    1    2    0    0  0.12270799638E+03 -0.89545766313E+02  0.87204501185E+03  0.88965866993E+03  0.89187160843E+02 0.  0.
         11    1    3    3    0    0  0.97190597341E+02 -0.80363883285E+02  0.46767465891E+03  0.48437996711E+03  0.00000000000E+00 0. -1.
        -11    1    3    3    0    0  0.25517399037E+02 -0.91818830277E+01  0.40437035293E+03  0.40527870282E+03  0.00000000000E+00 0.  1.
         22    1    1    2    0    0 -0.12270799638E+03  0.89545766313E+02  0.36783407264E+03  0.39796683485E+03  0.00000000000E+00 0. -1.
<mgrwt>
<rscale>  0 0.34738926E+03</rscale>
<asrwt>0</asrwt>
<pdfrwt beam="1">  1        2 0.19442338E+00 0.34738926E+03</pdfrwt>
<pdfrwt beam="2">  1       -2 0.36728025E-02 0.34738926E+03</pdfrwt>
<totfact> 0.57686423E+03</totfact>
</mgrwt>
</event>
<event>
 6    1  0.2325157E-005  0.2448006E+04  0.7818608E-02  0.8421746E-01
         -2   -1    0    0    0  501 -0.00000000000E+00  0.00000000000E+00  0.65664102920E+03  0.65664102920E+03  0.00000000000E+00 0. -1.
          2   -1    0    0  501    0  0.00000000000E+00 -0.00000000000E+00 -0.22815871782E+04  0.22815871782E+04  0.00000000000E+00 0.  1.
         23    2    1    2    0    0 -0.12846184366E+03  0.71734753871E+03  0.36409793961E+03  0.81988302236E+03  0.92471207136E+02 0.  0.
         11    1    3    3    0    0 -0.32481846678E+02  0.25480232355E+03  0.17619026745E+03  0.31148403618E+03  0.00000000000E+00 0. -1.
        -11    1    3    3    0    0 -0.95979996986E+02  0.46254521516E+03  0.18790767215E+03  0.50839898618E+03  0.00000000000E+00 0.  1.
         22    1    1    2    0    0  0.12846184366E+03 -0.71734753871E+03 -0.19890440886E+04  0.21183451850E+04  0.00000000000E+00 0.  1.
<mgrwt>
<rscale>  0 0.24480063E+04</rscale>
<asrwt>0</asrwt>
<pdfrwt beam="1">  1        2 0.35101342E+00 0.24480063E+04</pdfrwt>
<pdfrwt beam="2">  1       -2 0.10102170E+00 0.24480063E+04</pdfrwt>
<totfact> 0.33532601E+00</totfact>
</mgrwt>
</event>
<event>
 6    1  0.2325157E-005  0.2631785E+04  0.7818608E-02  0.8357484E-01
          2   -1    0    0  501    0  0.00000000000E+00  0.00000000000E+00  0.26303979910E+04  0.26303979910E+04  0.00000000000E+00 0.  1.
         -2   -1    0    0    0  501 -0.00000000000E+00 -0.00000000000E+00 -0.65829338795E+03  0.65829338795E+03  0.00000000000E+00 0. -1.
         23    2    1    2    0    0  0.70927339985E+02  0.12967830991E+04  0.73479596152E+03  0.14949216702E+04  0.90490890649E+02 0.  0.
         11    1    3    3    0    0  0.88712130865E+02  0.10515648584E+04  0.61500202457E+03  0.12214278463E+04  0.00000000000E+00 0. -1.
        -11    1    3    3    0    0 -0.17784790879E+02  0.24521824072E+03  0.11979393695E+03  0.27349382388E+03  0.00000000000E+00 0.  1.
         22    1    1    2    0    0 -0.70927339985E+02 -0.12967830991E+04  0.12373086415E+04  0.17937697087E+04  0.00000000000E+00 0.  1.
<mgrwt>
<rscale>  0 0.26317854E+04</rscale>
<asrwt>0</asrwt>
<pdfrwt beam="1">  1        2 0.40467661E+00 0.26317854E+04</pdfrwt>
<pdfrwt beam="2">  1       -2 0.10127591E+00 0.26317854E+04</pdfrwt>
<totfact> 0.20643867E+00</totfact>
</mgrwt>
</event>
<event>
 6    1  0.2325157E-005  0.5420659E+04  0.7818608E-02  0.7766702E-01
          2   -1    0    0  501    0  0.00000000000E+00  0.00000000000E+00  0.32343638243E+04  0.32343638243E+04  0.00000000000E+00 0.  1.
         -2   -1    0    0    0  501 -0.00000000000E+00 -0.00000000000E+00 -0.22711999555E+04  0.22711999555E+04  0.00000000000E+00 0. -1.
         23    2    1    2    0    0  0.12356381204E+04 -0.20131168784E+04 -0.86655657903E+03  0.25177019945E+04  0.91988574708E+02 0.  0.
         13    1    3    3    0    0  0.11206693769E+04 -0.18697740499E+04 -0.78983361221E+03  0.23185754214E+04  0.00000000000E+00 0. -1.
        -13    1    3    3    0    0  0.11496874349E+03 -0.14334282851E+03 -0.76722966822E+02  0.19912657307E+03  0.00000000000E+00 0.  1.
         22    1    1    2    0    0 -0.12356381204E+04  0.20131168784E+04  0.18297204478E+04  0.29878617852E+04  0.00000000000E+00 0.  1.
<mgrwt>
<rscale>  0 0.54206594E+04</rscale>
<asrwt>0</asrwt>
<pdfrwt beam="1">  1        2 0.49759443E+00 0.54206594E+04</pdfrwt>
<pdfrwt beam="2">  1       -2 0.34941538E+00 0.54206594E+04</pdfrwt>
<totfact> 0.13591514E-02</totfact>
</mgrwt>
</event>
<event>
 6    1  0.2325157E-005  0.2905081E+04  0.7818608E-02  0.8271367E-01
         -2   -1    0    0    0  501 -0.00000000000E+00  0.00000000000E+00  0.17816997886E+04  0.17816997886E+04  0.00000000000E+00 0. -1.
          2   -1    0    0  501    0  0.00000000000E+00 -0.00000000000E+00 -0.11841919923E+04  0.11841919923E+04  0.00000000000E+00 0.  1.
         23    2    1    2    0    0  0.10995956482E+04  0.46005132233E+03  0.11440961335E+04  0.16545883763E+04  0.89156737051E+02 0.  0.
         13    1    3    3    0    0  0.25744326024E+03  0.11811432143E+03  0.32425597376E+03  0.43054612028E+03  0.00000000000E+00 0.  1.
        -13    1    3    3    0    0  0.84215238796E+03  0.34193700089E+03  0.81984015970E+03  0.12240422561E+04  0.00000000000E+00 0. -1.
         22    1    1    2    0    0 -0.10995956482E+04 -0.46005132233E+03 -0.54658833717E+03  0.13113034047E+04  0.00000000000E+00 0.  1.
<mgrwt>
<rscale>  0 0.29050815E+04</rscale>
<asrwt>0</asrwt>
<pdfrwt beam="1">  1        2 0.18218338E+00 0.29050815E+04</pdfrwt>
<pdfrwt beam="2">  1       -2 0.27410766E+00 0.29050815E+04</pdfrwt>
<totfact> 0.76400522E-01</totfact>
</mgrwt>
</event>
<event>
 6    1  0.2325157E-005  0.1494764E+04  0.7818608E-02  0.8887942E-01
         -2   -1    0    0    0  501 -0.00000000000E+00  0.00000000000E+00  0.20485783051E+03  0.20485783051E+03  0.00000000000E+00 0. -1.
          2   -1    0    0  501    0  0.00000000000E+00 -0.00000000000E+00 -0.27266707492E+04  0.27266707492E+04  0.00000000000E+00 0.  1.
         23    2    1    2    0    0  0.61768796364E+03  0.29242794535E+03 -0.68517427948E+03  0.97186176756E+03  0.89437007625E+02 0.  0.
         11    1    3    3    0    0  0.51426678255E+03  0.25868585170E+03 -0.53096678445E+03  0.78314393293E+03  0.00000000000E+00 0. -1.
        -11    1    3    3    0    0  0.10342118109E+03  0.33742093658E+02 -0.15420749503E+03  0.18871783462E+03  0.00000000000E+00 0.  1.
         22    1    1    2    0    0 -0.61768796364E+03 -0.29242794535E+03 -0.18366386392E+04  0.19596668122E+04  0.00000000000E+00 0.  1.
<mgrwt>
<rscale>  0 0.14947640E+04</rscale>
<asrwt>0</asrwt>
<pdfrwt beam="1">  1        2 0.41948778E+00 0.14947640E+04</pdfrwt>
<pdfrwt beam="2">  1       -2 0.31516591E-01 0.14947640E+04</pdfrwt>
<totfact> 0.23238621E+01</totfact>
</mgrwt>
</event>
<event>
 6    1  0.2325157E-005  0.1676317E+04  0.7818608E-02  0.8774988E-01
         -2   -1    0    0    0  501 -0.00000000000E+00  0.00000000000E+00  0.11293242080E+04  0.11293242080E+04  0.00000000000E+00 0.  1.
          2   -1    0    0  501    0  0.00000000000E+00 -0.00000000000E+00 -0.62206205711E+03  0.62206205711E+03  0.00000000000E+00 0. -1.
         23    2    1    2    0    0  0.36986844719E+03  0.12627298453E+03 -0.51722719353E+03  0.65488001720E+03  0.92716408215E+02 0.  0.
         13    1    3    3    0    0  0.16974927315E+03  0.14446336028E+02 -0.25373434760E+03  0.30562171309E+03  0.00000000000E+00 0.  1.
        -13    1    3    3    0    0  0.20011917404E+03  0.11182664851E+03 -0.26349284593E+03  0.34925830411E+03  0.00000000000E+00 0. -1.
         22    1    1    2    0    0 -0.36986844719E+03 -0.12627298453E+03  0.10244893444E+04  0.10965062479E+04  0.00000000000E+00 0.  1.
<mgrwt>
<rscale>  0 0.16763171E+04</rscale>
<asrwt>0</asrwt>
<pdfrwt beam="1">  1        2 0.95701855E-01 0.16763171E+04</pdfrwt>
<pdfrwt beam="2">  1       -2 0.17374219E+00 0.16763171E+04</pdfrwt>
<totfact> 0.90651785E+00</totfact>
</mgrwt>
</event>
<event>
 6    1  0.2325157E-005  0.1554686E+04  0.7818608E-02  0.8848880E-01
          2   -1    0    0  501    0  0.00000000000E+00  0.00000000000E+00  0.23393816864E+04  0.23393816864E+04  0.00000000000E+00 0.  1.
         -2   -1    0    0    0  501 -0.00000000000E+00 -0.00000000000E+00 -0.25829998357E+03  0.25829998357E+03  0.00000000000E+00 0. -1.
         23    2    1    2    0    0  0.72321905605E+02 -0.75583056662E+03  0.78370666291E+03  0.10944543759E+04  0.84403459414E+02 0.  0.
         11    1    3    3    0    0  0.27472998014E+02 -0.62500963760E+03  0.64667838367E+03  0.89976927299E+03  0.00000000000E+00 0. -1.
        -11    1    3    3    0    0  0.44848907591E+02 -0.13082092902E+03  0.13702827925E+03  0.19468510291E+03  0.00000000000E+00 0.  1.
         22    1    1    2    0    0 -0.72321905605E+02  0.75583056662E+03  0.12973750399E+04  0.15032272941E+04  0.00000000000E+00 0.  1.
<mgrwt>
<rscale>  0 0.15546861E+04</rscale>
<asrwt>0</asrwt>
<pdfrwt beam="1">  1        2 0.35990486E+00 0.15546861E+04</pdfrwt>
<pdfrwt beam="2">  1       -2 0.39738460E-01 0.15546861E+04</pdfrwt>
<totfact> 0.24857893E+01</totfact>
</mgrwt>
</event>
<event>
 6    1  0.2325157E-005  0.1324871E+04  0.7818608E-02  0.9010072E-01
          2   -1    0    0  501    0  0.00000000000E+00  0.00000000000E+00  0.13749780808E+04  0.13749780808E+04  0.00000000000E+00 0.  1.
         -2   -1    0    0    0  501 -0.00000000000E+00 -0.00000000000E+00 -0.31914731646E+03  0.31914731646E+03  0.00000000000E+00 0. -1.
         23    2    1    2    0    0  0.54360039960E+03 -0.16152886004E+03  0.96038448729E+03  0.11190576110E+04  0.91425412907E+02 0.  0.
         11    1    3    3    0    0  0.30931181357E+03 -0.62623918761E+02  0.46138422863E+03  0.55899101929E+03  0.00000000000E+00 0. -1.
        -11    1    3    3    0    0  0.23428858603E+03 -0.98904941282E+02  0.49900025866E+03  0.56006659166E+03  0.00000000000E+00 0.  1.
         22    1    1    2    0    0 -0.54360039960E+03  0.16152886004E+03  0.95446277087E+02  0.57506778634E+03  0.00000000000E+00 0. -1.
<mgrwt>
<rscale>  0 0.13248707E+04</rscale>
<asrwt>0</asrwt>
<pdfrwt beam="1">  1        2 0.21153509E+00 0.13248707E+04</pdfrwt>
<pdfrwt beam="2">  1       -2 0.49099588E-01 0.13248707E+04</pdfrwt>
<totfact> 0.57460195E+01</totfact>
</mgrwt>
</event>
<event>
 6    1  0.2325157E-005  0.2783167E+04  0.7818608E-02  0.8308513E-01
          2   -1    0    0  501    0  0.00000000000E+00  0.00000000000E+00  0.19855811238E+04  0.19855811238E+04  0.00000000000E+00 0.  1.
         -2   -1    0    0    0  501 -0.00000000000E+00 -0.00000000000E+00 -0.97528362533E+03  0.97528362533E+03  0.00000000000E+00 0. -1.
         23    2    1    2    0    0  0.63979339926E+03 -0.74564483463E+03 -0.54053744898E+03  0.11249968761E+04  0.90085649522E+02 0.  0.
         11    1    3    3    0    0  0.43319874261E+03 -0.44353512284E+03 -0.32010875795E+03  0.69774936238E+03  0.00000000000E+00 0. -1.
        -11    1    3    3    0    0  0.20659465666E+03 -0.30210971179E+03 -0.22042869103E+03  0.42724751368E+03  0.00000000000E+00 0.  1.
         22    1    1    2    0    0 -0.63979339926E+03  0.74564483463E+03  0.15508349475E+04  0.18358678731E+04  0.00000000000E+00 0.  1.
<mgrwt>
<rscale>  0 0.27831671E+04</rscale>
<asrwt>0</asrwt>
<pdfrwt beam="1">  1        2 0.30547402E+00 0.27831671E+04</pdfrwt>
<pdfrwt beam="2">  1       -2 0.15004364E+00 0.27831671E+04</pdfrwt>
<totfact> 0.17755810E+00</totfact>
</mgrwt>
</event>
<event>
 6    1  0.2325157E-005  0.1459324E+04  0.7818608E-02  0.8911962E-01
          2   -1    0    0  501    0  0.00000000000E+00  0.00000000000E+00  0.87949200632E+03  0.87949200632E+03  0.00000000000E+00 0.  1.
         -2   -1    0    0    0  501 -0.00000000000E+00 -0.00000000000E+00 -0.60535693228E+03  0.60535693228E+03  0.00000000000E+00 0. -1.
         23    2    1    2    0    0  0.71287373927E+03  0.25252004314E+02  0.27993823755E+03  0.77150448564E+03  0.89594211013E+02 0.  0.
         13    1    3    3    0    0  0.46209322871E+03  0.90764341753E+01  0.22600260378E+03  0.51448003906E+03  0.00000000000E+00 0. -1.
        -13    1    3    3    0    0  0.25078051056E+03  0.16175570138E+02  0.53935633776E+02  0.25702444658E+03  0.00000000000E+00 0.  1.
         22    1    1    2    0    0 -0.71287373927E+03 -0.25252004314E+02 -0.58031635070E+01  0.71334445296E+03  0.00000000000E+00 0.  1.
<mgrwt>
<rscale>  0 0.14593239E+04</rscale>
<asrwt>0</asrwt>
<pdfrwt beam="1">  1        2 0.13530646E+00 0.14593239E+04</pdfrwt>
<pdfrwt beam="2">  1       -2 0.93131836E-01 0.14593239E+04</pdfrwt>
<totfact> 0.28655672E+01</totfact>
</mgrwt>
</event>
<event>
 6    1  0.2325157E-005  0.1921862E+04  0.7818608E-02  0.8644050E-01
          2   -1    0    0  501    0  0.00000000000E+00  0.00000000000E+00  0.59300438046E+03  0.59300438046E+03  0.00000000000E+00 0.  1.
         -2   -1    0    0    0  501 -0.00000000000E+00 -0.00000000000E+00 -0.15571354594E+04  0.15571354594E+04  0.00000000000E+00 0. -1.
         23    2    1    2    0    0  0.54473102520E+03 -0.52573272718E+02  0.39769484961E+03  0.68246627313E+03  0.90017674561E+02 0.  0.
         11    1    3    3    0    0  0.16475997589E+03 -0.51835107750E+02  0.15113231053E+03  0.22950752349E+03  0.00000000000E+00 0. -1.
        -11    1    3    3    0    0  0.37997104931E+03 -0.73816496755E+00  0.24656253908E+03  0.45295874964E+03  0.00000000000E+00 0.  1.
         22    1    1    2    0    0 -0.54473102520E+03  0.52573272718E+02 -0.13618259285E+04  0.14676735667E+04  0.00000000000E+00 0. -1.
<mgrwt>
<rscale>  0 0.19218618E+04</rscale>
<asrwt>0</asrwt>
<pdfrwt beam="1">  1        2 0.91231443E-01 0.19218618E+04</pdfrwt>
<pdfrwt beam="2">  1       -2 0.23955930E+00 0.19218618E+04</pdfrwt>
<totfact> 0.35046213E+00</totfact>
</mgrwt>
</event>
<event>
 6    1  0.2325157E-005  0.2181172E+04  0.7818608E-02  0.8526306E-01
          2   -1    0    0  501    0  0.00000000000E+00  0.00000000000E+00  0.15556375172E+04  0.15556375172E+04  0.00000000000E+00 0.  1.
         -2   -1    0    0    0  501 -0.00000000000E+00 -0.00000000000E+00 -0.76455946979E+03  0.76455946979E+03  0.00000000000E+00 0. -1.
         23    2    1    2    0    0 -0.10829936395E+04  0.10157794520E+03  0.34479688337E+03  0.11444588446E+04  0.87794386234E+02 0.  0.
         13    1    3    3    0    0 -0.43385310982E+03  0.71080691996E+02  0.17139376993E+03  0.47186524564E+03  0.00000000000E+00 0.  1.
        -13    1    3    3    0    0 -0.64914052964E+03  0.30497253204E+02  0.17340311344E+03  0.67259359900E+03  0.00000000000E+00 0. -1.
         22    1    1    2    0    0  0.10829936395E+04 -0.10157794520E+03  0.44628116407E+03  0.11757381424E+04  0.00000000000E+00 0.  1.
<mgrwt>
<rscale>  0 0.21811716E+04</rscale>
<asrwt>0</asrwt>
<pdfrwt beam="1">  1        2 0.23932885E+00 0.21811716E+04</pdfrwt>
<pdfrwt beam="2">  1       -2 0.11762453E+00 0.21811716E+04</pdfrwt>
<totfact> 0.60329077E+00</totfact>
</mgrwt>
</event>
<event>
 6    1  0.2325157E-005  0.1199927E+04  0.7818608E-02  0.9112920E-01
         -2   -1    0    0    0  501 -0.00000000000E+00  0.00000000000E+00  0.45652029293E+03  0.45652029293E+03  0.00000000000E+00 0. -1.
          2   -1    0    0  501    0  0.00000000000E+00 -0.00000000000E+00 -0.78847845058E+03  0.78847845058E+03  0.00000000000E+00 0.  1.
         23    2    1    2    0    0  0.11838706926E+03 -0.40960315633E+03 -0.59968044195E+03  0.74154520509E+03  0.92100026577E+02 0.  0.
         11    1    3    3    0    0  0.31575558857E+02 -0.19410781605E+03 -0.20877855568E+03  0.28681587383E+03  0.00000000000E+00 0. -1.
        -11    1    3    3    0    0  0.86811510404E+02 -0.21549534027E+03 -0.39090188627E+03  0.45472933126E+03  0.00000000000E+00 0.  1.
         22    1    1    2    0    0 -0.11838706926E+03  0.40960315633E+03  0.26772228430E+03  0.50345353843E+03  0.00000000000E+00 0. -1.
<mgrwt>
<rscale>  0 0.11999274E+04</rscale>
<asrwt>0</asrwt>
<pdfrwt beam="1">  1        2 0.12130438E+00 0.11999274E+04</pdfrwt>
<pdfrwt beam="2">  1       -2 0.70233892E-01 0.11999274E+04</pdfrwt>
<totfact> 0.63975064E+01</totfact>
</mgrwt>
</event>
<event>
 6    1  0.2325157E-005  0.1279104E+04  0.7818608E-02  0.9046302E-01
          2   -1    0    0  501    0  0.00000000000E+00  0.00000000000E+00  0.78247164152E+03  0.78247164152E+03  0.00000000000E+00 0.  1.
         -2   -1    0    0    0  501 -0.00000000000E+00 -0.00000000000E+00 -0.52273648228E+03  0.52273648228E+03  0.00000000000E+00 0. -1.
         23    2    1    2    0    0 -0.58402150753E+03  0.88046648475E+02 -0.11193421356E+03  0.60737472230E+03  0.86841531344E+02 0.  0.
         11    1    3    3    0    0 -0.18021845869E+03  0.67817844026E+02 -0.41457871457E+02  0.19696879937E+03  0.00000000000E+00 0.  1.
        -11    1    3    3    0    0 -0.40380304884E+03  0.20228804449E+02 -0.70476342106E+02  0.41040592293E+03  0.00000000000E+00 0. -1.
         22    1    1    2    0    0  0.58402150753E+03 -0.88046648475E+02  0.37166937281E+03  0.69783340150E+03  0.00000000000E+00 0.  1.
<mgrwt>
<rscale>  0 0.12791036E+04</rscale>
<asrwt>0</asrwt>
<pdfrwt beam="1">  1        2 0.12038025E+00 0.12791036E+04</pdfrwt>
<pdfrwt beam="2">  1       -2 0.80420997E-01 0.12791036E+04</pdfrwt>
<totfact> 0.47587134E+01</totfact>
</mgrwt>
</event>
<event>
 6    1  0.2325157E-005  0.3481137E+04  0.7818608E-02  0.8118275E-01
          2   -1    0    0  501    0  0.00000000000E+00  0.00000000000E+00  0.19312316825E+04  0.19312316825E+04  0.00000000000E+00 0.  1.
         -2   -1    0    0    0  501 -0.00000000000E+00 -0.00000000000E+00 -0.15687286057E+04  0.15687286057E+04  0.00000000000E+00 0. -1.
         23    2    1    2    0    0  0.13662654980E+04 -0.98266799088E+03  0.62315095745E+03  0.17969467507E+04  0.91557182887E+02 0.  0.
         11    1    3    3    0    0  0.11866121961E+04 -0.84294695360E+03  0.57043528020E+03  0.15633312123E+04  0.00000000000E+00 0.  1.
        -11    1    3    3    0    0  0.17965330189E+03 -0.13972103728E+03  0.52715677245E+02  0.23361553837E+03  0.00000000000E+00 0. -1.
         22    1    1    2    0    0 -0.13662654980E+04  0.98266799088E+03 -0.26064788065E+03  0.17030135375E+04  0.00000000000E+00 0. -1.
<mgrwt>
<rscale>  0 0.34811368E+04</rscale>
<asrwt>0</asrwt>
<pdfrwt beam="1">  1        2 0.29711257E+00 0.34811368E+04</pdfrwt>
<pdfrwt beam="2">  1       -2 0.24134286E+00 0.34811368E+04</pdfrwt>
<totfact> 0.43638404E-01</totfact>
</mgrwt>
</event>
<event>
 6    1  0.2325157E-005  0.2734761E+04  0.7818608E-02  0.8323814E-01
         -2   -1    0    0    0  501 -0.00000000000E+00  0.00000000000E+00  0.24326065205E+04  0.24326065205E+04  0.00000000000E+00 0. -1.
          2   -1    0    0  501    0  0.00000000000E+00 -0.00000000000E+00 -0.76861141131E+03  0.76861141131E+03  0.00000000000E+00 0.  1.
         23    2    1    2    0    0 -0.11449277987E+04  0.73958857593E+03  0.72926623435E+03  0.15484720362E+04  0.89919300369E+02 0.  0.
         11    1    3    3    0    0 -0.63144267169E+03  0.46052980791E+03  0.41167811778E+03  0.88333822756E+03  0.00000000000E+00 0. -1.
        -11    1    3    3    0    0 -0.51348512700E+03  0.27905876801E+03  0.31758811657E+03  0.66513380868E+03  0.00000000000E+00 0.  1.
         22    1    1    2    0    0  0.11449277987E+04 -0.73958857593E+03  0.93472887486E+03  0.16527458956E+04  0.00000000000E+00 0.  1.
<mgrwt>
<rscale>  0 0.27347608E+04</rscale>
<asrwt>0</asrwt>
<pdfrwt beam="1">  1        2 0.11824791E+00 0.27347608E+04</pdfrwt>
<pdfrwt beam="2">  1       -2 0.37424715E+00 0.27347608E+04</pdfrwt>
<totfact> 0.34641798E-01</totfact>
</mgrwt>
</event>
<event>
 6    1  0.2325157E-005  0.5457354E+04  0.7818608E-02  0.7761585E-01
         -2   -1    0    0    0  501 -0.00000000000E+00  0.00000000000E+00  0.46960367042E+04  0.46960367042E+04  0.00000000000E+00 0. -1.
          2   -1    0    0  501    0  0.00000000000E+00 -0.00000000000E+00 -0.15855235754E+04  0.15855235754E+04  0.00000000000E+00 0.  1.
         23    2    1    2    0    0  0.27060081476E+04 -0.34481124192E+03  0.15429494238E+04  0.31353513138E+04  0.91433304970E+02 0.  0.
         11    1    3    3    0    0  0.60318009229E+03 -0.10499813903E+03  0.37627989758E+03  0.71863578693E+03  0.00000000000E+00 0.  1.
        -11    1    3    3    0    0  0.21028280553E+04 -0.23981310289E+03  0.11666695263E+04  0.24167155269E+04  0.00000000000E+00 0. -1.
         22    1    1    2    0    0 -0.27060081476E+04  0.34481124192E+03  0.15675637050E+04  0.31462089658E+04  0.00000000000E+00 0. -1.
<mgrwt>
<rscale>  0 0.54573535E+04</rscale>
<asrwt>0</asrwt>
<pdfrwt beam="1">  1        2 0.24392671E+00 0.54573535E+04</pdfrwt>
<pdfrwt beam="2">  1       -2 0.72246718E+00 0.54573535E+04</pdfrwt>
<totfact> 0.15124556E-03</totfact>
</mgrwt>
</event>
<event>
 6    1  0.2325157E-005  0.2820437E+04  0.7818608E-02  0.8296951E-01
          2   -1    0    0  501    0  0.00000000000E+00  0.00000000000E+00  0.87399160275E+03  0.87399160275E+03  0.00000000000E+00 0.  1.
         -2   -1    0    0    0  501 -0.00000000000E+00 -0.00000000000E+00 -0.22754411988E+04  0.22754411988E+04  0.00000000000E+00 0. -1.
         23    2    1    2    0    0  0.86501278539E+03  0.11087436140E+04 -0.60958579671E+03  0.15355530671E+04  0.93642180729E+02 0.  0.
         13    1    3    3    0    0  0.99756480164E+02  0.15587104883E+03 -0.51896635876E+02  0.19219885539E+03  0.00000000000E+00 0. -1.
        -13    1    3    3    0    0  0.76525630523E+03  0.95287256514E+03 -0.55768916084E+03  0.13433542117E+04  0.00000000000E+00 0.  1.
         22    1    1    2    0    0 -0.86501278539E+03 -0.11087436140E+04 -0.79186379930E+03  0.16138797344E+04  0.00000000000E+00 0. -1.
<mgrwt>
<rscale>  0 0.28204372E+04</rscale>
<asrwt>0</asrwt>
<pdfrwt beam="1">  1        2 0.13446025E+00 0.28204372E+04</pdfrwt>
<pdfrwt beam="2">  1       -2 0.35006787E+00 0.28204372E+04</pdfrwt>
<totfact> 0.41240194E-01</totfact>
</mgrwt>
</event>
<event>
 6    1  0.2325157E-005  0.4064865E+04  0.7818608E-02  0.7991587E-01
          2   -1    0    0  501    0  0.00000000000E+00  0.00000000000E+00  0.16150373559E+04  0.16150373559E+04  0.00000000000E+00 0.  1.
         -2   -1    0    0    0  501 -0.00000000000E+00 -0.00000000000E+00 -0.25577010805E+04  0.25577010805E+04  0.00000000000E+00 0. -1.
         23    2    1    2    0    0  0.16755607702E+04  0.85404220330E+03  0.31678636112E+03  0.19093103952E+04  0.90667562944E+02 0.  0.
         11    1    3    3    0    0  0.95978007019E+03  0.53854187096E+03  0.19329079649E+03  0.11173927071E+04  0.00000000000E+00 0.  1.
        -11    1    3    3    0    0  0.71578069999E+03  0.31550033234E+03  0.12349556463E+03  0.79191768807E+03  0.00000000000E+00 0. -1.
         22    1    1    2    0    0 -0.16755607702E+04 -0.85404220330E+03 -0.12594500857E+04  0.22634280413E+04  0.00000000000E+00 0. -1.
<mgrwt>
<rscale>  0 0.40648655E+04</rscale>
<asrwt>0</asrwt>
<pdfrwt beam="1">  1        2 0.24846729E+00 0.40648655E+04</pdfrwt>
<pdfrwt beam="2">  1       -2 0.39349247E+00 0.40648655E+04</pdfrwt>
<totfact> 0.70231831E-02</totfact>
</mgrwt>
</event>
<event>
 6    1  0.2325157E-005  0.1600419E+04  0.7818608E-02  0.8820291E-01
          2   -1    0    0  501    0  0.00000000000E+00  0.00000000000E+00  0.73850177542E+03  0.73850177542E+03  0.00000000000E+00 0.  1.
         -2   -1    0    0    0  501 -0.00000000000E+00 -0.00000000000E+00 -0.86707317565E+03  0.86707317565E+03  0.00000000000E+00 0. -1.
         23    2    1    2    0    0  0.36803008213E+02  0.79617390784E+03 -0.95971508842E+02  0.80788446858E+03  0.90661078253E+02 0.  0.
         13    1    3    3    0    0  0.41772241835E+02  0.29577279285E+03 -0.20151796667E+01  0.29871479061E+03  0.00000000000E+00 0. -1.
        -13    1    3    3    0    0 -0.49692336220E+01  0.50040111499E+03 -0.93956329175E+02  0.50916967797E+03  0.00000000000E+00 0.  1.
         22    1    1    2    0    0 -0.36803008213E+02 -0.79617390784E+03 -0.32599891394E+02  0.79769048250E+03  0.00000000000E+00 0. -1.
<mgrwt>
<rscale>  0 0.16004188E+04</rscale>
<asrwt>0</asrwt>
<pdfrwt beam="1">  1        2 0.11361566E+00 0.16004188E+04</pdfrwt>
<pdfrwt beam="2">  1       -2 0.13339587E+00 0.16004188E+04</pdfrwt>
<totfact> 0.14917295E+01</totfact>
</mgrwt>
</event>
<event>
 6    1  0.2325157E-005  0.3250237E+04  0.7818608E-02  0.8175674E-01
         -2   -1    0    0    0  501 -0.00000000000E+00  0.00000000000E+00  0.16093515030E+04  0.16093515030E+04  0.00000000000E+00 0. -1.
          2   -1    0    0  501    0  0.00000000000E+00 -0.00000000000E+00 -0.16410400774E+04  0.16410400774E+04  0.00000000000E+00 0.  1.
         23    2    1    2    0    0 -0.14179496059E+04  0.10585113249E+03  0.76842725531E+03  0.16188368348E+04  0.91469688939E+02 0.  0.
         13    1    3    3    0    0 -0.64809141409E+03  0.92591413994E+02  0.36628628825E+03  0.75017417705E+03  0.00000000000E+00 0. -1.
        -13    1    3    3    0    0 -0.76985819180E+03  0.13259718500E+02  0.40214096706E+03  0.86866265777E+03  0.00000000000E+00 0.  1.
         22    1    1    2    0    0  0.14179496059E+04 -0.10585113249E+03 -0.80011582967E+03  0.16315547456E+04  0.00000000000E+00 0.  1.
<mgrwt>
<rscale>  0 0.32502371E+04</rscale>
<asrwt>0</asrwt>
<pdfrwt beam="1">  1        2 0.25246770E+00 0.32502371E+04</pdfrwt>
<pdfrwt beam="2">  1       -2 0.24759254E+00 0.32502371E+04</pdfrwt>
<totfact> 0.58987073E-01</totfact>
</mgrwt>
</event>
<event>
 6    1  0.2325157E-005  0.2028370E+04  0.7818608E-02  0.8593470E-01
         -2   -1    0    0    0  501 -0.00000000000E+00  0.00000000000E+00  0.19089651004E+04  0.19089651004E+04  0.00000000000E+00 0. -1.
          2   -1    0    0  501    0  0.00000000000E+00 -0.00000000000E+00 -0.53881106939E+03  0.53881106939E+03  0.00000000000E+00 0.  1.
         23    2    1    2    0    0  0.55654995031E+03  0.26352134895E+03 -0.28055929723E+03  0.68594591675E+03  0.11232512141E+03 0.  0.
         11    1    3    3    0    0  0.29340563228E+03  0.13280497660E+03 -0.85322829242E+02  0.33317264602E+03  0.00000000000E+00 0. -1.
        -11    1    3    3    0    0  0.26314431803E+03  0.13071637235E+03 -0.19523646799E+03  0.35277327073E+03  0.00000000000E+00 0.  1.
         22    1    1    2    0    0 -0.55654995031E+03 -0.26352134895E+03  0.16507133283E+04  0.17618302531E+04  0.00000000000E+00 0. -1.
<mgrwt>
<rscale>  0 0.20283703E+04</rscale>
<asrwt>0</asrwt>
<pdfrwt beam="1">  1        2 0.82894011E-01 0.20283703E+04</pdfrwt>
<pdfrwt beam="2">  1       -2 0.29368694E+00 0.20283703E+04</pdfrwt>
<totfact> 0.18178606E+00</totfact>
</mgrwt>
</event>
<event>
 6    1  0.2325157E-005  0.3796126E+04  0.7818608E-02  0.8046987E-01
         -2   -1    0    0    0  501 -0.00000000000E+00  0.00000000000E+00  0.26601781290E+04  0.26601781290E+04  0.00000000000E+00 0. -1.
          2   -1    0    0  501    0  0.00000000000E+00 -0.00000000000E+00 -0.13542861839E+04  0.13542861839E+04  0.00000000000E+00 0.  1.
         23    2    1    2    0    0  0.11155423014E+04  0.15251386763E+04  0.48422624381E+03  0.19539747757E+04  0.11427931035E+03 0.  0.
         11    1    3    3    0    0  0.69074759131E+03  0.10356134028E+04  0.32477141518E+03  0.12865083859E+04  0.00000000000E+00 0.  1.
        -11    1    3    3    0    0  0.42479471005E+03  0.48952527350E+03  0.15945482863E+03  0.66746638975E+03  0.00000000000E+00 0. -1.
         22    1    1    2    0    0 -0.11155423014E+04 -0.15251386763E+04  0.82166570128E+03  0.20604895372E+04  0.00000000000E+00 0.  1.
<mgrwt>
<rscale>  0 0.37961256E+04</rscale>
<asrwt>0</asrwt>
<pdfrwt beam="1">  1        2 0.20835172E+00 0.37961256E+04</pdfrwt>
<pdfrwt beam="2">  1       -2 0.40925817E+00 0.37961256E+04</pdfrwt>
<totfact> 0.79527347E-02</totfact>
</mgrwt>
</event>
<event>
 6    1  0.2325157E-005  0.1820281E+04  0.7818608E-02  0.8695588E-01
          2   -1    0    0  501    0  0.00000000000E+00  0.00000000000E+00  0.33073874427E+04  0.33073874427E+04  0.00000000000E+00 0.  1.
         -2   -1    0    0    0  501 -0.00000000000E+00 -0.00000000000E+00 -0.25045621690E+03  0.25045621690E+03  0.00000000000E+00 0. -1.
         23    2    1    2    0    0  0.22410939245E+03  0.63923529640E+03  0.35062070008E+03  0.76804735064E+03  0.90083702993E+02 0.  0.
         13    1    3    3    0    0  0.85783020326E+02  0.19813150164E+03  0.68655867715E+02  0.22655782196E+03  0.00000000000E+00 0.  1.
        -13    1    3    3    0    0  0.13832637212E+03  0.44110379476E+03  0.28196483237E+03  0.54148952868E+03  0.00000000000E+00 0. -1.
         22    1    1    2    0    0 -0.22410939245E+03 -0.63923529640E+03  0.27063105257E+04  0.27897963090E+04  0.00000000000E+00 0.  1.
<mgrwt>
<rscale>  0 0.18202810E+04</rscale>
<asrwt>0</asrwt>
<pdfrwt beam="1">  1        2 0.50882881E+00 0.18202810E+04</pdfrwt>
<pdfrwt beam="2">  1       -2 0.38531728E-01 0.18202810E+04</pdfrwt>
<totfact> 0.66445780E+00</totfact>
</mgrwt>
</event>
<event>
 6    1  0.2325157E-005  0.2607665E+04  0.7818608E-02  0.8365602E-01
         -2   -1    0    0    0  501 -0.00000000000E+00  0.00000000000E+00  0.13768117688E+04  0.13768117688E+04  0.00000000000E+00 0. -1.
          2   -1    0    0  501    0  0.00000000000E+00 -0.00000000000E+00 -0.12347215662E+04  0.12347215662E+04  0.00000000000E+00 0.  1.
         23    2    1    2    0    0 -0.70036286815E+03 -0.22041072400E+03  0.11482301634E+04  0.13659785770E+04  0.91520109654E+02 0.  0.
         11    1    3    3    0    0 -0.16269083712E+03 -0.14501637288E+02  0.28117813137E+03  0.32517648673E+03  0.00000000000E+00 0.  1.
        -11    1    3    3    0    0 -0.53767203104E+03 -0.20590908671E+03  0.86705203203E+03  0.10408020903E+04  0.00000000000E+00 0. -1.
         22    1    1    2    0    0  0.70036286815E+03  0.22041072400E+03 -0.10061399608E+04  0.12455547579E+04  0.00000000000E+00 0.  1.
<mgrwt>
<rscale>  0 0.26076650E+04</rscale>
<asrwt>0</asrwt>
<pdfrwt beam="1">  1        2 0.18995717E+00 0.26076650E+04</pdfrwt>
<pdfrwt beam="2">  1       -2 0.21181719E+00 0.26076650E+04</pdfrwt>
<totfact> 0.17795371E+00</totfact>
</mgrwt>
</event>
<event>
 6    1  0.2325157E-005  0.2832054E+04  0.7818608E-02  0.8293385E-01
         -2   -1    0    0    0  501 -0.00000000000E+00  0.00000000000E+00  0.67867943960E+03  0.67867943960E+03  0.00000000000E+00 0. -1.
          2   -1    0    0  501    0  0.00000000000E+00 -0.00000000000E+00 -0.29544621911E+04  0.29544621911E+04  0.00000000000E+00 0.  1.
         23    2    1    2    0    0 -0.82191475685E+03 -0.85729747599E+03 -0.15321298685E+03  0.12008987901E+04  0.90448078120E+02 0.  0.
         13    1    3    3    0    0 -0.67331574342E+03 -0.71199797156E+03 -0.16017865946E+03  0.99295136074E+03  0.00000000000E+00 0. -1.
        -13    1    3    3    0    0 -0.14859901343E+03 -0.14529950442E+03  0.69656726106E+01  0.20794742935E+03  0.00000000000E+00 0.  1.
         22    1    1    2    0    0  0.82191475685E+03  0.85729747599E+03 -0.21225697647E+04  0.24322428406E+04  0.00000000000E+00 0.  1.
<mgrwt>
<rscale>  0 0.28320542E+04</rscale>
<asrwt>0</asrwt>
<pdfrwt beam="1">  1        2 0.45453264E+00 0.28320542E+04</pdfrwt>
<pdfrwt beam="2">  1       -2 0.10441222E+00 0.28320542E+04</pdfrwt>
<totfact> 0.12015432E+00</totfact>
</mgrwt>
</event>
<event>
 6    1  0.2325157E-005  0.4712534E+04  0.7818608E-02  0.7874449E-01
          2   -1    0    0  501    0  0.00000000000E+00  0.00000000000E+00  0.33195777910E+04  0.33195777910E+04  0.00000000000E+00 0.  1.
         -2   -1    0    0    0  501 -0.00000000000E+00 -0.00000000000E+00 -0.16724997750E+04  0.16724997750E+04  0.00000000000E+00 0. -1.
         23    2    1    2    0    0 -0.12849450788E+04 -0.18758720848E+04  0.14752643765E+04  0.27118363812E+04  0.87587919683E+02 0.  0.
         13    1    3    3    0    0 -0.96453766613E+03 -0.13418579013E+04  0.10846349972E+04  0.19767014478E+04  0.00000000000E+00 0.  1.
        -13    1    3    3    0    0 -0.32040741265E+03 -0.53401418355E+03  0.39062937928E+03  0.73513493338E+03  0.00000000000E+00 0. -1.
         22    1    1    2    0    0  0.12849450788E+04  0.18758720848E+04  0.17181363952E+03  0.22802411848E+04  0.00000000000E+00 0. -1.
<mgrwt>
<rscale>  0 0.47125335E+04</rscale>
<asrwt>0</asrwt>
<pdfrwt beam="1">  1        2 0.51070427E+00 0.47125335E+04</pdfrwt>
<pdfrwt beam="2">  1       -2 0.25730766E+00 0.47125335E+04</pdfrwt>
<totfact> 0.46587974E-02</totfact>
</mgrwt>
</event>
<event>
 6    1  0.2325157E-005  0.2112982E+04  0.7818608E-02  0.8555546E-01
          2   -1    0    0  501    0  0.00000000000E+00  0.00000000000E+00  0.14542002224E+04  0.14542002224E+04  0.00000000000E+00 0.  1.
         -2   -1    0    0    0  501 -0.00000000000E+00 -0.00000000000E+00 -0.76755127305E+03  0.76755127305E+03  0.00000000000E+00 0. -1.
         23    2    1    2    0    0  0.27044318308E+03  0.61767738460E+03  0.11965069359E+04  0.13763994781E+04  0.90453353406E+02 0.  0.
         11    1    3    3    0    0  0.21693536339E+03  0.56387370092E+03  0.10751193631E+04  0.12332461828E+04  0.00000000000E+00 0. -1.
        -11    1    3    3    0    0  0.53507819699E+02  0.53803683677E+02  0.12138757275E+03  0.14315329533E+03  0.00000000000E+00 0.  1.
         22    1    1    2    0    0 -0.27044318308E+03 -0.61767738460E+03 -0.50985798652E+03  0.84535201730E+03  0.00000000000E+00 0. -1.
<mgrwt>
<rscale>  0 0.21129820E+04</rscale>
<asrwt>0</asrwt>
<pdfrwt beam="1">  1        2 0.22372311E+00 0.21129820E+04</pdfrwt>
<pdfrwt beam="2">  1       -2 0.11808481E+00 0.21129820E+04</pdfrwt>
<totfact> 0.68566278E+00</totfact>
</mgrwt>
</event>
<event>
 6    1  0.2325157E-005  0.4519228E+04  0.7818608E-02  0.7907279E-01
         -2   -1    0    0    0  501 -0.00000000000E+00  0.00000000000E+00  0.16777036960E+04  0.16777036960E+04  0.00000000000E+00 0. -1.
          2   -1    0    0  501    0  0.00000000000E+00 -0.00000000000E+00 -0.30433591808E+04  0.30433591808E+04  0.00000000000E+00 0.  1.
         23    2    1    2    0    0  0.18837873371E+04 -0.67809940638E+03 -0.17754508780E+04  0.26774372261E+04  0.89279018321E+02 0.  0.
         11    1    3    3    0    0  0.55080551468E+03 -0.22825951017E+03 -0.48943822420E+03  0.77138764204E+03  0.00000000000E+00 0. -1.
        -11    1    3    3    0    0  0.13329818224E+04 -0.44983989621E+03 -0.12860126538E+04  0.19060495840E+04  0.00000000000E+00 0.  1.
         22    1    1    2    0    0 -0.18837873371E+04  0.67809940638E+03  0.40979539319E+03  0.20436256508E+04  0.00000000000E+00 0. -1.
<mgrwt>
<rscale>  0 0.45192278E+04</rscale>
<asrwt>0</asrwt>
<pdfrwt beam="1">  1        2 0.46820910E+00 0.45192278E+04</pdfrwt>
<pdfrwt beam="2">  1       -2 0.25810826E+00 0.45192278E+04</pdfrwt>
<totfact> 0.70834581E-02</totfact>
</mgrwt>
</event>
<event>
 6    1  0.2325157E-005  0.1997314E+04  0.7818608E-02  0.8607877E-01
          2   -1    0    0  501    0  0.00000000000E+00  0.00000000000E+00  0.97659553355E+03  0.97659553355E+03  0.00000000000E+00 0.  1.
         -2   -1    0    0    0  501 -0.00000000000E+00 -0.00000000000E+00 -0.10212168407E+04  0.10212168407E+04  0.00000000000E+00 0. -1.
         23    2    1    2    0    0 -0.11143705812E+03 -0.21105022386E+03  0.94538281256E+03  0.97944673660E+03  0.92773016800E+02 0.  0.
         11    1    3    3    0    0 -0.13346837150E+02 -0.12348118764E+03  0.43297812388E+03  0.45043956034E+03  0.00000000000E+00 0. -1.
        -11    1    3    3    0    0 -0.98090220970E+02 -0.87569036219E+02  0.51240468868E+03  0.52900717626E+03  0.00000000000E+00 0.  1.
         22    1    1    2    0    0  0.11143705812E+03  0.21105022386E+03 -0.99000411970E+03  0.10183656376E+04  0.00000000000E+00 0. -1.
<mgrwt>
<rscale>  0 0.19973140E+04</rscale>
<asrwt>0</asrwt>
<pdfrwt beam="1">  1        2 0.15024547E+00 0.19973140E+04</pdfrwt>
<pdfrwt beam="2">  1       -2 0.15711028E+00 0.19973140E+04</pdfrwt>
<totfact> 0.64140336E+00</totfact>
</mgrwt>
</event>
<event>
 6    1  0.2325157E-005  0.1680080E+04  0.7818608E-02  0.8772808E-01
          2   -1    0    0  501    0  0.00000000000E+00  0.00000000000E+00  0.98247489400E+03  0.98247489400E+03  0.00000000000E+00 0.  1.
         -2   -1    0    0    0  501 -0.00000000000E+00 -0.00000000000E+00 -0.71825489923E+03  0.71825489923E+03  0.00000000000E+00 0. -1.
         23    2    1    2    0    0 -0.82615579080E+03  0.13028068709E+03  0.18020110555E+03  0.86015521483E+03  0.88815015928E+02 0.  0.
         11    1    3    3    0    0 -0.63917022205E+03  0.12151047704E+03  0.17111633768E+03  0.67274376237E+03  0.00000000000E+00 0.  1.
        -11    1    3    3    0    0 -0.18698556875E+03  0.87702100450E+01  0.90847678676E+01  0.18741145246E+03  0.00000000000E+00 0. -1.
         22    1    1    2    0    0  0.82615579080E+03 -0.13028068709E+03  0.84018889218E+02  0.84057457840E+03  0.00000000000E+00 0.  1.
<mgrwt>
<rscale>  0 0.16800802E+04</rscale>
<asrwt>0</asrwt>
<pdfrwt beam="1">  1        2 0.15114998E+00 0.16800802E+04</pdfrwt>
<pdfrwt beam="2">  1       -2 0.11050075E+00 0.16800802E+04</pdfrwt>
<totfact> 0.16013363E+01</totfact>
</mgrwt>
</event>
<event>
 6    1  0.2325157E-005  0.3225431E+04  0.7818608E-02  0.8182133E-01
          2   -1    0    0  501    0  0.00000000000E+00  0.00000000000E+00  0.26346041194E+04  0.26346041194E+04  0.00000000000E+00 0.  1.
         -2   -1    0    0    0  501 -0.00000000000E+00 -0.00000000000E+00 -0.98718889584E+03  0.98718889584E+03  0.00000000000E+00 0. -1.
         23    2    1    2    0    0 -0.64427660422E+03 -0.37853229007E+02  0.24823481352E+04  0.25665024501E+04  0.91418557545E+02 0.  0.
         11    1    3    3    0    0 -0.43878634697E+02 -0.26390185833E+02  0.20864309254E+03  0.21483416059E+03  0.00000000000E+00 0.  1.
        -11    1    3    3    0    0 -0.60039796952E+03 -0.11463043175E+02  0.22737050426E+04  0.23516682896E+04  0.00000000000E+00 0. -1.
         22    1    1    2    0    0  0.64427660422E+03  0.37853229007E+02 -0.83493291167E+03  0.10552905650E+04  0.00000000000E+00 0. -1.
<mgrwt>
<rscale>  0 0.32254314E+04</rscale>
<asrwt>0</asrwt>
<pdfrwt beam="1">  1        2 0.40532371E+00 0.32254314E+04</pdfrwt>
<pdfrwt beam="2">  1       -2 0.15187522E+00 0.32254314E+04</pdfrwt>
<totfact> 0.70708221E-01</totfact>
</mgrwt>
</event>
<event>
 6    1  0.2325157E-005  0.3157634E+04  0.7818608E-02  0.8200096E-01
          2   -1    0    0  501    0  0.00000000000E+00  0.00000000000E+00  0.26360189684E+04  0.26360189684E+04  0.00000000000E+00 0.  1.
         -2   -1    0    0    0  501 -0.00000000000E+00 -0.00000000000E+00 -0.94561656801E+03  0.94561656801E+03  0.00000000000E+00 0. -1.
         23    2    1    2    0    0  0.15686776435E+04 -0.92159050750E+02  0.68794274396E+03  0.17177234670E+04  0.89810077918E+02 0.  0.
         11    1    3    3    0    0  0.95611999967E+03 -0.58879713149E+02  0.46685774984E+03  0.10656399171E+04  0.00000000000E+00 0.  1.
        -11    1    3    3    0    0  0.61255764383E+03 -0.33279337601E+02  0.22108499412E+03  0.65208354982E+03  0.00000000000E+00 0. -1.
         22    1    1    2    0    0 -0.15686776435E+04  0.92159050750E+02  0.10024596564E+04  0.18639120694E+04  0.00000000000E+00 0.  1.
<mgrwt>
<rscale>  0 0.31576341E+04</rscale>
<asrwt>0</asrwt>
<pdfrwt beam="1">  1        2 0.40554138E+00 0.31576341E+04</pdfrwt>
<pdfrwt beam="2">  1       -2 0.14547947E+00 0.31576341E+04</pdfrwt>
<totfact> 0.79526369E-01</totfact>
</mgrwt>
</event>
<event>
 6    1  0.2325157E-005  0.1452763E+04  0.7818608E-02  0.8916487E-01
          2   -1    0    0  501    0  0.00000000000E+00  0.00000000000E+00  0.20051461034E+04  0.20051461034E+04  0.00000000000E+00 0.  1.
         -2   -1    0    0    0  501 -0.00000000000E+00 -0.00000000000E+00 -0.26313789120E+03  0.26313789120E+03  0.00000000000E+00 0. -1.
         23    2    1    2    0    0  0.16842075489E+03 -0.45670230288E+03  0.17103489647E+04  0.17804880822E+04  0.88891426033E+02 0.  0.
         13    1    3    3    0    0 -0.68317824168E+01 -0.68791351318E+02  0.23277497526E+03  0.24282321219E+03  0.00000000000E+00 0. -1.
        -13    1    3    3    0    0  0.17525253731E+03 -0.38791095156E+03  0.14775739895E+04  0.15376648700E+04  0.00000000000E+00 0.  1.
         22    1    1    2    0    0 -0.16842075489E+03  0.45670230288E+03  0.31659247399E+02  0.48779591232E+03  0.00000000000E+00 0. -1.
<mgrwt>
<rscale>  0 0.14527628E+04</rscale>
<asrwt>0</asrwt>
<pdfrwt beam="1">  1        2 0.30848401E+00 0.14527628E+04</pdfrwt>
<pdfrwt beam="2">  1       -2 0.40482754E-01 0.14527628E+04</pdfrwt>
<totfact> 0.37193517E+01</totfact>
</mgrwt>
</event>
<event>
 6    1  0.2325157E-005  0.1807304E+04  0.7818608E-02  0.8702425E-01
          2   -1    0    0  501    0  0.00000000000E+00  0.00000000000E+00  0.14518931002E+04  0.14518931002E+04  0.00000000000E+00 0.  1.
         -2   -1    0    0    0  501 -0.00000000000E+00 -0.00000000000E+00 -0.56242930589E+03  0.56242930589E+03  0.00000000000E+00 0. -1.
         23    2    1    2    0    0  0.25356471834E+03  0.16526862544E+03  0.13921186849E+04  0.14275765292E+04  0.91496060886E+02 0.  0.
         13    1    3    3    0    0  0.23195071199E+03  0.10984564479E+03  0.11189221171E+04  0.11479781804E+04  0.00000000000E+00 0.  1.
        -13    1    3    3    0    0  0.21614006352E+02  0.55422980646E+02  0.27319656777E+03  0.27959834888E+03  0.00000000000E+00 0. -1.
         22    1    1    2    0    0 -0.25356471834E+03 -0.16526862544E+03 -0.50265489058E+03  0.58674587682E+03  0.00000000000E+00 0. -1.
<mgrwt>
<rscale>  0 0.18073043E+04</rscale>
<asrwt>0</asrwt>
<pdfrwt beam="1">  1        2 0.22336817E+00 0.18073043E+04</pdfrwt>
<pdfrwt beam="2">  1       -2 0.86527586E-01 0.18073043E+04</pdfrwt>
<totfact> 0.14754401E+01</totfact>
</mgrwt>
</event>
<event>
 6    1  0.2325157E-005  0.1676854E+04  0.7818608E-02  0.8774677E-01
          2   -1    0    0  501    0  0.00000000000E+00  0.00000000000E+00  0.81757147733E+03  0.81757147733E+03  0.00000000000E+00 0.  1.
         -2   -1    0    0    0  501 -0.00000000000E+00 -0.00000000000E+00 -0.85981413499E+03  0.85981413499E+03  0.00000000000E+00 0. -1.
         23    2    1    2    0    0  0.70543418067E+03 -0.18943883129E+03 -0.42773233057E+03  0.85147596715E+03  0.92368403506E+02 0.  0.
         11    1    3    3    0    0  0.35881280334E+02 -0.32726544110E+02 -0.30215506449E+02  0.57196763874E+02  0.00000000000E+00 0. -1.
        -11    1    3    3    0    0  0.66955290033E+03 -0.15671228718E+03 -0.39751682413E+03  0.79427920328E+03  0.00000000000E+00 0.  1.
         22    1    1    2    0    0 -0.70543418067E+03  0.18943883129E+03  0.38548967291E+03  0.82590964516E+03  0.00000000000E+00 0. -1.
<mgrwt>
<rscale>  0 0.16768536E+04</rscale>
<asrwt>0</asrwt>
<pdfrwt beam="1">  1        2 0.12578023E+00 0.16768536E+04</pdfrwt>
<pdfrwt beam="2">  1       -2 0.13227910E+00 0.16768536E+04</pdfrwt>
<totfact> 0.13251245E+01</totfact>
</mgrwt>
</event>
<event>
 6    1  0.2325157E-005  0.6785559E+03  0.7818608E-02  0.9754624E-01
          2   -1    0    0  501    0  0.00000000000E+00  0.00000000000E+00  0.55644492470E+03  0.55644492470E+03  0.00000000000E+00 0.  1.
         -2   -1    0    0    0  501 -0.00000000000E+00 -0.00000000000E+00 -0.20686599273E+03  0.20686599273E+03  0.00000000000E+00 0. -1.
         23    2    1    2    0    0  0.10326088205E+02  0.22321937779E+03 -0.99421174589E+02  0.26177865086E+03  0.93327238093E+02 0.  0.
         13    1    3    3    0    0 -0.31194809350E+02  0.17771823941E+03 -0.70345351933E+02  0.19366299928E+03  0.00000000000E+00 0. -1.
        -13    1    3    3    0    0  0.41520897555E+02  0.45501138383E+02 -0.29075822657E+02  0.68115651587E+02  0.00000000000E+00 0.  1.
         22    1    1    2    0    0 -0.10326088205E+02 -0.22321937779E+03  0.44900010656E+03  0.50153226657E+03  0.00000000000E+00 0.  1.
<mgrwt>
<rscale>  0 0.67855591E+03</rscale>
<asrwt>0</asrwt>
<pdfrwt beam="1">  1        2 0.85606911E-01 0.67855591E+03</pdfrwt>
<pdfrwt beam="2">  1       -2 0.31825538E-01 0.67855591E+03</pdfrwt>
<totfact> 0.50155568E+02</totfact>
</mgrwt>
</event>
<event>
 6    1  0.2325157E-005  0.1285991E+04  0.7818608E-02  0.9040748E-01
         -2   -1    0    0    0  501 -0.00000000000E+00  0.00000000000E+00  0.55905463095E+03  0.55905463095E+03  0.00000000000E+00 0. -1.
          2   -1    0    0  501    0  0.00000000000E+00 -0.00000000000E+00 -0.73954039404E+03  0.73954039404E+03  0.00000000000E+00 0.  1.
         23    2    1    2    0    0 -0.23897418687E+03  0.56533836657E+03 -0.27157211575E+03  0.67810098446E+03  0.96712979277E+02 0.  0.
         11    1    3    3    0    0 -0.14945520372E+03  0.36143752275E+03 -0.22283500610E+03  0.45014373340E+03  0.00000000000E+00 0.  1.
        -11    1    3    3    0    0 -0.89518983150E+02  0.20390084382E+03 -0.48737109651E+02  0.22795725106E+03  0.00000000000E+00 0. -1.
         22    1    1    2    0    0  0.23897418687E+03 -0.56533836657E+03  0.91086352655E+02  0.62049404054E+03  0.00000000000E+00 0. -1.
<mgrwt>
<rscale>  0 0.12859914E+04</rscale>
<asrwt>0</asrwt>
<pdfrwt beam="1">  1        2 0.11377545E+00 0.12859914E+04</pdfrwt>
<pdfrwt beam="2">  1       -2 0.86008404E-01 0.12859914E+04</pdfrwt>
<totfact> 0.43964503E+01</totfact>
</mgrwt>
</event>
<event>
 6    1  0.2325157E-005  0.1304534E+04  0.7818608E-02  0.9025977E-01
         -2   -1    0    0    0  501 -0.00000000000E+00  0.00000000000E+00  0.18279191809E+03  0.18279191809E+03  0.00000000000E+00 0. -1.
          2   -1    0    0  501    0  0.00000000000E+00 -0.00000000000E+00 -0.23275215692E+04  0.23275215692E+04  0.00000000000E+00 0.  1.
         23    2    1    2    0    0 -0.49192646250E+03 -0.22542634202E+03 -0.38648875700E+03  0.67068860109E+03  0.87412585835E+02 0.  0.
         13    1    3    3    0    0 -0.71142632113E+02 -0.69299542599E+02 -0.70732203696E+02  0.12192926371E+03  0.00000000000E+00 0. -1.
        -13    1    3    3    0    0 -0.42078383039E+03 -0.15612679942E+03 -0.31575655331E+03  0.54875933739E+03  0.00000000000E+00 0.  1.
         22    1    1    2    0    0  0.49192646250E+03  0.22542634202E+03 -0.17582408941E+04  0.18396248862E+04  0.00000000000E+00 0. -1.
<mgrwt>
<rscale>  0 0.13045338E+04</rscale>
<asrwt>0</asrwt>
<pdfrwt beam="1">  1        2 0.35808021E+00 0.13045338E+04</pdfrwt>
<pdfrwt beam="2">  1       -2 0.28121836E-01 0.13045338E+04</pdfrwt>
<totfact> 0.49705993E+01</totfact>
</mgrwt>
</event>
<event>
 6    1  0.2325157E-005  0.2683465E+04  0.7818608E-02  0.8340390E-01
          2   -1    0    0  501    0  0.00000000000E+00  0.00000000000E+00  0.11659476856E+04  0.11659476856E+04  0.00000000000E+00 0.  1.
         -2   -1    0    0    0  501 -0.00000000000E+00 -0.00000000000E+00 -0.15440195753E+04  0.15440195753E+04  0.00000000000E+00 0. -1.
         23    2    1    2    0    0 -0.14168271361E+03 -0.78980063649E+03  0.89483022462E+03  0.12052616986E+04  0.89864312004E+02 0.  0.
         13    1    3    3    0    0 -0.62680154092E+02 -0.39256442730E+03  0.50939243860E+03  0.64615500292E+03  0.00000000000E+00 0. -1.
        -13    1    3    3    0    0 -0.79002559520E+02 -0.39723620918E+03  0.38543778602E+03  0.55910669571E+03  0.00000000000E+00 0.  1.
         22    1    1    2    0    0  0.14168271361E+03  0.78980063649E+03 -0.12729021143E+04  0.15047055623E+04  0.00000000000E+00 0. -1.
<mgrwt>
<rscale>  0 0.26834650E+04</rscale>
<asrwt>0</asrwt>
<pdfrwt beam="1">  1        2 0.17937657E+00 0.26834650E+04</pdfrwt>
<pdfrwt beam="2">  1       -2 0.23754147E+00 0.26834650E+04</pdfrwt>
<totfact> 0.13382087E+00</totfact>
</mgrwt>
</event>
<event>
 6    1  0.2325157E-005  0.2269484E+04  0.7818608E-02  0.8490051E-01
          2   -1    0    0  501    0  0.00000000000E+00  0.00000000000E+00  0.14715774455E+04  0.14715774455E+04  0.00000000000E+00 0.  1.
         -2   -1    0    0    0  501 -0.00000000000E+00 -0.00000000000E+00 -0.87500646846E+03  0.87500646846E+03  0.00000000000E+00 0. -1.
         23    2    1    2    0    0  0.80787154214E+03  0.67210629642E+03 -0.13869424609E+03  0.10640090621E+04  0.92173141532E+02 0.  0.
         13    1    3    3    0    0  0.70009771924E+03  0.58356376871E+03 -0.88227337693E+02  0.91567873829E+03  0.00000000000E+00 0.  1.
        -13    1    3    3    0    0  0.10777382290E+03  0.88542527712E+02 -0.50466908393E+02  0.14833032380E+03  0.00000000000E+00 0. -1.
         22    1    1    2    0    0 -0.80787154214E+03 -0.67210629642E+03  0.73526522308E+03  0.12825748518E+04  0.00000000000E+00 0.  1.
<mgrwt>
<rscale>  0 0.22694843E+04</rscale>
<asrwt>0</asrwt>
<pdfrwt beam="1">  1        2 0.22639653E+00 0.22694843E+04</pdfrwt>
<pdfrwt beam="2">  1       -2 0.13461638E+00 0.22694843E+04</pdfrwt>
<totfact> 0.47587052E+00</totfact>
</mgrwt>
</event>
<event>
 6    1  0.2325157E-005  0.2958778E+04  0.7818608E-02  0.8255601E-01
         -2   -1    0    0    0  501 -0.00000000000E+00  0.00000000000E+00  0.62709922627E+03  0.62709922627E+03  0.00000000000E+00 0. -1.
          2   -1    0    0  501    0  0.00000000000E+00 -0.00000000000E+00 -0.34900257478E+04  0.34900257478E+04  0.00000000000E+00 0.  1.
         23    2    1    2    0    0 -0.28410551947E+03  0.12213175019E+04 -0.34196268498E+03  0.13015271598E+04  0.68571737247E+02 0.  0.
         13    1    3    3    0    0 -0.17177369960E+03  0.60925488234E+03 -0.15393162922E+03  0.65145426701E+03  0.00000000000E+00 0.  1.
        -13    1    3    3    0    0 -0.11233181987E+03  0.61206261954E+03 -0.18803105576E+03  0.65007289278E+03  0.00000000000E+00 0. -1.
         22    1    1    2    0    0  0.28410551947E+03 -0.12213175019E+04 -0.25209638366E+04  0.28155978143E+04  0.00000000000E+00 0.  1.
<mgrwt>
<rscale>  0 0.29587784E+04</rscale>
<asrwt>0</asrwt>
<pdfrwt beam="1">  1        2 0.53692704E+00 0.29587784E+04</pdfrwt>
<pdfrwt beam="2">  1       -2 0.96476804E-01 0.29587784E+04</pdfrwt>
<totfact> 0.63743176E-01</totfact>
</mgrwt>
</event>
<event>
 6    1  0.2325157E-005  0.1130048E+04  0.7818608E-02  0.9176390E-01
          2   -1    0    0  501    0  0.00000000000E+00  0.00000000000E+00  0.25139418747E+04  0.25139418747E+04  0.00000000000E+00 0.  1.
         -2   -1    0    0    0  501 -0.00000000000E+00 -0.00000000000E+00 -0.12699263835E+03  0.12699263835E+03  0.00000000000E+00 0. -1.
         23    2    1    2    0    0 -0.25008898757E+03 -0.44880566137E+03  0.17289104364E+04  0.18060775878E+04  0.93882547193E+02 0.  0.
         11    1    3    3    0    0 -0.27196785965E+02 -0.37831907807E+02  0.27283722008E+03  0.27678704283E+03  0.00000000000E+00 0.  1.
        -11    1    3    3    0    0 -0.22289220161E+03 -0.41097375356E+03  0.14560732164E+04  0.15292905450E+04  0.00000000000E+00 0. -1.
         22    1    1    2    0    0  0.25008898757E+03  0.44880566137E+03  0.65803879988E+03  0.83485692519E+03  0.00000000000E+00 0.  1.
<mgrwt>
<rscale>  0 0.11300480E+04</rscale>
<asrwt>0</asrwt>
<pdfrwt beam="1">  1        2 0.38676025E+00 0.11300480E+04</pdfrwt>
<pdfrwt beam="2">  1       -2 0.19537331E-01 0.11300480E+04</pdfrwt>
<totfact> 0.76042294E+01</totfact>
</mgrwt>
</event>
<event>
 6    1  0.2325157E-005  0.1352239E+04  0.7818608E-02  0.8989135E-01
          2   -1    0    0  501    0  0.00000000000E+00  0.00000000000E+00  0.95534804451E+03  0.95534804451E+03  0.00000000000E+00 0.  1.
         -2   -1    0    0    0  501 -0.00000000000E+00 -0.00000000000E+00 -0.47850396037E+03  0.47850396037E+03  0.00000000000E+00 0. -1.
         23    2    1    2    0    0  0.61854602379E+02  0.25101882852E+03  0.89835728562E+03  0.93937265938E+03  0.92405283668E+02 0.  0.
         11    1    3    3    0    0  0.82031431219E+02  0.21193401663E+03  0.69132222500E+03  0.72771670442E+03  0.00000000000E+00 0. -1.
        -11    1    3    3    0    0 -0.20176828841E+02  0.39084811890E+02  0.20703506062E+03  0.21165595495E+03  0.00000000000E+00 0.  1.
         22    1    1    2    0    0 -0.61854602379E+02 -0.25101882852E+03 -0.42151320149E+03  0.49447934551E+03  0.00000000000E+00 0. -1.
<mgrwt>
<rscale>  0 0.13522394E+04</rscale>
<asrwt>0</asrwt>
<pdfrwt beam="1">  1        2 0.14697662E+00 0.13522394E+04</pdfrwt>
<pdfrwt beam="2">  1       -2 0.73615994E-01 0.13522394E+04</pdfrwt>
<totfact> 0.43779372E+01</totfact>
</mgrwt>
</event>
<event>
 6    1  0.2325157E-005  0.2023039E+04  0.7818608E-02  0.8595924E-01
          2   -1    0    0  501    0  0.00000000000E+00  0.00000000000E+00  0.10352602316E+04  0.10352602316E+04  0.00000000000E+00 0.  1.
         -2   -1    0    0    0  501 -0.00000000000E+00 -0.00000000000E+00 -0.98832351568E+03  0.98832351568E+03  0.00000000000E+00 0. -1.
         23    2    1    2    0    0  0.76319280833E+03  0.49936096181E+02  0.68247553917E+03  0.10291660925E+04  0.91940784950E+02 0.  0.
         13    1    3    3    0    0  0.35448192995E+03  0.29990829923E+02  0.37832158346E+03  0.51931118711E+03  0.00000000000E+00 0. -1.
        -13    1    3    3    0    0  0.40871087837E+03  0.19945266258E+02  0.30415395571E+03  0.50985490536E+03  0.00000000000E+00 0.  1.
         22    1    1    2    0    0 -0.76319280833E+03 -0.49936096181E+02 -0.63553882324E+03  0.99441765482E+03  0.00000000000E+00 0. -1.
<mgrwt>
<rscale>  0 0.20230393E+04</rscale>
<asrwt>0</asrwt>
<pdfrwt beam="1">  1        2 0.15927081E+00 0.20230393E+04</pdfrwt>
<pdfrwt beam="2">  1       -2 0.15204977E+00 0.20230393E+04</pdfrwt>
<totfact> 0.64088137E+00</totfact>
</mgrwt>
</event>
<event>
 6    1  0.2325157E-005  0.2900258E+04  0.7818608E-02  0.8272801E-01
         -2   -1    0    0    0  501 -0.00000000000E+00  0.00000000000E+00  0.56316342064E+03  0.56316342064E+03  0.00000000000E+00 0. -1.
          2   -1    0    0  501    0  0.00000000000E+00 -0.00000000000E+00 -0.37340377282E+04  0.37340377282E+04  0.00000000000E+00 0.  1.
         23    2    1    2    0    0  0.62856503474E+03 -0.59234010418E+03 -0.33102890578E+04  0.34223312874E+04  0.91525912879E+02 0.  0.
         13    1    3    3    0    0  0.45221744089E+03 -0.44641294162E+03 -0.25745047388E+04  0.26517654079E+04  0.00000000000E+00 0.  1.
        -13    1    3    3    0    0  0.17634759385E+03 -0.14592716256E+03 -0.73578431892E+03  0.77056587947E+03  0.00000000000E+00 0. -1.
         22    1    1    2    0    0 -0.62856503474E+03  0.59234010418E+03  0.13941475021E+03  0.87486986146E+03  0.00000000000E+00 0. -1.
<mgrwt>
<rscale>  0 0.29002575E+04</rscale>
<asrwt>0</asrwt>
<pdfrwt beam="1">  1        2 0.57446736E+00 0.29002575E+04</pdfrwt>
<pdfrwt beam="2">  1       -2 0.86640524E-01 0.29002575E+04</pdfrwt>
<totfact> 0.54800993E-01</totfact>
</mgrwt>
</event>
<event>
 6    1  0.2325157E-005  0.3446879E+04  0.7818608E-02  0.8126496E-01
          4   -1    0    0  501    0  0.00000000000E+00  0.00000000000E+00  0.13057630887E+04  0.13057630887E+04  0.00000000000E+00 0.  1.
         -4   -1    0    0    0  501 -0.00000000000E+00 -0.00000000000E+00 -0.22747184186E+04  0.22747184186E+04  0.00000000000E+00 0. -1.
         23    2    1    2    0    0  0.98536847439E+03 -0.10904288890E+04  0.44785657913E+03  0.15390745959E+04  0.90492562044E+02 0.  0.
         11    1    3    3    0    0  0.46696720587E+03 -0.46386677103E+03  0.22932043643E+03  0.69700689752E+03  0.00000000000E+00 0. -1.
        -11    1    3    3    0    0  0.51840126852E+03 -0.62656211801E+03  0.21853614270E+03  0.84206769835E+03  0.00000000000E+00 0.  1.
         22    1    1    2    0    0 -0.98536847439E+03  0.10904288890E+04 -0.14168119091E+04  0.20414069115E+04  0.00000000000E+00 0. -1.
<mgrwt>
<rscale>  0 0.34468788E+04</rscale>
<asrwt>0</asrwt>
<pdfrwt beam="1">  1        4 0.20088663E+00 0.34468788E+04</pdfrwt>
<pdfrwt beam="2">  1       -4 0.34995668E+00 0.34468788E+04</pdfrwt>
<totfact> 0.31352856E-03</totfact>
</mgrwt>
</event>
<event>
 6    1  0.2325157E-005  0.9371086E+03  0.7818608E-02  0.9380347E-01
          2   -1    0    0  501    0  0.00000000000E+00  0.00000000000E+00  0.74261024425E+03  0.74261024425E+03  0.00000000000E+00 0.  1.
         -2   -1    0    0    0  501 -0.00000000000E+00 -0.00000000000E+00 -0.29563708771E+03  0.29563708771E+03  0.00000000000E+00 0. -1.
         23    2    1    2    0    0  0.32018385027E+03 -0.33361661159E+03  0.19834749279E+03  0.51324022518E+03  0.10127220421E+03 0.  0.
         13    1    3    3    0    0  0.13915799900E+03 -0.93802995106E+02  0.10765721525E+03  0.19938411815E+03  0.00000000000E+00 0.  1.
        -13    1    3    3    0    0  0.18102585127E+03 -0.23981361648E+03  0.90690277543E+02  0.31385610702E+03  0.00000000000E+00 0. -1.
         22    1    1    2    0    0 -0.32018385027E+03  0.33361661159E+03  0.24862566375E+03  0.52500710678E+03  0.00000000000E+00 0.  1.
<mgrwt>
<rscale>  0 0.93710860E+03</rscale>
<asrwt>0</asrwt>
<pdfrwt beam="1">  1        2 0.11424773E+00 0.93710860E+03</pdfrwt>
<pdfrwt beam="2">  1       -2 0.45482629E-01 0.93710860E+03</pdfrwt>
<totfact> 0.17433528E+02</totfact>
</mgrwt>
</event>
<event>
 6    1  0.2325157E-005  0.4456023E+03  0.7818608E-02  0.1029042E+00
          2   -1    0    0  501    0  0.00000000000E+00  0.00000000000E+00  0.19015508348E+02  0.19015508348E+02  0.00000000000E+00 0.  1.
         -2   -1    0    0    0  501 -0.00000000000E+00 -0.00000000000E+00 -0.26105193860E+04  0.26105193860E+04  0.00000000000E+00 0. -1.
         23    2    1    2    0    0  0.21278715410E+03  0.19361585617E+02 -0.13798730640E+04  0.13992087293E+04  0.89900785861E+02 0.  0.
         11    1    3    3    0    0  0.90957889352E+02  0.52722427399E+02 -0.58810586643E+03  0.59742907706E+03  0.00000000000E+00 0.  1.
        -11    1    3    3    0    0  0.12182926475E+03 -0.33360841783E+02 -0.79176719761E+03  0.80177965223E+03  0.00000000000E+00 0. -1.
         22    1    1    2    0    0 -0.21278715410E+03 -0.19361585617E+02 -0.12116308137E+04  0.12303261651E+04  0.00000000000E+00 0.  1.
<mgrwt>
<rscale>  0 0.44560230E+03</rscale>
<asrwt>0</asrwt>
<pdfrwt beam="1">  1        2 0.29254628E-02 0.44560230E+03</pdfrwt>
<pdfrwt beam="2">  1       -2 0.40161837E+00 0.44560230E+03</pdfrwt>
<totfact> 0.27716018E+01</totfact>
</mgrwt>
</event>
<event>
 6    1  0.2325157E-005  0.1793081E+04  0.7818608E-02  0.8709988E-01
          2   -1    0    0  501    0  0.00000000000E+00  0.00000000000E+00  0.25905427387E+04  0.25905427387E+04  0.00000000000E+00 0.  1.
         -2   -1    0    0    0  501 -0.00000000000E+00 -0.00000000000E+00 -0.31027668201E+03  0.31027668201E+03  0.00000000000E+00 0. -1.
         23    2    1    2    0    0  0.70635561219E+03  0.18415013823E+03  0.19785981369E+04  0.21109757285E+04  0.92295258008E+02 0.  0.
         13    1    3    3    0    0  0.49673542725E+03  0.15741955970E+03  0.14955065656E+04  0.15836877502E+04  0.00000000000E+00 0. -1.
        -13    1    3    3    0    0  0.20962018494E+03  0.26730578527E+02  0.48309157134E+03  0.52728797830E+03  0.00000000000E+00 0.  1.
         22    1    1    2    0    0 -0.70635561219E+03 -0.18415013823E+03  0.30166791976E+03  0.78984369219E+03  0.00000000000E+00 0. -1.
<mgrwt>
<rscale>  0 0.17930812E+04</rscale>
<asrwt>0</asrwt>
<pdfrwt beam="1">  1        2 0.39854502E+00 0.17930812E+04</pdfrwt>
<pdfrwt beam="2">  1       -2 0.47734876E-01 0.17930812E+04</pdfrwt>
<totfact> 0.12127118E+01</totfact>
</mgrwt>
</event>
<event>
 6    1  0.2325157E-005  0.1881709E+04  0.7818608E-02  0.8664015E-01
          2   -1    0    0  501    0  0.00000000000E+00  0.00000000000E+00  0.31856433375E+04  0.31856433375E+04  0.00000000000E+00 0.  1.
         -2   -1    0    0    0  501 -0.00000000000E+00 -0.00000000000E+00 -0.27787392502E+03  0.27787392502E+03  0.00000000000E+00 0. -1.
         23    2    1    2    0    0 -0.42106252868E+03 -0.45251561580E+03  0.27576067159E+04  0.28274253894E+04  0.88743998753E+02 0.  0.
         13    1    3    3    0    0 -0.93612148630E+02 -0.15679009483E+03  0.86562514152E+03  0.88467692059E+03  0.00000000000E+00 0.  1.
        -13    1    3    3    0    0 -0.32745038005E+03 -0.29572552097E+03  0.18919815744E+04  0.19427484688E+04  0.00000000000E+00 0. -1.
         22    1    1    2    0    0  0.42106252868E+03  0.45251561580E+03  0.15016269654E+03  0.63609187311E+03  0.00000000000E+00 0. -1.
<mgrwt>
<rscale>  0 0.18817090E+04</rscale>
<asrwt>0</asrwt>
<pdfrwt beam="1">  1        2 0.49009895E+00 0.18817090E+04</pdfrwt>
<pdfrwt beam="2">  1       -2 0.42749837E-01 0.18817090E+04</pdfrwt>
<totfact> 0.64755246E+00</totfact>
</mgrwt>
</event>
<event>
 6    1  0.2325157E-005  0.4272941E+04  0.7818608E-02  0.7951641E-01
          2   -1    0    0  501    0  0.00000000000E+00  0.00000000000E+00  0.32216642305E+04  0.32216642305E+04  0.00000000000E+00 0.  1.
         -2   -1    0    0    0  501 -0.00000000000E+00 -0.00000000000E+00 -0.14168161771E+04  0.14168161771E+04  0.00000000000E+00 0. -1.
         23    2    1    2    0    0  0.14539281320E+04  0.10042096362E+04  0.22046453498E+04  0.28268011079E+04  0.89439247585E+02 0.  0.
         11    1    3    3    0    0  0.11966841617E+04  0.84441940386E+03  0.17769295200E+04  0.23027322101E+04  0.00000000000E+00 0.  1.
        -11    1    3    3    0    0  0.25724397036E+03  0.15979023234E+03  0.42771582972E+03  0.52406889779E+03  0.00000000000E+00 0. -1.
         22    1    1    2    0    0 -0.14539281320E+04 -0.10042096362E+04 -0.39979729641E+03  0.18116792996E+04  0.00000000000E+00 0. -1.
<mgrwt>
<rscale>  0 0.42729409E+04</rscale>
<asrwt>0</asrwt>
<pdfrwt beam="1">  1        2 0.49564065E+00 0.42729409E+04</pdfrwt>
<pdfrwt beam="2">  1       -2 0.21797172E+00 0.42729409E+04</pdfrwt>
<totfact> 0.98508316E-02</totfact>
</mgrwt>
</event>
<event>
 6    1  0.2325157E-005  0.5881118E+03  0.7818608E-02  0.9930382E-01
          2   -1    0    0  501    0  0.00000000000E+00  0.00000000000E+00  0.69796924702E+03  0.69796924702E+03  0.00000000000E+00 0.  1.
         -2   -1    0    0    0  501 -0.00000000000E+00 -0.00000000000E+00 -0.12388635356E+03  0.12388635356E+03  0.00000000000E+00 0. -1.
         23    2    1    2    0    0 -0.18932228231E+03  0.62014117920E+02  0.58244214517E+03  0.62246012799E+03  0.92353024175E+02 0.  0.
         13    1    3    3    0    0 -0.98795832505E+02  0.56439175385E+02  0.20691195661E+03  0.23613249422E+03  0.00000000000E+00 0. -1.
        -13    1    3    3    0    0 -0.90526449800E+02  0.55749425350E+01  0.37553018856E+03  0.38632763377E+03  0.00000000000E+00 0.  1.
         22    1    1    2    0    0  0.18932228231E+03 -0.62014117920E+02 -0.83592517077E+01  0.19939547259E+03  0.00000000000E+00 0. -1.
<mgrwt>
<rscale>  0 0.58811177E+03</rscale>
<asrwt>0</asrwt>
<pdfrwt beam="1">  1        2 0.10737988E+00 0.58811177E+03</pdfrwt>
<pdfrwt beam="2">  1       -2 0.19059439E-01 0.58811177E+03</pdfrwt>
<totfact> 0.95906108E+02</totfact>
</mgrwt>
</event>
<event>
 6    1  0.2325157E-005  0.1847637E+04  0.7818608E-02  0.8681369E-01
         -1   -1    0    0    0  501 -0.00000000000E+00  0.00000000000E+00  0.13777290058E+04  0.13777290058E+04  0.00000000000E+00 0. -1.
          1   -1    0    0  501    0  0.00000000000E+00 -0.00000000000E+00 -0.61945469287E+03  0.61945469287E+03  0.00000000000E+00 0.  1.
         23    2    1    2    0    0  0.30933734976E+03  0.22434650815E+03  0.12865230893E+04  0.13452115203E+04  0.91822782323E+02 0.  0.
         13    1    3    3    0    0  0.27748227283E+03  0.20485874126E+03  0.12301740322E+04  0.12776117036E+04  0.00000000000E+00 0. -1.
        -13    1    3    3    0    0  0.31855076926E+02  0.19487766886E+02  0.56349057079E+02  0.67599816700E+02  0.00000000000E+00 0.  1.
         22    1    1    2    0    0 -0.30933734976E+03 -0.22434650815E+03 -0.52824877635E+03  0.65197217839E+03  0.00000000000E+00 0.  1.
<mgrwt>
<rscale>  0 0.18476371E+04</rscale>
<asrwt>0</asrwt>
<pdfrwt beam="1">  1        1 0.95300722E-01 0.18476371E+04</pdfrwt>
<pdfrwt beam="2">  1       -1 0.21195831E+00 0.18476371E+04</pdfrwt>
<totfact> 0.38303253E+00</totfact>
</mgrwt>
</event>
<event>
 6    1  0.2325157E-005  0.1141146E+04  0.7818608E-02  0.9165990E-01
          2   -1    0    0  501    0  0.00000000000E+00  0.00000000000E+00  0.50439729208E+03  0.50439729208E+03  0.00000000000E+00 0.  1.
         -2   -1    0    0    0  501 -0.00000000000E+00 -0.00000000000E+00 -0.64543120198E+03  0.64543120198E+03  0.00000000000E+00 0. -1.
         23    2    1    2    0    0  0.12229395729E+03 -0.53291158240E+03  0.80689948900E+02  0.55981829396E+03  0.89079109514E+02 0.  0.
         11    1    3    3    0    0  0.92398746072E+01 -0.35245504002E+02 -0.16999349450E+02  0.40206948614E+02  0.00000000000E+00 0. -1.
        -11    1    3    3    0    0  0.11305408268E+03 -0.49766607840E+03  0.97689298349E+02  0.51961134535E+03  0.00000000000E+00 0.  1.
         22    1    1    2    0    0 -0.12229395729E+03  0.53291158240E+03 -0.22172385880E+03  0.59001020009E+03  0.00000000000E+00 0.  1.
<mgrwt>
<rscale>  0 0.11411464E+04</rscale>
<asrwt>0</asrwt>
<pdfrwt beam="1">  1        2 0.77599583E-01 0.11411464E+04</pdfrwt>
<pdfrwt beam="2">  1       -2 0.99297108E-01 0.11411464E+04</pdfrwt>
<totfact> 0.50718838E+01</totfact>
</mgrwt>
</event>
<event>
 6    1  0.2325157E-005  0.2170305E+04  0.7818608E-02  0.8530890E-01
          2   -1    0    0  501    0  0.00000000000E+00  0.00000000000E+00  0.30933384536E+04  0.30933384536E+04  0.00000000000E+00 0.  1.
         -2   -1    0    0    0  501 -0.00000000000E+00 -0.00000000000E+00 -0.38067482192E+03  0.38067482192E+03  0.00000000000E+00 0. -1.
         23    2    1    2    0    0  0.45006704594E+03 -0.48067686725E+03 -0.17708278713E+02  0.66535855027E+03  0.93690024724E+02 0.  0.
         11    1    3    3    0    0  0.38631948160E+03 -0.37005266027E+03 -0.36975063472E+02  0.53623583297E+03  0.00000000000E+00 0. -1.
        -11    1    3    3    0    0  0.63747564334E+02 -0.11062420698E+03  0.19266784758E+02  0.12912271730E+03  0.00000000000E+00 0.  1.
         22    1    1    2    0    0 -0.45006704594E+03  0.48067686725E+03  0.27303719104E+04  0.28086547253E+04  0.00000000000E+00 0.  1.
<mgrwt>
<rscale>  0 0.21703051E+04</rscale>
<asrwt>0</asrwt>
<pdfrwt beam="1">  1        2 0.47589821E+00 0.21703051E+04</pdfrwt>
<pdfrwt beam="2">  1       -2 0.58565359E-01 0.21703051E+04</pdfrwt>
<totfact> 0.38020941E+00</totfact>
</mgrwt>
</event>
<event>
 6    1  0.2325157E-005  0.1789839E+04  0.7818608E-02  0.8711722E-01
          2   -1    0    0  501    0  0.00000000000E+00  0.00000000000E+00  0.14876525631E+04  0.14876525631E+04  0.00000000000E+00 0.  1.
         -2   -1    0    0    0  501 -0.00000000000E+00 -0.00000000000E+00 -0.53835191726E+03  0.53835191726E+03  0.00000000000E+00 0. -1.
         23    2    1    2    0    0  0.49108888087E+03  0.69379454793E+03  0.16755187492E+03  0.87116669761E+03  0.91316047783E+02 0.  0.
         13    1    3    3    0    0  0.89963440191E+02  0.15407050249E+03  0.70059311791E+02  0.19167537003E+03  0.00000000000E+00 0. -1.
        -13    1    3    3    0    0  0.40112544068E+03  0.53972404544E+03  0.97492563129E+02  0.67949132758E+03  0.00000000000E+00 0.  1.
         22    1    1    2    0    0 -0.49108888087E+03 -0.69379454793E+03  0.78174877092E+03  0.11548377828E+04  0.00000000000E+00 0. -1.
<mgrwt>
<rscale>  0 0.17898387E+04</rscale>
<asrwt>0</asrwt>
<pdfrwt beam="1">  1        2 0.22886962E+00 0.17898387E+04</pdfrwt>
<pdfrwt beam="2">  1       -2 0.82823373E-01 0.17898387E+04</pdfrwt>
<totfact> 0.15577543E+01</totfact>
</mgrwt>
</event>
<event>
 6    1  0.2325157E-005  0.1088390E+04  0.7818608E-02  0.9216582E-01
          1   -1    0    0  501    0  0.00000000000E+00  0.00000000000E+00  0.79129244958E+03  0.79129244958E+03  0.00000000000E+00 0.  1.
         -1   -1    0    0    0  501 -0.00000000000E+00 -0.00000000000E+00 -0.37425910746E+03  0.37425910746E+03  0.00000000000E+00 0. -1.
         23    2    1    2    0    0  0.18975665348E+03 -0.43122729116E+03 -0.71699277843E+02  0.48671126803E+03  0.98906560961E+02 0.  0.
         13    1    3    3    0    0  0.18354735718E+03 -0.32668172002E+03 -0.74023998511E+02  0.38195566612E+03  0.00000000000E+00 0.  1.
        -13    1    3    3    0    0  0.62092962968E+01 -0.10454557114E+03  0.23247206678E+01  0.10475560191E+03  0.00000000000E+00 0. -1.
         22    1    1    2    0    0 -0.18975665348E+03  0.43122729116E+03  0.48873261996E+03  0.67884028902E+03  0.00000000000E+00 0.  1.
<mgrwt>
<rscale>  0 0.10883904E+04</rscale>
<asrwt>0</asrwt>
<pdfrwt beam="1">  1        1 0.12173730E+00 0.10883904E+04</pdfrwt>
<pdfrwt beam="2">  1       -1 0.57578324E-01 0.10883904E+04</pdfrwt>
<totfact> 0.68552725E+01</totfact>
</mgrwt>
</event>
<event>
 6    1  0.2325157E-005  0.1110983E+04  0.7818608E-02  0.9194552E-01
          2   -1    0    0  501    0  0.00000000000E+00  0.00000000000E+00  0.64228800241E+03  0.64228800241E+03  0.00000000000E+00 0.  1.
         -2   -1    0    0    0  501 -0.00000000000E+00 -0.00000000000E+00 -0.48042477301E+03  0.48042477301E+03  0.00000000000E+00 0. -1.
         23    2    1    2    0    0 -0.20575430270E+03  0.12477498270E+02 -0.43571305587E+03  0.49058309114E+03  0.91298308930E+02 0.  0.
         13    1    3    3    0    0 -0.12932099744E+03  0.46163458783E+02 -0.22086847832E+03  0.26007281677E+03  0.00000000000E+00 0. -1.
        -13    1    3    3    0    0 -0.76433305263E+02 -0.33685960513E+02 -0.21484457755E+03  0.23051027437E+03  0.00000000000E+00 0.  1.
         22    1    1    2    0    0  0.20575430270E+03 -0.12477498270E+02  0.59757628526E+03  0.63212968428E+03  0.00000000000E+00 0.  1.
<mgrwt>
<rscale>  0 0.11109835E+04</rscale>
<asrwt>0</asrwt>
<pdfrwt beam="1">  1        2 0.98813539E-01 0.11109835E+04</pdfrwt>
<pdfrwt beam="2">  1       -2 0.73911503E-01 0.11109835E+04</pdfrwt>
<totfact> 0.74725023E+01</totfact>
</mgrwt>
</event>
<event>
 6    1  0.2325157E-005  0.3384564E+04  0.7818608E-02  0.8141705E-01
         -1   -1    0    0    0  501 -0.00000000000E+00  0.00000000000E+00  0.14823657837E+04  0.14823657837E+04  0.00000000000E+00 0.  1.
          1   -1    0    0  501    0  0.00000000000E+00 -0.00000000000E+00 -0.19319240792E+04  0.19319240792E+04  0.00000000000E+00 0. -1.
         23    2    1    2    0    0  0.42630910095E+03  0.88407409254E+03 -0.16141309041E+04  0.18912810608E+04  0.90548465607E+02 0.  0.
         11    1    3    3    0    0  0.14231619467E+03  0.39086531202E+03 -0.65014579958E+03  0.77182844734E+03  0.00000000000E+00 0.  1.
        -11    1    3    3    0    0  0.28399290627E+03  0.49320878051E+03 -0.96398510454E+03  0.11194526134E+04  0.00000000000E+00 0. -1.
         22    1    1    2    0    0 -0.42630910095E+03 -0.88407409254E+03  0.11645726086E+04  0.15230088021E+04  0.00000000000E+00 0.  1.
<mgrwt>
<rscale>  0 0.33845639E+04</rscale>
<asrwt>0</asrwt>
<pdfrwt beam="1">  1        1 0.29721909E+00 0.33845639E+04</pdfrwt>
<pdfrwt beam="2">  1       -1 0.22805627E+00 0.33845639E+04</pdfrwt>
<totfact> 0.26552273E-01</totfact>
</mgrwt>
</event>
<event>
 6    1  0.2325157E-005  0.3000428E+04  0.7818608E-02  0.8243609E-01
         -2   -1    0    0    0  501 -0.00000000000E+00  0.00000000000E+00  0.13908138157E+04  0.13908138157E+04  0.00000000000E+00 0. -1.
          2   -1    0    0  501    0  0.00000000000E+00 -0.00000000000E+00 -0.16182196608E+04  0.16182196608E+04  0.00000000000E+00 0.  1.
         23    2    1    2    0    0 -0.61525225202E+03  0.28830481231E+03 -0.14536164218E+04  0.16071606659E+04  0.91157587032E+02 0.  0.
         13    1    3    3    0    0 -0.21408221680E+03  0.13560176939E+03 -0.47011268629E+03  0.53406457776E+03  0.00000000000E+00 0. -1.
        -13    1    3    3    0    0 -0.40117003522E+03  0.15270304292E+03 -0.98350373555E+03  0.10730960881E+04  0.00000000000E+00 0.  1.
         22    1    1    2    0    0  0.61525225202E+03 -0.28830481231E+03  0.12262105768E+04  0.14018728106E+04  0.00000000000E+00 0. -1.
<mgrwt>
<rscale>  0 0.30004281E+04</rscale>
<asrwt>0</asrwt>
<pdfrwt beam="1">  1        2 0.24895687E+00 0.30004281E+04</pdfrwt>
<pdfrwt beam="2">  1       -2 0.21397136E+00 0.30004281E+04</pdfrwt>
<totfact> 0.10068931E+00</totfact>
</mgrwt>
</event>
<event>
 6    1  0.2325157E-005  0.2002681E+04  0.7818608E-02  0.8605368E-01
         -2   -1    0    0    0  501 -0.00000000000E+00  0.00000000000E+00  0.34322217003E+03  0.34322217003E+03  0.00000000000E+00 0. -1.
          2   -1    0    0  501    0  0.00000000000E+00 -0.00000000000E+00 -0.29213823381E+04  0.29213823381E+04  0.00000000000E+00 0.  1.
         23    2    1    2    0    0 -0.73423081811E+03 -0.27399995262E+03 -0.23022183172E+04  0.24337526722E+04  0.93659066622E+02 0.  0.
         11    1    3    3    0    0 -0.47801801437E+03 -0.15072407128E+03 -0.15794458760E+04  0.16570661553E+04  0.00000000000E+00 0. -1.
        -11    1    3    3    0    0 -0.25621280373E+03 -0.12327588133E+03 -0.72277244125E+03  0.77668651691E+03  0.00000000000E+00 0.  1.
         22    1    1    2    0    0  0.73423081811E+03  0.27399995262E+03 -0.27594185085E+03  0.83085183598E+03  0.00000000000E+00 0.  1.
<mgrwt>
<rscale>  0 0.20026814E+04</rscale>
<asrwt>0</asrwt>
<pdfrwt beam="1">  1        2 0.44944345E+00 0.20026814E+04</pdfrwt>
<pdfrwt beam="2">  1       -2 0.52803409E-01 0.20026814E+04</pdfrwt>
<totfact> 0.61366926E+00</totfact>
</mgrwt>
</event>
<event>
 6    1  0.2325157E-005  0.2976000E+04  0.7818608E-02  0.8250617E-01
          2   -1    0    0  501    0  0.00000000000E+00  0.00000000000E+00  0.17503687699E+04  0.17503687699E+04  0.00000000000E+00 0.  1.
         -2   -1    0    0    0  501 -0.00000000000E+00 -0.00000000000E+00 -0.12649589772E+04  0.12649589772E+04  0.00000000000E+00 0. -1.
         23    2    1    2    0    0  0.16830224665E+03 -0.12345020901E+04 -0.57882733634E+03  0.13767546717E+04  0.89951564808E+02 0.  0.
         13    1    3    3    0    0  0.16069924711E+03 -0.10506962126E+04 -0.52226819753E+03  0.11842933967E+04  0.00000000000E+00 0. -1.
        -13    1    3    3    0    0  0.76029995445E+01 -0.18380587746E+03 -0.56559138815E+02  0.19246127500E+03  0.00000000000E+00 0.  1.
         22    1    1    2    0    0 -0.16830224665E+03  0.12345020901E+04  0.10642371291E+04  0.16385730754E+04  0.00000000000E+00 0.  1.
<mgrwt>
<rscale>  0 0.29760005E+04</rscale>
<asrwt>0</asrwt>
<pdfrwt beam="1">  1        2 0.26928750E+00 0.29760005E+04</pdfrwt>
<pdfrwt beam="2">  1       -2 0.19460907E+00 0.29760005E+04</pdfrwt>
<totfact> 0.11387170E+00</totfact>
</mgrwt>
</event>
<event>
 6    1  0.2325157E-005  0.4007932E+04  0.7818608E-02  0.8002948E-01
         -2   -1    0    0    0  501 -0.00000000000E+00  0.00000000000E+00  0.17095231994E+04  0.17095231994E+04  0.00000000000E+00 0. -1.
          2   -1    0    0  501    0  0.00000000000E+00 -0.00000000000E+00 -0.23491223860E+04  0.23491223860E+04  0.00000000000E+00 0.  1.
         23    2    1    2    0    0 -0.32410628394E+03  0.13531670292E+04  0.11388287882E+04  0.18005685377E+04  0.94921852186E+02 0.  0.
         13    1    3    3    0    0 -0.28759792164E+03  0.10284066798E+04  0.87390979129E+03  0.13798736127E+04  0.00000000000E+00 0. -1.
        -13    1    3    3    0    0 -0.36508362304E+02  0.32476034936E+03  0.26491899689E+03  0.42069492504E+03  0.00000000000E+00 0.  1.
         22    1    1    2    0    0  0.32410628394E+03 -0.13531670292E+04 -0.17784279748E+04  0.22580770478E+04  0.00000000000E+00 0.  1.
<mgrwt>
<rscale>  0 0.40079317E+04</rscale>
<asrwt>0</asrwt>
<pdfrwt beam="1">  1        2 0.36140344E+00 0.40079317E+04</pdfrwt>
<pdfrwt beam="2">  1       -2 0.26300357E+00 0.40079317E+04</pdfrwt>
<totfact> 0.17924832E-01</totfact>
</mgrwt>
</event>
<event>
 6    1  0.2325157E-005  0.2466294E+04  0.7818608E-02  0.8415093E-01
          2   -1    0    0  501    0  0.00000000000E+00  0.00000000000E+00  0.27595205492E+04  0.27595205492E+04  0.00000000000E+00 0.  1.
         -2   -1    0    0    0  501 -0.00000000000E+00 -0.00000000000E+00 -0.55105629142E+03  0.55105629142E+03  0.00000000000E+00 0. -1.
         23    2    1    2    0    0 -0.75157275291E+03 -0.41661882505E+03 -0.78355708167E+02  0.86763222296E+03  0.90626756546E+02 0.  0.
         11    1    3    3    0    0 -0.31139777728E+03 -0.13114089405E+03 -0.53083517115E+01  0.33792704595E+03  0.00000000000E+00 0.  1.
        -11    1    3    3    0    0 -0.44017497563E+03 -0.28547793100E+03 -0.73047356456E+02  0.52970517700E+03  0.00000000000E+00 0. -1.
         22    1    1    2    0    0  0.75157275291E+03  0.41661882505E+03  0.22868199660E+04  0.24429446177E+04  0.00000000000E+00 0.  1.
<mgrwt>
<rscale>  0 0.24662937E+04</rscale>
<asrwt>0</asrwt>
<pdfrwt beam="1">  1        2 0.42454161E+00 0.24662937E+04</pdfrwt>
<pdfrwt beam="2">  1       -2 0.84777893E-01 0.24662937E+04</pdfrwt>
<totfact> 0.26518118E+00</totfact>
</mgrwt>
</event>
<event>
 6    1  0.2325157E-005  0.4119944E+04  0.7818608E-02  0.7980778E-01
          1   -1    0    0  501    0  0.00000000000E+00  0.00000000000E+00  0.18409936189E+04  0.18409936189E+04  0.00000000000E+00 0.  1.
         -1   -1    0    0    0  501 -0.00000000000E+00 -0.00000000000E+00 -0.23049970207E+04  0.23049970207E+04  0.00000000000E+00 0. -1.
         23    2    1    2    0    0 -0.89533041384E+03  0.15131000160E+04 -0.13104374793E+04  0.21946990529E+04  0.91484082299E+02 0.  0.
         13    1    3    3    0    0 -0.81656105798E+03  0.14182329026E+04 -0.12021873318E+04  0.20306183561E+04  0.00000000000E+00 0.  1.
        -13    1    3    3    0    0 -0.78769355860E+02  0.94867113412E+02 -0.10825014756E+03  0.16408069684E+03  0.00000000000E+00 0. -1.
         22    1    1    2    0    0  0.89533041384E+03 -0.15131000160E+04  0.84643407752E+03  0.19512915866E+04  0.00000000000E+00 0.  1.
<mgrwt>
<rscale>  0 0.41199441E+04</rscale>
<asrwt>0</asrwt>
<pdfrwt beam="1">  1        1 0.28322979E+00 0.41199441E+04</pdfrwt>
<pdfrwt beam="2">  1       -1 0.35461493E+00 0.41199441E+04</pdfrwt>
<totfact> 0.42861758E-02</totfact>
</mgrwt>
</event>
<event>
 6    1  0.2325157E-005  0.1972076E+04  0.7818608E-02  0.8619788E-01
         -2   -1    0    0    0  501 -0.00000000000E+00  0.00000000000E+00  0.71040899577E+03  0.71040899577E+03  0.00000000000E+00 0. -1.
          2   -1    0    0  501    0  0.00000000000E+00 -0.00000000000E+00 -0.13686076367E+04  0.13686076367E+04  0.00000000000E+00 0.  1.
         23    2    1    2    0    0  0.93942782617E+03 -0.26354351081E+03 -0.46409231607E+03  0.10842015300E+04  0.90174593083E+02 0.  0.
         11    1    3    3    0    0  0.28195383656E+03 -0.90438529520E+02 -0.97237856572E+02  0.31166054342E+03  0.00000000000E+00 0. -1.
        -11    1    3    3    0    0  0.65747398961E+03 -0.17310498130E+03 -0.36685445950E+03  0.77254098662E+03  0.00000000000E+00 0.  1.
         22    1    1    2    0    0 -0.93942782617E+03  0.26354351081E+03 -0.19410632486E+03  0.99481510243E+03  0.00000000000E+00 0. -1.
<mgrwt>
<rscale>  0 0.19720762E+04</rscale>
<asrwt>0</asrwt>
<pdfrwt beam="1">  1        2 0.21055502E+00 0.19720762E+04</pdfrwt>
<pdfrwt beam="2">  1       -2 0.10929369E+00 0.19720762E+04</pdfrwt>
<totfact> 0.93750854E+00</totfact>
</mgrwt>
</event>
<event>
 6    1  0.2325157E-005  0.2315780E+04  0.7818608E-02  0.8471725E-01
          2   -1    0    0  501    0  0.00000000000E+00  0.00000000000E+00  0.18109152799E+04  0.18109152799E+04  0.00000000000E+00 0.  1.
         -2   -1    0    0    0  501 -0.00000000000E+00 -0.00000000000E+00 -0.74034914800E+03  0.74034914800E+03  0.00000000000E+00 0. -1.
         23    2    1    2    0    0  0.73887652092E+03 -0.77901172838E+03  0.10076651021E+04  0.14757392884E+04  0.98080086112E+02 0.  0.
         11    1    3    3    0    0  0.40484065647E+03 -0.36410836648E+03  0.47750569220E+03  0.72421167193E+03  0.00000000000E+00 0. -1.
        -11    1    3    3    0    0  0.33403586445E+03 -0.41490336190E+03  0.53015940989E+03  0.75152761649E+03  0.00000000000E+00 0.  1.
         22    1    1    2    0    0 -0.73887652092E+03  0.77901172838E+03  0.62901029815E+02  0.10755251395E+04  0.00000000000E+00 0. -1.
<mgrwt>
<rscale>  0 0.23157803E+04</rscale>
<asrwt>0</asrwt>
<pdfrwt beam="1">  1        2 0.27860235E+00 0.23157803E+04</pdfrwt>
<pdfrwt beam="2">  1       -2 0.11389987E+00 0.23157803E+04</pdfrwt>
<totfact> 0.46511769E+00</totfact>
</mgrwt>
</event>
<event>
 6    1  0.2325157E-005  0.2175941E+04  0.7818608E-02  0.8528509E-01
         -2   -1    0    0    0  501 -0.00000000000E+00  0.00000000000E+00  0.16105240731E+04  0.16105240731E+04  0.00000000000E+00 0. -1.
          2   -1    0    0  501    0  0.00000000000E+00 -0.00000000000E+00 -0.73496590801E+03  0.73496590801E+03  0.00000000000E+00 0.  1.
         23    2    1    2    0    0 -0.35275705578E+03  0.52890125859E+03 -0.51052383212E+03  0.82056461090E+03  0.92290929988E+02 0.  0.
         13    1    3    3    0    0 -0.13720221505E+03  0.13067405622E+03 -0.14357818321E+03  0.23772852475E+03  0.00000000000E+00 0.  1.
        -13    1    3    3    0    0 -0.21555484072E+03  0.39822720237E+03 -0.36694564891E+03  0.58283608615E+03  0.00000000000E+00 0. -1.
         22    1    1    2    0    0  0.35275705578E+03 -0.52890125859E+03  0.13860819972E+04  0.15249253702E+04  0.00000000000E+00 0. -1.
<mgrwt>
<rscale>  0 0.21759414E+04</rscale>
<asrwt>0</asrwt>
<pdfrwt beam="1">  1        2 0.11307168E+00 0.21759414E+04</pdfrwt>
<pdfrwt beam="2">  1       -2 0.24777293E+00 0.21759414E+04</pdfrwt>
<totfact> 0.23378391E+00</totfact>
</mgrwt>
</event>
<event>
 6    1  0.2325157E-005  0.1381468E+04  0.7818608E-02  0.8967343E-01
         -2   -1    0    0    0  501 -0.00000000000E+00  0.00000000000E+00  0.19043097477E+03  0.19043097477E+03  0.00000000000E+00 0. -1.
          2   -1    0    0  501    0  0.00000000000E+00 -0.00000000000E+00 -0.25054411887E+04  0.25054411887E+04  0.00000000000E+00 0.  1.
         23    2    1    2    0    0  0.38212008866E+03  0.21348429752E+03 -0.12775625030E+03  0.46525090273E+03  0.92441525056E+02 0.  0.
         11    1    3    3    0    0  0.18967550353E+03  0.97759172583E+02 -0.10978821678E+03  0.23997313393E+03  0.00000000000E+00 0.  1.
        -11    1    3    3    0    0  0.19244458513E+03  0.11572512494E+03 -0.17968033523E+02  0.22527776880E+03  0.00000000000E+00 0. -1.
         22    1    1    2    0    0 -0.38212008866E+03 -0.21348429752E+03 -0.21872539637E+04  0.22306212608E+04  0.00000000000E+00 0.  1.
<mgrwt>
<rscale>  0 0.13814682E+04</rscale>
<asrwt>0</asrwt>
<pdfrwt beam="1">  1        2 0.38545248E+00 0.13814682E+04</pdfrwt>
<pdfrwt beam="2">  1       -2 0.29297074E-01 0.13814682E+04</pdfrwt>
<totfact> 0.36240970E+01</totfact>
</mgrwt>
</event>
<event>
 6    1  0.2325157E-005  0.2865069E+04  0.7818608E-02  0.8283347E-01
         -2   -1    0    0    0  501 -0.00000000000E+00  0.00000000000E+00  0.60799267221E+03  0.60799267221E+03  0.00000000000E+00 0. -1.
          2   -1    0    0  501    0  0.00000000000E+00 -0.00000000000E+00 -0.33752968406E+04  0.33752968406E+04  0.00000000000E+00 0.  1.
         23    2    1    2    0    0  0.20577052201E+03  0.13289126927E+04 -0.70435142580E+03  0.15207452044E+04  0.90579210171E+02 0.  0.
         13    1    3    3    0    0  0.92864590853E+02  0.78821925501E+03 -0.45346909188E+03  0.91408295219E+03  0.00000000000E+00 0. -1.
        -13    1    3    3    0    0  0.11290593115E+03  0.54069343768E+03 -0.25088233393E+03  0.60666225226E+03  0.00000000000E+00 0.  1.
         22    1    1    2    0    0 -0.20577052201E+03 -0.13289126927E+04 -0.20629527426E+04  0.24625443084E+04  0.00000000000E+00 0.  1.
<mgrwt>
<rscale>  0 0.28650695E+04</rscale>
<asrwt>0</asrwt>
<pdfrwt beam="1">  1        2 0.51927643E+00 0.28650695E+04</pdfrwt>
<pdfrwt beam="2">  1       -2 0.93537336E-01 0.28650695E+04</pdfrwt>
<totfact> 0.82861167E-01</totfact>
</mgrwt>
</event>
<event>
 6    1  0.2325157E-005  0.3647310E+04  0.7818608E-02  0.8079740E-01
         -2   -1    0    0    0  501 -0.00000000000E+00  0.00000000000E+00  0.17174614409E+04  0.17174614409E+04  0.00000000000E+00 0. -1.
          2   -1    0    0  501    0  0.00000000000E+00 -0.00000000000E+00 -0.19364142390E+04  0.19364142390E+04  0.00000000000E+00 0.  1.
         23    2    1    2    0    0  0.16772878929E+04 -0.38835156871E+03  0.48938821467E+03  0.17921940189E+04  0.91361699378E+02 0.  0.
         11    1    3    3    0    0  0.71741043404E+03 -0.12330083192E+03  0.18876334633E+03  0.75200560300E+03  0.00000000000E+00 0. -1.
        -11    1    3    3    0    0  0.95987745885E+03 -0.26505073680E+03  0.30062486833E+03  0.10401884159E+04  0.00000000000E+00 0.  1.
         22    1    1    2    0    0 -0.16772878929E+04  0.38835156871E+03 -0.70834101280E+03  0.18616816610E+04  0.00000000000E+00 0.  1.
<mgrwt>
<rscale>  0 0.36473096E+04</rscale>
<asrwt>0</asrwt>
<pdfrwt beam="1">  1        2 0.29790988E+00 0.36473096E+04</pdfrwt>
<pdfrwt beam="2">  1       -2 0.26422484E+00 0.36473096E+04</pdfrwt>
<totfact> 0.30936832E-01</totfact>
</mgrwt>
</event>
<event>
 6    1  0.2325157E-005  0.7835778E+03  0.7818608E-02  0.9584097E-01
         -2   -1    0    0    0  501 -0.00000000000E+00  0.00000000000E+00  0.66380400294E+03  0.66380400294E+03  0.00000000000E+00 0. -1.
          2   -1    0    0  501    0  0.00000000000E+00 -0.00000000000E+00 -0.23124074663E+03  0.23124074663E+03  0.00000000000E+00 0.  1.
         23    2    1    2    0    0  0.20051937744E+03 -0.28922199099E+03  0.36818689073E+02  0.36544948590E+03  0.91325407633E+02 0.  0.
         11    1    3    3    0    0  0.85167971608E+02 -0.19999297615E+03  0.13807989170E+02  0.21781054718E+03  0.00000000000E+00 0.  1.
        -11    1    3    3    0    0  0.11535140583E+03 -0.89229014834E+02  0.23010699904E+02  0.14763893872E+03  0.00000000000E+00 0. -1.
         22    1    1    2    0    0 -0.20051937744E+03  0.28922199099E+03  0.39574456724E+03  0.52959526366E+03  0.00000000000E+00 0. -1.
<mgrwt>
<rscale>  0 0.78357778E+03</rscale>
<asrwt>0</asrwt>
<pdfrwt beam="1">  1        2 0.35575500E-01 0.78357778E+03</pdfrwt>
<pdfrwt beam="2">  1       -2 0.10212369E+00 0.78357778E+03</pdfrwt>
<totfact> 0.11628654E+02</totfact>
</mgrwt>
</event>
<event>
 6    1  0.2325157E-005  0.3622190E+04  0.7818608E-02  0.8085428E-01
          2   -1    0    0  501    0  0.00000000000E+00  0.00000000000E+00  0.18899075558E+04  0.18899075558E+04  0.00000000000E+00 0.  1.
         -2   -1    0    0    0  501 -0.00000000000E+00 -0.00000000000E+00 -0.17355694330E+04  0.17355694330E+04  0.00000000000E+00 0. -1.
         23    2    1    2    0    0  0.40031923365E+03  0.57167561251E+03  0.17486657821E+04  0.18850893365E+04  0.93066073737E+02 0.  0.
         11    1    3    3    0    0  0.46581407888E+02  0.13073140430E+03  0.34420761711E+03  0.37113260610E+03  0.00000000000E+00 0. -1.
        -11    1    3    3    0    0  0.35373782576E+03  0.44094420821E+03  0.14044581650E+04  0.15139567304E+04  0.00000000000E+00 0.  1.
         22    1    1    2    0    0 -0.40031923365E+03 -0.57167561251E+03 -0.15943276593E+04  0.17403876522E+04  0.00000000000E+00 0. -1.
<mgrwt>
<rscale>  0 0.36221904E+04</rscale>
<asrwt>0</asrwt>
<pdfrwt beam="1">  1        2 0.29075501E+00 0.36221904E+04</pdfrwt>
<pdfrwt beam="2">  1       -2 0.26701068E+00 0.36221904E+04</pdfrwt>
<totfact> 0.31634643E-01</totfact>
</mgrwt>
</event>
<event>
 6    1  0.2325157E-005  0.2879687E+04  0.7818608E-02  0.8278947E-01
          2   -1    0    0  501    0  0.00000000000E+00  0.00000000000E+00  0.82913688334E+03  0.82913688334E+03  0.00000000000E+00 0. -1.
         -2   -1    0    0    0  501 -0.00000000000E+00 -0.00000000000E+00 -0.25003700704E+04  0.25003700704E+04  0.00000000000E+00 0.  1.
         23    2    1    2    0    0  0.62504638261E+03  0.11605798982E+04 -0.15019260859E+04  0.20004871740E+04  0.92402841695E+02 0.  0.
         13    1    3    3    0    0  0.20494539109E+03  0.38400378474E+03 -0.56294606712E+03  0.71159665156E+03  0.00000000000E+00 0.  1.
        -13    1    3    3    0    0  0.42010099152E+03  0.77657611343E+03 -0.93898001882E+03  0.12888905224E+04  0.00000000000E+00 0. -1.
         22    1    1    2    0    0 -0.62504638261E+03 -0.11605798982E+04 -0.16930710110E+03  0.13290197797E+04  0.00000000000E+00 0.  1.
<mgrwt>
<rscale>  0 0.28796868E+04</rscale>
<asrwt>0</asrwt>
<pdfrwt beam="1">  1        2 0.12755952E+00 0.28796868E+04</pdfrwt>
<pdfrwt beam="2">  1       -2 0.38467231E+00 0.28796868E+04</pdfrwt>
<totfact> 0.26496844E-01</totfact>
</mgrwt>
</event>
<event>
 6    1  0.2325157E-005  0.5361018E+04  0.7818608E-02  0.7775108E-01
         -2   -1    0    0    0  501 -0.00000000000E+00  0.00000000000E+00  0.21808720483E+04  0.21808720483E+04  0.00000000000E+00 0. -1.
          2   -1    0    0  501    0  0.00000000000E+00 -0.00000000000E+00 -0.32946123095E+04  0.32946123095E+04  0.00000000000E+00 0.  1.
         23    2    1    2    0    0  0.24117919000E+04 -0.52998886651E+03 -0.16200405941E+04  0.29547764425E+04  0.92433387017E+02 0.  0.
         11    1    3    3    0    0  0.11781482341E+04 -0.21161922074E+03 -0.78631327103E+03  0.14321677682E+04  0.00000000000E+00 0. -1.
        -11    1    3    3    0    0  0.12336436659E+04 -0.31836964577E+03 -0.83372732307E+03  0.15226086743E+04  0.00000000000E+00 0.  1.
         22    1    1    2    0    0 -0.24117919000E+04  0.52998886651E+03  0.50630033296E+03  0.25207079153E+04  0.00000000000E+00 0.  1.
<mgrwt>
<rscale>  0 0.53610178E+04</rscale>
<asrwt>0</asrwt>
<pdfrwt beam="1">  1        2 0.50686343E+00 0.53610178E+04</pdfrwt>
<pdfrwt beam="2">  1       -2 0.33551878E+00 0.53610178E+04</pdfrwt>
<totfact> 0.15221679E-02</totfact>
</mgrwt>
</event>
<event>
 6    1  0.2325157E-005  0.5157176E+04  0.7818608E-02  0.7804708E-01
         -2   -1    0    0    0  501 -0.00000000000E+00  0.00000000000E+00  0.22690349316E+04  0.22690349316E+04  0.00000000000E+00 0. -1.
          2   -1    0    0  501    0  0.00000000000E+00 -0.00000000000E+00 -0.29303723893E+04  0.29303723893E+04  0.00000000000E+00 0.  1.
         23    2    1    2    0    0  0.93922876362E+03 -0.19440525931E+04 -0.17507429347E+04  0.27810823947E+04  0.88472071285E+02 0.  0.
         13    1    3    3    0    0  0.29147418907E+03 -0.68160683549E+03 -0.63257439441E+03  0.97452318882E+03  0.00000000000E+00 0.  1.
        -13    1    3    3    0    0  0.64775457455E+03 -0.12624457577E+04 -0.11181685403E+04  0.18065592059E+04  0.00000000000E+00 0. -1.
         22    1    1    2    0    0 -0.93922876362E+03  0.19440525931E+04  0.10894054769E+04  0.24183249262E+04  0.00000000000E+00 0. -1.
<mgrwt>
<rscale>  0 0.51571765E+04</rscale>
<asrwt>0</asrwt>
<pdfrwt beam="1">  1        2 0.45082652E+00 0.51571765E+04</pdfrwt>
<pdfrwt beam="2">  1       -2 0.34908230E+00 0.51571765E+04</pdfrwt>
<totfact> 0.21807581E-02</totfact>
</mgrwt>
</event>
<event>
 6    1  0.2325157E-005  0.4411800E+04  0.7818608E-02  0.7926263E-01
         -2   -1    0    0    0  501 -0.00000000000E+00  0.00000000000E+00  0.21753093907E+04  0.21753093907E+04  0.00000000000E+00 0. -1.
          2   -1    0    0  501    0  0.00000000000E+00 -0.00000000000E+00 -0.22369209225E+04  0.22369209225E+04  0.00000000000E+00 0.  1.
         23    2    1    2    0    0  0.21487583655E+03  0.41257408224E+03  0.21248543809E+04  0.21768282945E+04  0.84771960767E+02 0.  0.
         13    1    3    3    0    0  0.18380749780E+02  0.30332924171E+02  0.29774774482E+03  0.29985272685E+03  0.00000000000E+00 0. -1.
        -13    1    3    3    0    0  0.19649508677E+03  0.38224115807E+03  0.18271066360E+04  0.18769755676E+04  0.00000000000E+00 0.  1.
         22    1    1    2    0    0 -0.21487583655E+03 -0.41257408224E+03 -0.21864659126E+04  0.22354020188E+04  0.00000000000E+00 0.  1.
<mgrwt>
<rscale>  0 0.44118001E+04</rscale>
<asrwt>0</asrwt>
<pdfrwt beam="1">  1        2 0.34414168E+00 0.44118001E+04</pdfrwt>
<pdfrwt beam="2">  1       -2 0.33466298E+00 0.44118001E+04</pdfrwt>
<totfact> 0.72928928E-02</totfact>
</mgrwt>
</event>
<event>
 6    1  0.2325157E-005  0.1786963E+04  0.7818608E-02  0.8713263E-01
          2   -1    0    0  501    0  0.00000000000E+00  0.00000000000E+00  0.49159752754E+03  0.49159752754E+03  0.00000000000E+00 0.  1.
         -2   -1    0    0    0  501 -0.00000000000E+00 -0.00000000000E+00 -0.16239081763E+04  0.16239081763E+04  0.00000000000E+00 0. -1.
         23    2    1    2    0    0 -0.50855730295E+03 -0.49809993209E+03 -0.12023502740E+04  0.14002158173E+04  0.90686718318E+02 0.  0.
         11    1    3    3    0    0 -0.22207903422E+03 -0.28084630988E+03 -0.60569459887E+03  0.70360478559E+03  0.00000000000E+00 0.  1.
        -11    1    3    3    0    0 -0.28647826873E+03 -0.21725362221E+03 -0.59665567509E+03  0.69661103166E+03  0.00000000000E+00 0. -1.
         22    1    1    2    0    0  0.50855730295E+03  0.49809993209E+03  0.70039625218E+02  0.71528988657E+03  0.00000000000E+00 0.  1.
<mgrwt>
<rscale>  0 0.17869631E+04</rscale>
<asrwt>0</asrwt>
<pdfrwt beam="1">  1        2 0.75630389E-01 0.17869631E+04</pdfrwt>
<pdfrwt beam="2">  1       -2 0.24983203E+00 0.17869631E+04</pdfrwt>
<totfact> 0.38230870E+00</totfact>
</mgrwt>
</event>
<event>
 6    1  0.2325157E-005  0.2804479E+04  0.7818608E-02  0.8301879E-01
         -2   -1    0    0    0  501 -0.00000000000E+00  0.00000000000E+00  0.77392881047E+03  0.77392881047E+03  0.00000000000E+00 0. -1.
          2   -1    0    0  501    0  0.00000000000E+00 -0.00000000000E+00 -0.25406408360E+04  0.25406408360E+04  0.00000000000E+00 0.  1.
         23    2    1    2    0    0 -0.56573736967E+03  0.10580710706E+04 -0.30006417889E+02  0.12037121123E+04  0.91920086311E+02 0.  0.
         11    1    3    3    0    0 -0.18389916940E+03  0.32219162621E+03 -0.50563726249E+02  0.37441025483E+03  0.00000000000E+00 0. -1.
        -11    1    3    3    0    0 -0.38183820027E+03  0.73587944440E+03  0.20557308360E+02  0.82930185747E+03  0.00000000000E+00 0.  1.
         22    1    1    2    0    0  0.56573736967E+03 -0.10580710706E+04 -0.17367056076E+04  0.21108575341E+04  0.00000000000E+00 0.  1.
<mgrwt>
<rscale>  0 0.28044787E+04</rscale>
<asrwt>0</asrwt>
<pdfrwt beam="1">  1        2 0.39086782E+00 0.28044787E+04</pdfrwt>
<pdfrwt beam="2">  1       -2 0.11906597E+00 0.28044787E+04</pdfrwt>
<totfact> 0.15521853E+00</totfact>
</mgrwt>
</event>
<event>
 6    1  0.2325157E-005  0.1697001E+04  0.7818608E-02  0.8763077E-01
         -2   -1    0    0    0  501 -0.00000000000E+00  0.00000000000E+00  0.38067423114E+03  0.38067423114E+03  0.00000000000E+00 0. -1.
          2   -1    0    0  501    0  0.00000000000E+00 -0.00000000000E+00 -0.18912569472E+04  0.18912569472E+04  0.00000000000E+00 0.  1.
         23    2    1    2    0    0 -0.12617343134E+03  0.63881662068E+03 -0.34173854558E+02  0.65830497132E+03  0.90505100923E+02 0.  0.
         11    1    3    3    0    0 -0.42066053178E+02  0.14648088100E+03  0.28097297356E+02  0.15496986626E+03  0.00000000000E+00 0. -1.
        -11    1    3    3    0    0 -0.84107378165E+02  0.49233573968E+03 -0.62271151914E+02  0.50333510506E+03  0.00000000000E+00 0.  1.
         22    1    1    2    0    0  0.12617343134E+03 -0.63881662068E+03 -0.14764088615E+04  0.16136262070E+04  0.00000000000E+00 0.  1.
<mgrwt>
<rscale>  0 0.16970006E+04</rscale>
<asrwt>0</asrwt>
<pdfrwt beam="1">  1        2 0.29096261E+00 0.16970006E+04</pdfrwt>
<pdfrwt beam="2">  1       -2 0.58565267E-01 0.16970006E+04</pdfrwt>
<totfact> 0.19920775E+01</totfact>
</mgrwt>
</event>
<event>
 6    1  0.2325157E-005  0.2090755E+04  0.7818608E-02  0.8565327E-01
         -2   -1    0    0    0  501 -0.00000000000E+00  0.00000000000E+00  0.51282026136E+03  0.51282026136E+03  0.00000000000E+00 0. -1.
          2   -1    0    0  501    0  0.00000000000E+00 -0.00000000000E+00 -0.21309883760E+04  0.21309883760E+04  0.00000000000E+00 0.  1.
         23    2    1    2    0    0 -0.26141308605E+03 -0.37612397125E+03  0.37414658486E+03  0.59951807456E+03  0.98133640769E+02 0.  0.
         13    1    3    3    0    0 -0.11419220192E+03 -0.88272120346E+02  0.13182618111E+03  0.19547370216E+03  0.00000000000E+00 0. -1.
        -13    1    3    3    0    0 -0.14722088413E+03 -0.28785185090E+03  0.24232040375E+03  0.40404437240E+03  0.00000000000E+00 0.  1.
         22    1    1    2    0    0  0.26141308605E+03  0.37612397125E+03 -0.19923146995E+04  0.20442905628E+04  0.00000000000E+00 0.  1.
<mgrwt>
<rscale>  0 0.20907549E+04</rscale>
<asrwt>0</asrwt>
<pdfrwt beam="1">  1        2 0.32784436E+00 0.20907549E+04</pdfrwt>
<pdfrwt beam="2">  1       -2 0.78895426E-01 0.20907549E+04</pdfrwt>
<totfact> 0.74252485E+00</totfact>
</mgrwt>
</event>
<event>
 6    1  0.2325157E-005  0.2273973E+04  0.7818608E-02  0.8488254E-01
          2   -1    0    0  501    0  0.00000000000E+00  0.00000000000E+00  0.10246679951E+04  0.10246679951E+04  0.00000000000E+00 0.  1.
         -2   -1    0    0    0  501 -0.00000000000E+00 -0.00000000000E+00 -0.12616168567E+04  0.12616168567E+04  0.00000000000E+00 0. -1.
         23    2    1    2    0    0  0.37189612806E+03 -0.10276149781E+04  0.18992590238E+03  0.11130323908E+04  0.92032501467E+02 0.  0.
         11    1    3    3    0    0  0.49909135180E+02 -0.25201128940E+03  0.47253556170E+02  0.26121544810E+03  0.00000000000E+00 0.  1.
        -11    1    3    3    0    0  0.32198699288E+03 -0.77560368868E+03  0.14267234621E+03  0.85181694269E+03  0.00000000000E+00 0. -1.
         22    1    1    2    0    0 -0.37189612806E+03  0.10276149781E+04 -0.42687476393E+03  0.11732524610E+04  0.00000000000E+00 0. -1.
<mgrwt>
<rscale>  0 0.22739731E+04</rscale>
<asrwt>0</asrwt>
<pdfrwt beam="1">  1        2 0.15764123E+00 0.22739731E+04</pdfrwt>
<pdfrwt beam="2">  1       -2 0.19409490E+00 0.22739731E+04</pdfrwt>
<totfact> 0.32107292E+00</totfact>
</mgrwt>
</event>
<event>
 6    1  0.2325157E-005  0.4719371E+04  0.7818608E-02  0.7873318E-01
         -2   -1    0    0    0  501 -0.00000000000E+00  0.00000000000E+00  0.12503068529E+04  0.12503068529E+04  0.00000000000E+00 0. -1.
          2   -1    0    0  501    0  0.00000000000E+00 -0.00000000000E+00 -0.44533989372E+04  0.44533989372E+04  0.00000000000E+00 0.  1.
         23    2    1    2    0    0  0.10448163972E+04 -0.63642069661E+03 -0.40389997898E+04  0.42220127386E+04  0.12328688567E+03 0.  0.
         13    1    3    3    0    0  0.29111263022E+03 -0.11486433025E+03 -0.10094865813E+04  0.10568838799E+04  0.00000000000E+00 0.  1.
        -13    1    3    3    0    0  0.75370376695E+03 -0.52155636635E+03 -0.30295132085E+04  0.31651288587E+04  0.00000000000E+00 0. -1.
         22    1    1    2    0    0 -0.10448163972E+04  0.63642069661E+03  0.83590770548E+03  0.14816930515E+04  0.00000000000E+00 0. -1.
<mgrwt>
<rscale>  0 0.47193708E+04</rscale>
<asrwt>0</asrwt>
<pdfrwt beam="1">  1        2 0.68513829E+00 0.47193708E+04</pdfrwt>
<pdfrwt beam="2">  1       -2 0.19235490E+00 0.47193708E+04</pdfrwt>
<totfact> 0.15065199E-02</totfact>
</mgrwt>
</event>
<event>
 6    1  0.2325157E-005  0.4920637E+04  0.7818608E-02  0.7840868E-01
          2   -1    0    0  501    0  0.00000000000E+00  0.00000000000E+00  0.27404224460E+04  0.27404224460E+04  0.00000000000E+00 0.  1.
         -2   -1    0    0    0  501 -0.00000000000E+00 -0.00000000000E+00 -0.22088446537E+04  0.22088446537E+04  0.00000000000E+00 0. -1.
         23    2    1    2    0    0  0.40308439091E+03 -0.65486798939E+03  0.26156835369E+04  0.27278203044E+04  0.88736342737E+02 0.  0.
         11    1    3    3    0    0  0.34508658062E+03 -0.60964228824E+03  0.23657938945E+04  0.24673324095E+04  0.00000000000E+00 0. -1.
        -11    1    3    3    0    0  0.57997810295E+02 -0.45225701158E+02  0.24988964240E+03  0.26048789497E+03  0.00000000000E+00 0.  1.
         22    1    1    2    0    0 -0.40308439091E+03  0.65486798939E+03 -0.20841057446E+04  0.22214467953E+04  0.00000000000E+00 0. -1.
<mgrwt>
<rscale>  0 0.49206371E+04</rscale>
<asrwt>0</asrwt>
<pdfrwt beam="1">  1        2 0.42160346E+00 0.49206371E+04</pdfrwt>
<pdfrwt beam="2">  1       -2 0.33982225E+00 0.49206371E+04</pdfrwt>
<totfact> 0.33169563E-02</totfact>
</mgrwt>
</event>
<event>
 6    1  0.2325157E-005  0.3521118E+04  0.7818608E-02  0.8108804E-01
          2   -1    0    0  501    0  0.00000000000E+00  0.00000000000E+00  0.22019935209E+04  0.22019935209E+04  0.00000000000E+00 0.  1.
         -2   -1    0    0    0  501 -0.00000000000E+00 -0.00000000000E+00 -0.14076186832E+04  0.14076186832E+04  0.00000000000E+00 0. -1.
         23    2    1    2    0    0  0.11125289676E+04 -0.77972958747E+03 -0.74852008589E+03  0.15538340842E+04  0.91755702174E+02 0.  0.
         11    1    3    3    0    0  0.69943423339E+03 -0.48414135580E+03 -0.41788979509E+03  0.94775153921E+03  0.00000000000E+00 0. -1.
        -11    1    3    3    0    0  0.41309473419E+03 -0.29558823167E+03 -0.33063029080E+03  0.60608254496E+03  0.00000000000E+00 0.  1.
         22    1    1    2    0    0 -0.11125289676E+04  0.77972958747E+03  0.15428949235E+04  0.20557781199E+04  0.00000000000E+00 0.  1.
<mgrwt>
<rscale>  0 0.35211176E+04</rscale>
<asrwt>0</asrwt>
<pdfrwt beam="1">  1        2 0.33876823E+00 0.35211176E+04</pdfrwt>
<pdfrwt beam="2">  1       -2 0.21655672E+00 0.35211176E+04</pdfrwt>
<totfact> 0.43917430E-01</totfact>
</mgrwt>
</event>
<event>
 6    1  0.2325157E-005  0.3534548E+04  0.7818608E-02  0.8105651E-01
         -2   -1    0    0    0  501 -0.00000000000E+00  0.00000000000E+00  0.13123678675E+04  0.13123678675E+04  0.00000000000E+00 0. -1.
          2   -1    0    0  501    0  0.00000000000E+00 -0.00000000000E+00 -0.23798637327E+04  0.23798637327E+04  0.00000000000E+00 0.  1.
         23    2    1    2    0    0  0.30606657930E+03 -0.54365152430E+03  0.11919186285E+04  0.13482632589E+04  0.88938560875E+02 0.  0.
         13    1    3    3    0    0  0.58805564888E+02 -0.51352941306E+02  0.17735911585E+03  0.19378202965E+03  0.00000000000E+00 0. -1.
        -13    1    3    3    0    0  0.24726101441E+03 -0.49229858299E+03  0.10145595126E+04  0.11544812293E+04  0.00000000000E+00 0.  1.
         22    1    1    2    0    0 -0.30606657930E+03  0.54365152430E+03 -0.22594144936E+04  0.23439683413E+04  0.00000000000E+00 0.  1.
<mgrwt>
<rscale>  0 0.35345476E+04</rscale>
<asrwt>0</asrwt>
<pdfrwt beam="1">  1        2 0.36613288E+00 0.35345476E+04</pdfrwt>
<pdfrwt beam="2">  1       -2 0.20190275E+00 0.35345476E+04</pdfrwt>
<totfact> 0.43229536E-01</totfact>
</mgrwt>
</event>
<event>
 6    1  0.2325157E-005  0.1818604E+04  0.7818608E-02  0.8696468E-01
         -2   -1    0    0    0  501 -0.00000000000E+00  0.00000000000E+00  0.27755388528E+03  0.27755388528E+03  0.00000000000E+00 0. -1.
          2   -1    0    0  501    0  0.00000000000E+00 -0.00000000000E+00 -0.29789903214E+04  0.29789903214E+04  0.00000000000E+00 0.  1.
         23    2    1    2    0    0 -0.55248115066E+03 -0.42652345178E+03 -0.31654565847E+03  0.77161730674E+03  0.89635023336E+02 0.  0.
         13    1    3    3    0    0 -0.21453968229E+03 -0.19890736244E+03 -0.93633308844E+02  0.30717846708E+03  0.00000000000E+00 0. -1.
        -13    1    3    3    0    0 -0.33794146837E+03 -0.22761608933E+03 -0.22291234962E+03  0.46443883966E+03  0.00000000000E+00 0.  1.
         22    1    1    2    0    0  0.55248115066E+03  0.42652345178E+03 -0.23848907776E+04  0.24849268999E+04  0.00000000000E+00 0.  1.
<mgrwt>
<rscale>  0 0.18186042E+04</rscale>
<asrwt>0</asrwt>
<pdfrwt beam="1">  1        2 0.45830620E+00 0.18186042E+04</pdfrwt>
<pdfrwt beam="2">  1       -2 0.42700598E-01 0.18186042E+04</pdfrwt>
<totfact> 0.88274803E+00</totfact>
</mgrwt>
</event>
<event>
 6    1  0.2325157E-005  0.2308037E+04  0.7818608E-02  0.8474759E-01
          2   -1    0    0  501    0  0.00000000000E+00  0.00000000000E+00  0.72034162232E+03  0.72034162232E+03  0.00000000000E+00 0.  1.
         -2   -1    0    0    0  501 -0.00000000000E+00 -0.00000000000E+00 -0.18487876935E+04  0.18487876935E+04  0.00000000000E+00 0. -1.
         23    2    1    2    0    0  0.85464559078E+03  0.50090005181E+03  0.91458840447E+02  0.99766886734E+03  0.75223012525E+02 0.  0.
         11    1    3    3    0    0  0.51635931317E+03  0.30491755688E+03  0.92183506486E+02  0.60671200388E+03  0.00000000000E+00 0. -1.
        -11    1    3    3    0    0  0.33828627761E+03  0.19598249493E+03 -0.72466603943E+00  0.39095686345E+03  0.00000000000E+00 0.  1.
         22    1    1    2    0    0 -0.85464559078E+03 -0.50090005181E+03 -0.12199049116E+04  0.15714604485E+04  0.00000000000E+00 0. -1.
<mgrwt>
<rscale>  0 0.23080370E+04</rscale>
<asrwt>0</asrwt>
<pdfrwt beam="1">  1        2 0.11082179E+00 0.23080370E+04</pdfrwt>
<pdfrwt beam="2">  1       -2 0.28442888E+00 0.23080370E+04</pdfrwt>
<totfact> 0.14165827E+00</totfact>
</mgrwt>
</event>
<event>
 6    1  0.2325157E-005  0.1315321E+04  0.7818608E-02  0.9017503E-01
          2   -1    0    0  501    0  0.00000000000E+00  0.00000000000E+00  0.11578508288E+04  0.11578508288E+04  0.00000000000E+00 0.  1.
         -2   -1    0    0    0  501 -0.00000000000E+00 -0.00000000000E+00 -0.37355186468E+03  0.37355186468E+03  0.00000000000E+00 0. -1.
         23    2    1    2    0    0  0.33993390852E+03  0.55124112690E+03  0.28364942001E+03  0.71282355366E+03  0.90766640523E+02 0.  0.
         11    1    3    3    0    0  0.21858373783E+03  0.32837662709E+03  0.12612944200E+03  0.41414815682E+03  0.00000000000E+00 0. -1.
        -11    1    3    3    0    0  0.12135017069E+03  0.22286449981E+03  0.15751997801E+03  0.29867539683E+03  0.00000000000E+00 0.  1.
         22    1    1    2    0    0 -0.33993390852E+03 -0.55124112690E+03  0.50064954415E+03  0.81857913985E+03  0.00000000000E+00 0. -1.
<mgrwt>
<rscale>  0 0.13153210E+04</rscale>
<asrwt>0</asrwt>
<pdfrwt beam="1">  1        2 0.17813089E+00 0.13153210E+04</pdfrwt>
<pdfrwt beam="2">  1       -2 0.57469518E-01 0.13153210E+04</pdfrwt>
<totfact> 0.55763547E+01</totfact>
</mgrwt>
</event>
<event>
 6    1  0.2325157E-005  0.1116768E+04  0.7818608E-02  0.9189001E-01
          2   -1    0    0  501    0  0.00000000000E+00  0.00000000000E+00  0.11805100090E+04  0.11805100090E+04  0.00000000000E+00 0.  1.
         -2   -1    0    0    0  501 -0.00000000000E+00 -0.00000000000E+00 -0.26411690173E+03  0.26411690173E+03  0.00000000000E+00 0. -1.
         23    2    1    2    0    0  0.26220063136E+03  0.19136189044E+03  0.10430277865E+04  0.10961948712E+04  0.91475068101E+02 0.  0.
         13    1    3    3    0    0  0.22492776074E+03  0.11593958357E+03  0.77314701644E+03  0.81350525113E+03  0.00000000000E+00 0.  1.
        -13    1    3    3    0    0  0.37272870613E+02  0.75422306870E+02  0.26988077005E+03  0.28268962007E+03  0.00000000000E+00 0. -1.
         22    1    1    2    0    0 -0.26220063136E+03 -0.19136189044E+03 -0.12663467920E+03  0.34843203953E+03  0.00000000000E+00 0. -1.
<mgrwt>
<rscale>  0 0.11167679E+04</rscale>
<asrwt>0</asrwt>
<pdfrwt beam="1">  1        2 0.18161692E+00 0.11167679E+04</pdfrwt>
<pdfrwt beam="2">  1       -2 0.40633370E-01 0.11167679E+04</pdfrwt>
<totfact> 0.11059617E+02</totfact>
</mgrwt>
</event>
<event>
 6    1  0.2325157E-005  0.2046298E+04  0.7818608E-02  0.8585276E-01
          2   -1    0    0  501    0  0.00000000000E+00  0.00000000000E+00  0.20100397149E+04  0.20100397149E+04  0.00000000000E+00 0.  1.
         -2   -1    0    0    0  501 -0.00000000000E+00 -0.00000000000E+00 -0.52080251425E+03  0.52080251425E+03  0.00000000000E+00 0. -1.
         23    2    1    2    0    0  0.69083118742E+03  0.60825828007E+03  0.19999514333E+03  0.94674281715E+03  0.95383644724E+02 0.  0.
         13    1    3    3    0    0  0.36933688929E+03  0.38328138448E+03  0.96765540810E+02  0.54099716022E+03  0.00000000000E+00 0.  1.
        -13    1    3    3    0    0  0.32149429813E+03  0.22497689559E+03  0.10322960252E+03  0.40574565693E+03  0.00000000000E+00 0. -1.
         22    1    1    2    0    0 -0.69083118742E+03 -0.60825828007E+03  0.12892420573E+04  0.15840994120E+04  0.00000000000E+00 0.  1.
<mgrwt>
<rscale>  0 0.20462979E+04</rscale>
<asrwt>0</asrwt>
<pdfrwt beam="1">  1        2 0.30923687E+00 0.20462979E+04</pdfrwt>
<pdfrwt beam="2">  1       -2 0.80123465E-01 0.20462979E+04</pdfrwt>
<totfact> 0.84088630E+00</totfact>
</mgrwt>
</event>
<event>
 6    1  0.2325157E-005  0.3220154E+04  0.7818608E-02  0.8183515E-01
         -1   -1    0    0    0  501 -0.00000000000E+00  0.00000000000E+00  0.98218130705E+03  0.98218130705E+03  0.00000000000E+00 0. -1.
          1   -1    0    0  501    0  0.00000000000E+00 -0.00000000000E+00 -0.26393782360E+04  0.26393782360E+04  0.00000000000E+00 0.  1.
         23    2    1    2    0    0 -0.38668744525E+03  0.95815720034E+03  0.55764966489E+03  0.11775591676E+04  0.89889062767E+02 0.  0.
         13    1    3    3    0    0 -0.27413965281E+03  0.74291466254E+03  0.39229616595E+03  0.88372565136E+03  0.00000000000E+00 0. -1.
        -13    1    3    3    0    0 -0.11254779243E+03  0.21524253781E+03  0.16535349894E+03  0.29383351625E+03  0.00000000000E+00 0.  1.
         22    1    1    2    0    0  0.38668744525E+03 -0.95815720034E+03 -0.22148465938E+04  0.24440003754E+04  0.00000000000E+00 0.  1.
<mgrwt>
<rscale>  0 0.32201540E+04</rscale>
<asrwt>0</asrwt>
<pdfrwt beam="1">  1        1 0.40605819E+00 0.32201540E+04</pdfrwt>
<pdfrwt beam="2">  1       -1 0.15110482E+00 0.32201540E+04</pdfrwt>
<totfact> 0.30918595E-01</totfact>
</mgrwt>
</event>
<event>
 6    1  0.2325157E-005  0.1958739E+04  0.7818608E-02  0.8626158E-01
          2   -1    0    0  501    0  0.00000000000E+00  0.00000000000E+00  0.15589457705E+04  0.15589457705E+04  0.00000000000E+00 0.  1.
         -2   -1    0    0    0  501 -0.00000000000E+00 -0.00000000000E+00 -0.61526478662E+03  0.61526478662E+03  0.00000000000E+00 0. -1.
         23    2    1    2    0    0  0.73014602865E+03 -0.18814796887E+03  0.11615465663E+04  0.13893677108E+04  0.11242476885E+03 0.  0.
         13    1    3    3    0    0  0.30472911125E+03 -0.31330973069E+02  0.41288594991E+03  0.51411697964E+03  0.00000000000E+00 0.  1.
        -13    1    3    3    0    0  0.42541691740E+03 -0.15681699580E+03  0.74866061642E+03  0.87525073114E+03  0.00000000000E+00 0. -1.
         22    1    1    2    0    0 -0.73014602865E+03  0.18814796887E+03 -0.21786558249E+03  0.78484284629E+03  0.00000000000E+00 0. -1.
<mgrwt>
<rscale>  0 0.19587388E+04</rscale>
<asrwt>0</asrwt>
<pdfrwt beam="1">  1        2 0.23983781E+00 0.19587388E+04</pdfrwt>
<pdfrwt beam="2">  1       -2 0.94656122E-01 0.19587388E+04</pdfrwt>
<totfact> 0.10303742E+01</totfact>
</mgrwt>
</event>
<event>
 6    1  0.2325157E-005  0.1846750E+04  0.7818608E-02  0.8681826E-01
         -2   -1    0    0    0  501 -0.00000000000E+00  0.00000000000E+00  0.10583992392E+04  0.10583992392E+04  0.00000000000E+00 0. -1.
          2   -1    0    0  501    0  0.00000000000E+00 -0.00000000000E+00 -0.80557592765E+03  0.80557592765E+03  0.00000000000E+00 0.  1.
         23    2    1    2    0    0  0.17402964308E+03 -0.90170894160E+03  0.54082533439E+02  0.92436714808E+03  0.90356914414E+02 0.  0.
         11    1    3    3    0    0  0.69675926923E+02 -0.44965240777E+03  0.68790376097E+02  0.46018924200E+03  0.00000000000E+00 0. -1.
        -11    1    3    3    0    0  0.10435371616E+03 -0.45205653383E+03 -0.14707842658E+02  0.46417790608E+03  0.00000000000E+00 0.  1.
         22    1    1    2    0    0 -0.17402964308E+03  0.90170894160E+03  0.19874077808E+03  0.93960801875E+03  0.00000000000E+00 0.  1.
<mgrwt>
<rscale>  0 0.18467495E+04</rscale>
<asrwt>0</asrwt>
<pdfrwt beam="1">  1        2 0.12393476E+00 0.18467495E+04</pdfrwt>
<pdfrwt beam="2">  1       -2 0.16283065E+00 0.18467495E+04</pdfrwt>
<totfact> 0.77034485E+00</totfact>
</mgrwt>
</event>
<event>
 6    1  0.2325157E-005  0.1972335E+04  0.7818608E-02  0.8619665E-01
         -2   -1    0    0    0  501 -0.00000000000E+00  0.00000000000E+00  0.11092542565E+04  0.11092542565E+04  0.00000000000E+00 0. -1.
          2   -1    0    0  501    0  0.00000000000E+00 -0.00000000000E+00 -0.87673867242E+03  0.87673867242E+03  0.00000000000E+00 0.  1.
         23    2    1    2    0    0 -0.30723939424E+03 -0.61983582453E+03  0.82116084055E+03  0.10776451251E+04  0.91768158443E+02 0.  0.
         11    1    3    3    0    0 -0.23878443826E+03 -0.40706206926E+03  0.51433152121E+03  0.69803613796E+03  0.00000000000E+00 0. -1.
        -11    1    3    3    0    0 -0.68454955985E+02 -0.21277375526E+03  0.30682931934E+03  0.37960898716E+03  0.00000000000E+00 0.  1.
         22    1    1    2    0    0  0.30723939424E+03  0.61983582453E+03 -0.58864525645E+03  0.90834780381E+03  0.00000000000E+00 0.  1.
<mgrwt>
<rscale>  0 0.19723348E+04</rscale>
<asrwt>0</asrwt>
<pdfrwt beam="1">  1        2 0.13488287E+00 0.19723348E+04</pdfrwt>
<pdfrwt beam="2">  1       -2 0.17065450E+00 0.19723348E+04</pdfrwt>
<totfact> 0.59691245E+00</totfact>
</mgrwt>
</event>
<event>
 6    1  0.2325157E-005  0.1118703E+04  0.7818608E-02  0.9187152E-01
         -2   -1    0    0    0  501 -0.00000000000E+00  0.00000000000E+00  0.18828885410E+03  0.18828885410E+03  0.00000000000E+00 0. -1.
          2   -1    0    0  501    0  0.00000000000E+00 -0.00000000000E+00 -0.16616702026E+04  0.16616702026E+04  0.00000000000E+00 0.  1.
         23    2    1    2    0    0 -0.20233035343E+03 -0.69204750228E+02 -0.15896322474E+04  0.16065640262E+04  0.91599230339E+02 0.  0.
         11    1    3    3    0    0 -0.74018858573E+02 -0.40617094039E+02 -0.93875979372E+03  0.94254893245E+03  0.00000000000E+00 0. -1.
        -11    1    3    3    0    0 -0.12831149486E+03 -0.28587656189E+02 -0.65087245368E+03  0.66401509377E+03  0.00000000000E+00 0.  1.
         22    1    1    2    0    0  0.20233035343E+03  0.69204750228E+02  0.11625089889E+03  0.24339503049E+03  0.00000000000E+00 0. -1.
<mgrwt>
<rscale>  0 0.11187028E+04</rscale>
<asrwt>0</asrwt>
<pdfrwt beam="1">  1        2 0.25564156E+00 0.11187028E+04</pdfrwt>
<pdfrwt beam="2">  1       -2 0.28967517E-01 0.11187028E+04</pdfrwt>
<totfact> 0.11180069E+02</totfact>
</mgrwt>
</event>
<event>
 6    1  0.2325157E-005  0.2251697E+04  0.7818608E-02  0.8497214E-01
         -2   -1    0    0    0  501 -0.00000000000E+00  0.00000000000E+00  0.53656697017E+03  0.53656697017E+03  0.00000000000E+00 0. -1.
          2   -1    0    0  501    0  0.00000000000E+00 -0.00000000000E+00 -0.23623049488E+04  0.23623049488E+04  0.00000000000E+00 0.  1.
         23    2    1    2    0    0 -0.93525694233E+02 -0.10589735713E+04 -0.44447270436E+03  0.11558670888E+04  0.91107967244E+02 0.  0.
         13    1    3    3    0    0  0.15623463923E+02 -0.25928171000E+03 -0.11611019839E+03  0.28452183736E+03  0.00000000000E+00 0. -1.
        -13    1    3    3    0    0 -0.10914915816E+03 -0.79969186134E+03 -0.32836250597E+03  0.87134525140E+03  0.00000000000E+00 0.  1.
         22    1    1    2    0    0  0.93525694233E+02  0.10589735713E+04 -0.13812652743E+04  0.17430048302E+04  0.00000000000E+00 0.  1.
<mgrwt>
<rscale>  0 0.22516970E+04</rscale>
<asrwt>0</asrwt>
<pdfrwt beam="1">  1        2 0.36343153E+00 0.22516970E+04</pdfrwt>
<pdfrwt beam="2">  1       -2 0.82548764E-01 0.22516970E+04</pdfrwt>
<totfact> 0.48965959E+00</totfact>
</mgrwt>
</event>
<event>
 6    1  0.2325157E-005  0.2602107E+04  0.7818608E-02  0.8367486E-01
         -2   -1    0    0    0  501 -0.00000000000E+00  0.00000000000E+00  0.12949810609E+04  0.12949810609E+04  0.00000000000E+00 0. -1.
          2   -1    0    0  501    0  0.00000000000E+00 -0.00000000000E+00 -0.13071543977E+04  0.13071543977E+04  0.00000000000E+00 0.  1.
         23    2    1    2    0    0  0.70380285299E+03  0.93579068696E+03 -0.56961359328E+03  0.13052999620E+04  0.91135501253E+02 0.  0.
         11    1    3    3    0    0  0.28561997370E+03  0.37018445587E+03 -0.27698093192E+03  0.54344616789E+03  0.00000000000E+00 0. -1.
        -11    1    3    3    0    0  0.41818287929E+03  0.56560623109E+03 -0.29263266136E+03  0.76185379416E+03  0.00000000000E+00 0.  1.
         22    1    1    2    0    0 -0.70380285299E+03 -0.93579068696E+03  0.55744025638E+03  0.12968354966E+04  0.00000000000E+00 0. -1.
<mgrwt>
<rscale>  0 0.26021070E+04</rscale>
<asrwt>0</asrwt>
<pdfrwt beam="1">  1        2 0.20110068E+00 0.26021070E+04</pdfrwt>
<pdfrwt beam="2">  1       -2 0.19922786E+00 0.26021070E+04</pdfrwt>
<totfact> 0.19486655E+00</totfact>
</mgrwt>
</event>
<event>
 6    1  0.2325157E-005  0.3048996E+04  0.7818608E-02  0.8229876E-01
          2   -1    0    0  501    0  0.00000000000E+00  0.00000000000E+00  0.18263135003E+04  0.18263135003E+04  0.00000000000E+00 0.  1.
         -2   -1    0    0    0  501 -0.00000000000E+00 -0.00000000000E+00 -0.12725607520E+04  0.12725607520E+04  0.00000000000E+00 0. -1.
         23    2    1    2    0    0  0.74004083535E+03 -0.12959371337E+04  0.58670384174E+03  0.16061588518E+04  0.91713505233E+02 0.  0.
         11    1    3    3    0    0  0.32824494069E+03 -0.55854002995E+03  0.30287941589E+03  0.71515568006E+03  0.00000000000E+00 0. -1.
        -11    1    3    3    0    0  0.41179589466E+03 -0.73739710370E+03  0.28382442584E+03  0.89100317177E+03  0.00000000000E+00 0.  1.
         22    1    1    2    0    0 -0.74004083535E+03  0.12959371337E+04 -0.32951093471E+02  0.14927154005E+04  0.00000000000E+00 0. -1.
<mgrwt>
<rscale>  0 0.30489965E+04</rscale>
<asrwt>0</asrwt>
<pdfrwt beam="1">  1        2 0.28097131E+00 0.30489965E+04</pdfrwt>
<pdfrwt beam="2">  1       -2 0.19577858E+00 0.30489965E+04</pdfrwt>
<totfact> 0.10089277E+00</totfact>
</mgrwt>
</event>
<event>
 6    1  0.2325157E-005  0.3946354E+04  0.7818608E-02  0.8015457E-01
         -2   -1    0    0    0  501 -0.00000000000E+00  0.00000000000E+00  0.17042817756E+04  0.17042817756E+04  0.00000000000E+00 0. -1.
          2   -1    0    0  501    0  0.00000000000E+00 -0.00000000000E+00 -0.22844976414E+04  0.22844976414E+04  0.00000000000E+00 0.  1.
         23    2    1    2    0    0  0.48538623299E+03  0.10613873633E+04 -0.18969791276E+04  0.22292316291E+04  0.93813193379E+02 0.  0.
         13    1    3    3    0    0  0.17427038454E+03  0.47927936144E+03 -0.86942023053E+03  0.10079535756E+04  0.00000000000E+00 0.  1.
        -13    1    3    3    0    0  0.31111584845E+03  0.58210800182E+03 -0.10275588971E+04  0.12212780535E+04  0.00000000000E+00 0. -1.
         22    1    1    2    0    0 -0.48538623299E+03 -0.10613873633E+04  0.13167632619E+04  0.17595477879E+04  0.00000000000E+00 0. -1.
<mgrwt>
<rscale>  0 0.39463541E+04</rscale>
<asrwt>0</asrwt>
<pdfrwt beam="1">  1        2 0.35146117E+00 0.39463541E+04</pdfrwt>
<pdfrwt beam="2">  1       -2 0.26219720E+00 0.39463541E+04</pdfrwt>
<totfact> 0.19828744E-01</totfact>
</mgrwt>
</event>
<event>
 6    1  0.2325157E-005  0.2075734E+04  0.7818608E-02  0.8572009E-01
          2   -1    0    0  501    0  0.00000000000E+00  0.00000000000E+00  0.16483230840E+04  0.16483230840E+04  0.00000000000E+00 0.  1.
         -2   -1    0    0    0  501 -0.00000000000E+00 -0.00000000000E+00 -0.65349324917E+03  0.65349324917E+03  0.00000000000E+00 0. -1.
         23    2    1    2    0    0  0.65904843740E+03  0.15525726945E+03 -0.37099803585E+03  0.77737038958E+03  0.90639491620E+02 0.  0.
         11    1    3    3    0    0  0.43459759640E+03  0.12723984599E+03 -0.20658637434E+03  0.49773786200E+03  0.00000000000E+00 0.  1.
        -11    1    3    3    0    0  0.22445084099E+03  0.28017423466E+02 -0.16441166152E+03  0.27963252758E+03  0.00000000000E+00 0. -1.
         22    1    1    2    0    0 -0.65904843740E+03 -0.15525726945E+03  0.13658278706E+04  0.15244459435E+04  0.00000000000E+00 0.  1.
<mgrwt>
<rscale>  0 0.20757341E+04</rscale>
<asrwt>0</asrwt>
<pdfrwt beam="1">  1        2 0.25358817E+00 0.20757341E+04</pdfrwt>
<pdfrwt beam="2">  1       -2 0.10053742E+00 0.20757341E+04</pdfrwt>
<totfact> 0.78920959E+00</totfact>
</mgrwt>
</event>
<event>
 6    1  0.2803850E-005  0.2401505E+04  0.7818608E-02  0.8438940E-01
          2   -1    0    0  501    0  0.00000000000E+00  0.00000000000E+00  0.22175156380E+04  0.22175156380E+04  0.00000000000E+00 0.  1.
         -2   -1    0    0    0  501 -0.00000000000E+00 -0.00000000000E+00 -0.65018987091E+03  0.65018987091E+03  0.00000000000E+00 0. -1.
         23    2    1    2    0    0  0.18759408667E+03 -0.10850535829E+04  0.13524559799E+04  0.17457866862E+04  0.78109904199E+02 0.  0.
         13    1    3    3    0    0  0.46596950980E+02 -0.37020865137E+03  0.40709888314E+03  0.55222750931E+03  0.00000000000E+00 0. -1.
        -13    1    3    3    0    0  0.14099713569E+03 -0.71484493155E+03  0.94535709677E+03  0.11935591769E+04  0.00000000000E+00 0.  1.
         22    1    1    2    0    0 -0.18759408667E+03  0.10850535829E+04  0.21486978714E+03  0.11219188226E+04  0.00000000000E+00 0. -1.
<mgrwt>
<rscale>  0 0.24015047E+04</rscale>
<asrwt>0</asrwt>
<pdfrwt beam="1">  1        2 0.34115625E+00 0.24015047E+04</pdfrwt>
<pdfrwt beam="2">  1       -2 0.10002921E+00 0.24015047E+04</pdfrwt>
<totfact> 0.37458716E+00</totfact>
</mgrwt>
</event>
<event>
 6    1  0.2325157E-005  0.2320592E+04  0.7818608E-02  0.8469846E-01
         -2   -1    0    0    0  501 -0.00000000000E+00  0.00000000000E+00  0.10440086471E+04  0.10440086471E+04  0.00000000000E+00 0. -1.
          2   -1    0    0  501    0  0.00000000000E+00 -0.00000000000E+00 -0.12895358216E+04  0.12895358216E+04  0.00000000000E+00 0.  1.
         23    2    1    2    0    0 -0.36557968704E+03 -0.37604108066E+03  0.91582047748E+03  0.10592667241E+04  0.90903486329E+02 0.  0.
         13    1    3    3    0    0 -0.23987873842E+03 -0.30216428180E+03  0.68782552334E+03  0.78863744072E+03  0.00000000000E+00 0. -1.
        -13    1    3    3    0    0 -0.12570094863E+03 -0.73876798857E+02  0.22799495414E+03  0.27062928335E+03  0.00000000000E+00 0.  1.
         22    1    1    2    0    0  0.36557968704E+03  0.37604108066E+03 -0.11613476519E+04  0.12742777447E+04  0.00000000000E+00 0.  1.
<mgrwt>
<rscale>  0 0.23205918E+04</rscale>
<asrwt>0</asrwt>
<pdfrwt beam="1">  1        2 0.19839013E+00 0.23205918E+04</pdfrwt>
<pdfrwt beam="2">  1       -2 0.16061672E+00 0.23205918E+04</pdfrwt>
<totfact> 0.37828678E+00</totfact>
</mgrwt>
</event>
<event>
 6    1  0.2325157E-005  0.2787504E+04  0.7818608E-02  0.8307158E-01
          2   -1    0    0  501    0  0.00000000000E+00  0.00000000000E+00  0.12269848373E+04  0.12269848373E+04  0.00000000000E+00 0.  1.
         -2   -1    0    0    0  501 -0.00000000000E+00 -0.00000000000E+00 -0.15831852406E+04  0.15831852406E+04  0.00000000000E+00 0. -1.
         23    2    1    2    0    0  0.41955408405E+03  0.16690320507E+03 -0.15060474060E+04  0.15748440323E+04  0.89847802268E+02 0.  0.
         13    1    3    3    0    0  0.19750130116E+03  0.10958819224E+03 -0.62955753415E+03  0.66884902978E+03  0.00000000000E+00 0.  1.
        -13    1    3    3    0    0  0.22205278289E+03  0.57315012830E+02 -0.87648987187E+03  0.90599500251E+03  0.00000000000E+00 0. -1.
         22    1    1    2    0    0 -0.41955408405E+03 -0.16690320507E+03  0.11498470027E+04  0.12353260456E+04  0.00000000000E+00 0.  1.
<mgrwt>
<rscale>  0 0.27875037E+04</rscale>
<asrwt>0</asrwt>
<pdfrwt beam="1">  1        2 0.18876690E+00 0.27875037E+04</pdfrwt>
<pdfrwt beam="2">  1       -2 0.24356696E+00 0.27875037E+04</pdfrwt>
<totfact> 0.11193165E+00</totfact>
</mgrwt>
</event>
<event>
 6    1  0.2325157E-005  0.2433979E+04  0.7818608E-02  0.8426891E-01
          2   -1    0    0  501    0  0.00000000000E+00  0.00000000000E+00  0.23193282876E+04  0.23193282876E+04  0.00000000000E+00 0.  1.
         -2   -1    0    0    0  501 -0.00000000000E+00 -0.00000000000E+00 -0.63857453835E+03  0.63857453835E+03  0.00000000000E+00 0. -1.
         23    2    1    2    0    0 -0.87727774122E+02 -0.60301850540E+03  0.21193348115E+04  0.22071160197E+04  0.91943467347E+02 0.  0.
         11    1    3    3    0    0  0.42635637892E+01 -0.14896773783E+03  0.63022440993E+03  0.64760510480E+03  0.00000000000E+00 0.  1.
        -11    1    3    3    0    0 -0.91991337911E+02 -0.45405076758E+03  0.14891104016E+04  0.15595109149E+04  0.00000000000E+00 0. -1.
         22    1    1    2    0    0  0.87727774122E+02  0.60301850540E+03 -0.43858106224E+03  0.75078680620E+03  0.00000000000E+00 0. -1.
<mgrwt>
<rscale>  0 0.24339794E+04</rscale>
<asrwt>0</asrwt>
<pdfrwt beam="1">  1        2 0.35681973E+00 0.24339794E+04</pdfrwt>
<pdfrwt beam="2">  1       -2 0.98242238E-01 0.24339794E+04</pdfrwt>
<totfact> 0.34138595E+00</totfact>
</mgrwt>
</event>
<event>
 6    1  0.2325157E-005  0.3318504E+04  0.7818608E-02  0.8158203E-01
         -2   -1    0    0    0  501 -0.00000000000E+00  0.00000000000E+00  0.11714376181E+04  0.11714376181E+04  0.00000000000E+00 0. -1.
          2   -1    0    0  501    0  0.00000000000E+00 -0.00000000000E+00 -0.23502043574E+04  0.23502043574E+04  0.00000000000E+00 0.  1.
         23    2    1    2    0    0  0.13755870997E+04  0.48960290286E+02 -0.15706712662E+04  0.20904794631E+04  0.91973800823E+02 0.  0.
         13    1    3    3    0    0  0.96277726312E+03  0.36579834451E+02 -0.11618171724E+04  0.15093367036E+04  0.00000000000E+00 0.  1.
        -13    1    3    3    0    0  0.41280983660E+03  0.12380455835E+02 -0.40885409383E+03  0.58114275950E+03  0.00000000000E+00 0. -1.
         22    1    1    2    0    0 -0.13755870997E+04 -0.48960290286E+02  0.39190452689E+03  0.14311625125E+04  0.00000000000E+00 0. -1.
<mgrwt>
<rscale>  0 0.33185044E+04</rscale>
<asrwt>0</asrwt>
<pdfrwt beam="1">  1        2 0.36156990E+00 0.33185044E+04</pdfrwt>
<pdfrwt beam="2">  1       -2 0.18022117E+00 0.33185044E+04</pdfrwt>
<totfact> 0.63962036E-01</totfact>
</mgrwt>
</event>
<event>
 6    1  0.2325157E-005  0.2147199E+04  0.7818608E-02  0.8540732E-01
          2   -1    0    0  501    0  0.00000000000E+00  0.00000000000E+00  0.27871491488E+04  0.27871491488E+04  0.00000000000E+00 0.  1.
         -2   -1    0    0    0  501 -0.00000000000E+00 -0.00000000000E+00 -0.41354672638E+03  0.41354672638E+03  0.00000000000E+00 0. -1.
         23    2    1    2    0    0  0.62954089433E+03 -0.40525679880E+03  0.45792926919E+02  0.75544499685E+03  0.89695822150E+02 0.  0.
         13    1    3    3    0    0  0.30215866146E+03 -0.17574977682E+03  0.63332419908E+02  0.35524475528E+03  0.00000000000E+00 0. -1.
        -13    1    3    3    0    0  0.32738223287E+03 -0.22950702198E+03 -0.17539492990E+02  0.40020024157E+03  0.00000000000E+00 0.  1.
         22    1    1    2    0    0 -0.62954089433E+03  0.40525679880E+03  0.23278094955E+04  0.24452508783E+04  0.00000000000E+00 0.  1.
<mgrwt>
<rscale>  0 0.21471995E+04</rscale>
<asrwt>0</asrwt>
<pdfrwt beam="1">  1        2 0.42879217E+00 0.21471995E+04</pdfrwt>
<pdfrwt beam="2">  1       -2 0.63622575E-01 0.21471995E+04</pdfrwt>
<totfact> 0.49442885E+00</totfact>
</mgrwt>
</event>
<event>
 6    1  0.2325157E-005  0.3326049E+04  0.7818608E-02  0.8156299E-01
         -2   -1    0    0    0  501 -0.00000000000E+00  0.00000000000E+00  0.79504770049E+03  0.79504770049E+03  0.00000000000E+00 0. -1.
          2   -1    0    0  501    0  0.00000000000E+00 -0.00000000000E+00 -0.34785967528E+04  0.34785967528E+04  0.00000000000E+00 0.  1.
         23    2    1    2    0    0 -0.10687742607E+03 -0.34565756022E+03 -0.34267790063E+04  0.34470292479E+04  0.91073295547E+02 0.  0.
         13    1    3    3    0    0 -0.10781163026E+03 -0.20729595561E+03 -0.20236531879E+04  0.20370977360E+04  0.00000000000E+00 0.  1.
        -13    1    3    3    0    0  0.93420418948E+00 -0.13836160461E+03 -0.14031258183E+04  0.14099315120E+04  0.00000000000E+00 0. -1.
         22    1    1    2    0    0  0.10687742607E+03  0.34565756022E+03  0.74322995400E+03  0.82661520532E+03  0.00000000000E+00 0. -1.
<mgrwt>
<rscale>  0 0.33260489E+04</rscale>
<asrwt>0</asrwt>
<pdfrwt beam="1">  1        2 0.53516873E+00 0.33260489E+04</pdfrwt>
<pdfrwt beam="2">  1       -2 0.12231503E+00 0.33260489E+04</pdfrwt>
<totfact> 0.35456401E-01</totfact>
</mgrwt>
</event>
<event>
 6    1  0.2325157E-005  0.2493612E+04  0.7818608E-02  0.8405265E-01
          2   -1    0    0  501    0  0.00000000000E+00  0.00000000000E+00  0.12322404464E+04  0.12322404464E+04  0.00000000000E+00 0.  1.
         -2   -1    0    0    0  501 -0.00000000000E+00 -0.00000000000E+00 -0.12615435038E+04  0.12615435038E+04  0.00000000000E+00 0. -1.
         23    2    1    2    0    0 -0.29395004333E+03  0.95984255140E+03 -0.75132183425E+03  0.12572503010E+04  0.92138316134E+02 0.  0.
         11    1    3    3    0    0 -0.21172442051E+03  0.67938679283E+03 -0.58335166200E+03  0.92015911997E+03  0.00000000000E+00 0.  1.
        -11    1    3    3    0    0 -0.82225622813E+02  0.28045575856E+03 -0.16797017226E+03  0.33709118103E+03  0.00000000000E+00 0. -1.
         22    1    1    2    0    0  0.29395004333E+03 -0.95984255140E+03  0.72201877691E+03  0.12365336492E+04  0.00000000000E+00 0.  1.
<mgrwt>
<rscale>  0 0.24936118E+04</rscale>
<asrwt>0</asrwt>
<pdfrwt beam="1">  1        2 0.18957545E+00 0.24936118E+04</pdfrwt>
<pdfrwt beam="2">  1       -2 0.19408362E+00 0.24936118E+04</pdfrwt>
<totfact> 0.23535789E+00</totfact>
</mgrwt>
</event>
<event>
 6    1  0.2325157E-005  0.1920335E+04  0.7818608E-02  0.8644800E-01
         -2   -1    0    0    0  501 -0.00000000000E+00  0.00000000000E+00  0.52628883214E+03  0.52628883214E+03  0.00000000000E+00 0. -1.
          2   -1    0    0  501    0  0.00000000000E+00 -0.00000000000E+00 -0.17517408136E+04  0.17517408136E+04  0.00000000000E+00 0.  1.
         23    2    1    2    0    0  0.35866500535E+03  0.15023397691E+03  0.42436432470E+03  0.58300614209E+03  0.92737520741E+02 0.  0.
         13    1    3    3    0    0  0.12680699404E+03  0.54737623175E+02  0.89180201035E+02  0.16440598951E+03  0.00000000000E+00 0. -1.
        -13    1    3    3    0    0  0.23185801131E+03  0.95496353734E+02  0.33518412366E+03  0.41860015258E+03  0.00000000000E+00 0.  1.
         22    1    1    2    0    0 -0.35866500535E+03 -0.15023397691E+03 -0.16498163061E+04  0.16950235036E+04  0.00000000000E+00 0.  1.
<mgrwt>
<rscale>  0 0.19203350E+04</rscale>
<asrwt>0</asrwt>
<pdfrwt beam="1">  1        2 0.26949859E+00 0.19203350E+04</pdfrwt>
<pdfrwt beam="2">  1       -2 0.80967511E-01 0.19203350E+04</pdfrwt>
<totfact> 0.11544857E+01</totfact>
</mgrwt>
</event>
<event>
 6    1  0.2325157E-005  0.8619810E+03  0.7818608E-02  0.9474396E-01
          2   -1    0    0  501    0  0.00000000000E+00  0.00000000000E+00  0.19497404677E+04  0.19497404677E+04  0.00000000000E+00 0.  1.
         -2   -1    0    0    0  501 -0.00000000000E+00 -0.00000000000E+00 -0.95270531874E+02  0.95270531874E+02  0.00000000000E+00 0. -1.
         23    2    1    2    0    0 -0.28117619239E+03 -0.63167622206E+02  0.19267379084E+03  0.35841186903E+03  0.91025702528E+02 0.  0.
         13    1    3    3    0    0 -0.10191475290E+03  0.18542269545E+02  0.84368263703E+02  0.13359804093E+03  0.00000000000E+00 0. -1.
        -13    1    3    3    0    0 -0.17926143949E+03 -0.81709891750E+02  0.10830552714E+03  0.22481382811E+03  0.00000000000E+00 0.  1.
         22    1    1    2    0    0  0.28117619239E+03  0.63167622206E+02  0.16617961450E+04  0.16865991306E+04  0.00000000000E+00 0.  1.
<mgrwt>
<rscale>  0 0.86198100E+03</rscale>
<asrwt>0</asrwt>
<pdfrwt beam="1">  1        2 0.29996004E+00 0.86198100E+03</pdfrwt>
<pdfrwt beam="2">  1       -2 0.14657006E-01 0.86198100E+03</pdfrwt>
<totfact> 0.26316884E+02</totfact>
</mgrwt>
</event>
<event>
 6    1  0.2325157E-005  0.1525436E+04  0.7818608E-02  0.8867713E-01
         -2   -1    0    0    0  501 -0.00000000000E+00  0.00000000000E+00  0.19674463202E+03  0.19674463202E+03  0.00000000000E+00 0. -1.
          2   -1    0    0  501    0  0.00000000000E+00 -0.00000000000E+00 -0.29568198000E+04  0.29568198000E+04  0.00000000000E+00 0.  1.
         23    2    1    2    0    0  0.31931968252E+03  0.32141238877E+03 -0.12396458849E+03  0.47880276590E+03  0.92811023754E+02 0.  0.
         11    1    3    3    0    0  0.10423721420E+03  0.16840453750E+03 -0.42497775798E+02  0.20256244969E+03  0.00000000000E+00 0. -1.
        -11    1    3    3    0    0  0.21508246832E+03  0.15300785127E+03 -0.81466812691E+02  0.27624031621E+03  0.00000000000E+00 0.  1.
         22    1    1    2    0    0 -0.31931968252E+03 -0.32141238877E+03 -0.26361105795E+04  0.26747616661E+04  0.00000000000E+00 0.  1.
<mgrwt>
<rscale>  0 0.15254356E+04</rscale>
<asrwt>0</asrwt>
<pdfrwt beam="1">  1        2 0.45489531E+00 0.15254356E+04</pdfrwt>
<pdfrwt beam="2">  1       -2 0.30268408E-01 0.15254356E+04</pdfrwt>
<totfact> 0.18136147E+01</totfact>
</mgrwt>
</event>
<event>
 6    1  0.2325157E-005  0.3353952E+04  0.7818608E-02  0.8149301E-01
          2   -1    0    0  501    0  0.00000000000E+00  0.00000000000E+00  0.26722254637E+04  0.26722254637E+04  0.00000000000E+00 0.  1.
         -2   -1    0    0    0  501 -0.00000000000E+00 -0.00000000000E+00 -0.10523994588E+04  0.10523994588E+04  0.00000000000E+00 0. -1.
         23    2    1    2    0    0 -0.14641223574E+04  0.80064016743E+03  0.64108310838E+03  0.17900405712E+04  0.92621484432E+02 0.  0.
         13    1    3    3    0    0 -0.55461349844E+03  0.27225296283E+03  0.19938337618E+03  0.64920839422E+03  0.00000000000E+00 0.  1.
        -13    1    3    3    0    0 -0.90950885898E+03  0.52838720460E+03  0.44169973220E+03  0.11408321770E+04  0.00000000000E+00 0. -1.
         22    1    1    2    0    0  0.14641223574E+04 -0.80064016743E+03  0.97874289647E+03  0.19345843514E+04  0.00000000000E+00 0.  1.
<mgrwt>
<rscale>  0 0.33539521E+04</rscale>
<asrwt>0</asrwt>
<pdfrwt beam="1">  1        2 0.41111161E+00 0.33539521E+04</pdfrwt>
<pdfrwt beam="2">  1       -2 0.16190761E+00 0.33539521E+04</pdfrwt>
<totfact> 0.55921189E-01</totfact>
</mgrwt>
</event>
<event>
 6    1  0.2325157E-005  0.6965912E+03  0.7818608E-02  0.9723079E-01
          4   -1    0    0  501    0  0.00000000000E+00  0.00000000000E+00  0.34115496681E+03  0.34115496681E+03  0.00000000000E+00 0.  1.
         -4   -1    0    0    0  501 -0.00000000000E+00 -0.00000000000E+00 -0.35558572077E+03  0.35558572077E+03  0.00000000000E+00 0. -1.
         23    2    1    2    0    0 -0.24882314204E+03 -0.15854388894E+03 -0.18026661998E+03  0.35828735964E+03  0.93939645845E+02 0.  0.
         11    1    3    3    0    0 -0.17026764018E+03 -0.10027522691E+03 -0.16866217611E+03  0.25979438037E+03  0.00000000000E+00 0. -1.
        -11    1    3    3    0    0 -0.78555501858E+02 -0.58268662027E+02 -0.11604443879E+02  0.98492979264E+02  0.00000000000E+00 0.  1.
         22    1    1    2    0    0  0.24882314204E+03  0.15854388894E+03  0.16583586603E+03  0.33845332794E+03  0.00000000000E+00 0.  1.
<mgrwt>
<rscale>  0 0.69659123E+03</rscale>
<asrwt>0</asrwt>
<pdfrwt beam="1">  1        4 0.52485379E-01 0.69659123E+03</pdfrwt>
<pdfrwt beam="2">  1       -4 0.54705496E-01 0.69659123E+03</pdfrwt>
<totfact> 0.22077065E+01</totfact>
</mgrwt>
</event>
<event>
 6    1  0.2325157E-005  0.2950535E+04  0.7818608E-02  0.8257999E-01
         -2   -1    0    0    0  501 -0.00000000000E+00  0.00000000000E+00  0.12186909165E+04  0.12186909165E+04  0.00000000000E+00 0. -1.
          2   -1    0    0  501    0  0.00000000000E+00 -0.00000000000E+00 -0.17858624552E+04  0.17858624552E+04  0.00000000000E+00 0.  1.
         23    2    1    2    0    0  0.40567400919E+03  0.22571365398E+03 -0.17083548907E+04  0.17725560104E+04  0.89220638789E+02 0.  0.
         11    1    3    3    0    0  0.88434909733E+02  0.94306772708E+02 -0.45355857818E+03  0.47162472845E+03  0.00000000000E+00 0. -1.
        -11    1    3    3    0    0  0.31723909946E+03  0.13140688127E+03 -0.12547963125E+04  0.13009312820E+04  0.00000000000E+00 0.  1.
         22    1    1    2    0    0 -0.40567400919E+03 -0.22571365398E+03  0.11411833520E+04  0.12319973613E+04  0.00000000000E+00 0. -1.
<mgrwt>
<rscale>  0 0.29505351E+04</rscale>
<asrwt>0</asrwt>
<pdfrwt beam="1">  1        2 0.27474807E+00 0.29505351E+04</pdfrwt>
<pdfrwt beam="2">  1       -2 0.18749091E+00 0.29505351E+04</pdfrwt>
<totfact> 0.12171479E+00</totfact>
</mgrwt>
</event>
<event>
 6    1  0.2325157E-005  0.1817900E+04  0.7818608E-02  0.8696838E-01
         -2   -1    0    0    0  501 -0.00000000000E+00  0.00000000000E+00  0.87005343105E+03  0.87005343105E+03  0.00000000000E+00 0. -1.
          2   -1    0    0  501    0  0.00000000000E+00 -0.00000000000E+00 -0.94958591996E+03  0.94958591996E+03  0.00000000000E+00 0.  1.
         23    2    1    2    0    0 -0.40138266369E+03 -0.80354044170E+03 -0.16359857825E+03  0.91750167220E+03  0.90882008851E+02 0.  0.
         11    1    3    3    0    0 -0.18103721995E+03 -0.43695803506E+03 -0.11722050249E+03  0.48728579460E+03  0.00000000000E+00 0.  1.
        -11    1    3    3    0    0 -0.22034544374E+03 -0.36658240664E+03 -0.46378075761E+02  0.43021587761E+03  0.00000000000E+00 0. -1.
         22    1    1    2    0    0  0.40138266369E+03  0.80354044170E+03  0.84066089344E+02  0.90213767881E+03  0.00000000000E+00 0. -1.
<mgrwt>
<rscale>  0 0.18179004E+04</rscale>
<asrwt>0</asrwt>
<pdfrwt beam="1">  1        2 0.14609014E+00 0.18179004E+04</pdfrwt>
<pdfrwt beam="2">  1       -2 0.13385437E+00 0.18179004E+04</pdfrwt>
<totfact> 0.10325594E+01</totfact>
</mgrwt>
</event>
<event>
 6    1  0.2325157E-005  0.2265460E+04  0.7818608E-02  0.8491665E-01
          2   -1    0    0  501    0  0.00000000000E+00  0.00000000000E+00  0.22539866162E+04  0.22539866162E+04  0.00000000000E+00 0.  1.
         -2   -1    0    0    0  501 -0.00000000000E+00 -0.00000000000E+00 -0.56924818208E+03  0.56924818208E+03  0.00000000000E+00 0. -1.
         23    2    1    2    0    0  0.39892249671E+03 -0.87378231501E+03  0.99734372306E+02  0.96989387757E+03  0.90069397321E+02 0.  0.
         11    1    3    3    0    0  0.54403772969E+02 -0.13405322787E+03  0.47221247914E+02  0.15218372012E+03  0.00000000000E+00 0. -1.
        -11    1    3    3    0    0  0.34451872374E+03 -0.73972908714E+03  0.52513124392E+02  0.81771015745E+03  0.00000000000E+00 0.  1.
         22    1    1    2    0    0 -0.39892249671E+03  0.87378231501E+03  0.15850040619E+04  0.18533409208E+04  0.00000000000E+00 0.  1.
<mgrwt>
<rscale>  0 0.22654605E+04</rscale>
<asrwt>0</asrwt>
<pdfrwt beam="1">  1        2 0.34676717E+00 0.22654605E+04</pdfrwt>
<pdfrwt beam="2">  1       -2 0.87576645E-01 0.22654605E+04</pdfrwt>
<totfact> 0.49248487E+00</totfact>
</mgrwt>
</event>
<event>
 6    1  0.2325157E-005  0.3595818E+04  0.7818608E-02  0.8091450E-01
          2   -1    0    0  501    0  0.00000000000E+00  0.00000000000E+00  0.27648720228E+04  0.27648720228E+04  0.00000000000E+00 0.  1.
         -2   -1    0    0    0  501 -0.00000000000E+00 -0.00000000000E+00 -0.11691234704E+04  0.11691234704E+04  0.00000000000E+00 0. -1.
         23    2    1    2    0    0  0.23584391727E+03 -0.39624086066E+03 -0.11015356846E+04  0.11975796937E+04  0.90482513626E+02 0.  0.
         13    1    3    3    0    0  0.20239691661E+03 -0.30085500949E+03 -0.77247042043E+03  0.85333979107E+03  0.00000000000E+00 0.  1.
        -13    1    3    3    0    0  0.33447000664E+02 -0.95385851167E+02 -0.32906526418E+03  0.34423990260E+03  0.00000000000E+00 0. -1.
         22    1    1    2    0    0 -0.23584391727E+03  0.39624086066E+03  0.26972842370E+04  0.27364157995E+04  0.00000000000E+00 0.  1.
<mgrwt>
<rscale>  0 0.35958180E+04</rscale>
<asrwt>0</asrwt>
<pdfrwt beam="1">  1        2 0.42536493E+00 0.35958180E+04</pdfrwt>
<pdfrwt beam="2">  1       -2 0.17986515E+00 0.35958180E+04</pdfrwt>
<totfact> 0.35962215E-01</totfact>
</mgrwt>
</event>
<event>
 6    1  0.2325157E-005  0.2534583E+04  0.7818608E-02  0.8390768E-01
         -2   -1    0    0    0  501 -0.00000000000E+00  0.00000000000E+00  0.70000754895E+03  0.70000754895E+03  0.00000000000E+00 0. -1.
          2   -1    0    0  501    0  0.00000000000E+00 -0.00000000000E+00 -0.22943009515E+04  0.22943009515E+04  0.00000000000E+00 0.  1.
         23    2    1    2    0    0  0.26043596679E+03  0.10922780891E+04 -0.14879446780E+04  0.18663863542E+04  0.92305697342E+02 0.  0.
         11    1    3    3    0    0  0.14035832607E+03  0.64107626567E+03 -0.79599096536E+03  0.10316398863E+04  0.00000000000E+00 0. -1.
        -11    1    3    3    0    0  0.12007764072E+03  0.45120182341E+03 -0.69195371263E+03  0.83474646791E+03  0.00000000000E+00 0.  1.
         22    1    1    2    0    0 -0.26043596679E+03 -0.10922780891E+04 -0.10634872453E+03  0.11279221462E+04  0.00000000000E+00 0. -1.
<mgrwt>
<rscale>  0 0.25345832E+04</rscale>
<asrwt>0</asrwt>
<pdfrwt beam="1">  1        2 0.35296938E+00 0.25345832E+04</pdfrwt>
<pdfrwt beam="2">  1       -2 0.10769347E+00 0.25345832E+04</pdfrwt>
<totfact> 0.28088115E+00</totfact>
</mgrwt>
</event>
<event>
 6    1  0.2325157E-005  0.2319004E+04  0.7818608E-02  0.8470466E-01
          2   -1    0    0  501    0  0.00000000000E+00  0.00000000000E+00  0.24443341575E+04  0.24443341575E+04  0.00000000000E+00 0.  1.
         -2   -1    0    0    0  501 -0.00000000000E+00 -0.00000000000E+00 -0.55002494586E+03  0.55002494586E+03  0.00000000000E+00 0. -1.
         23    2    1    2    0    0  0.32800551726E+03 -0.77053403470E+03 -0.84931265577E+02  0.84524226506E+03  0.76882044660E+02 0.  0.
         11    1    3    3    0    0  0.26698471973E+03 -0.68573893006E+03 -0.85008473867E+02  0.74077335360E+03  0.00000000000E+00 0. -1.
        -11    1    3    3    0    0  0.61020797523E+02 -0.84795104641E+02  0.77208289406E-01  0.10446891146E+03  0.00000000000E+00 0.  1.
         22    1    1    2    0    0 -0.32800551726E+03  0.77053403470E+03  0.19792404773E+04  0.21491168383E+04  0.00000000000E+00 0.  1.
<mgrwt>
<rscale>  0 0.23190039E+04</rscale>
<asrwt>0</asrwt>
<pdfrwt beam="1">  1        2 0.37605140E+00 0.23190039E+04</pdfrwt>
<pdfrwt beam="2">  1       -2 0.84619224E-01 0.23190039E+04</pdfrwt>
<totfact> 0.41306156E+00</totfact>
</mgrwt>
</event>
<event>
 6    1  0.2325157E-005  0.8484860E+03  0.7818608E-02  0.9492371E-01
         -2   -1    0    0    0  501 -0.00000000000E+00  0.00000000000E+00  0.34659035274E+03  0.34659035274E+03  0.00000000000E+00 0. -1.
          2   -1    0    0  501    0  0.00000000000E+00 -0.00000000000E+00 -0.51929346398E+03  0.51929346398E+03  0.00000000000E+00 0.  1.
         23    2    1    2    0    0  0.25008172708E+03 -0.20097664349E+02  0.25574434875E+03  0.36938405609E+03  0.89970120868E+02 0.  0.
         11    1    3    3    0    0  0.15802843111E+03 -0.37881722489E+02  0.11052491655E+03  0.19652930345E+03  0.00000000000E+00 0. -1.
        -11    1    3    3    0    0  0.92053295974E+02  0.17784058141E+02  0.14521943220E+03  0.17285475264E+03  0.00000000000E+00 0.  1.
         22    1    1    2    0    0 -0.25008172708E+03  0.20097664349E+02 -0.42844745999E+03  0.49649976063E+03  0.00000000000E+00 0.  1.
<mgrwt>
<rscale>  0 0.84848596E+03</rscale>
<asrwt>0</asrwt>
<pdfrwt beam="1">  1        2 0.79891302E-01 0.84848596E+03</pdfrwt>
<pdfrwt beam="2">  1       -2 0.53321593E-01 0.84848596E+03</pdfrwt>
<totfact> 0.19643540E+02</totfact>
</mgrwt>
</event>
<event>
 6    1  0.2325157E-005  0.4078066E+04  0.7818608E-02  0.7988981E-01
          2   -1    0    0  501    0  0.00000000000E+00  0.00000000000E+00  0.31514582908E+04  0.31514582908E+04  0.00000000000E+00 0.  1.
         -2   -1    0    0    0  501 -0.00000000000E+00 -0.00000000000E+00 -0.13192801585E+04  0.13192801585E+04  0.00000000000E+00 0. -1.
         23    2    1    2    0    0 -0.70606454538E+02 -0.90733795381E+03 -0.10831726535E+04  0.14166399508E+04  0.73200540015E+02 0.  0.
         13    1    3    3    0    0 -0.30650460469E+02 -0.24129779681E+03 -0.24396461308E+03  0.34450371537E+03  0.00000000000E+00 0. -1.
        -13    1    3    3    0    0 -0.39955994069E+02 -0.66604015701E+03 -0.83920804045E+03  0.10721362354E+04  0.00000000000E+00 0.  1.
         22    1    1    2    0    0  0.70606454538E+02  0.90733795381E+03  0.29153507858E+04  0.30540984984E+04  0.00000000000E+00 0.  1.
<mgrwt>
<rscale>  0 0.40780664E+04</rscale>
<asrwt>0</asrwt>
<pdfrwt beam="1">  1        2 0.48483974E+00 0.40780664E+04</pdfrwt>
<pdfrwt beam="2">  1       -2 0.20296618E+00 0.40780664E+04</pdfrwt>
<totfact> 0.13890436E-01</totfact>
</mgrwt>
</event>
<event>
 6    1  0.2325157E-005  0.1124357E+04  0.7818608E-02  0.9181771E-01
         -2   -1    0    0    0  501 -0.00000000000E+00  0.00000000000E+00  0.19156667344E+04  0.19156667344E+04  0.00000000000E+00 0. -1.
          2   -1    0    0  501    0  0.00000000000E+00 -0.00000000000E+00 -0.16497903560E+03  0.16497903560E+03  0.00000000000E+00 0.  1.
         23    2    1    2    0    0 -0.11222018656E+03 -0.48337059680E+03  0.13553259460E+04  0.14461763699E+04  0.90978947056E+02 0.  0.
         13    1    3    3    0    0 -0.48883365111E+02 -0.30514985586E+03  0.72590630588E+03  0.78895245917E+03  0.00000000000E+00 0.  1.
        -13    1    3    3    0    0 -0.63336821451E+02 -0.17822074093E+03  0.62941964010E+03  0.65722391070E+03  0.00000000000E+00 0. -1.
         22    1    1    2    0    0  0.11222018656E+03  0.48337059680E+03  0.39536175283E+03  0.63446940015E+03  0.00000000000E+00 0.  1.
<mgrwt>
<rscale>  0 0.11243573E+04</rscale>
<asrwt>0</asrwt>
<pdfrwt beam="1">  1        2 0.25381391E-01 0.11243573E+04</pdfrwt>
<pdfrwt beam="2">  1       -2 0.29471794E+00 0.11243573E+04</pdfrwt>
<totfact> 0.73895839E+00</totfact>
</mgrwt>
</event>
<event>
 6    1  0.2664778E-005  0.2913289E+04  0.7818608E-02  0.8268935E-01
          2   -1    0    0  501    0  0.00000000000E+00  0.00000000000E+00  0.24020770570E+04  0.24020770570E+04  0.00000000000E+00 0.  1.
         -2   -1    0    0    0  501 -0.00000000000E+00 -0.00000000000E+00 -0.88332441338E+03  0.88332441338E+03  0.00000000000E+00 0. -1.
         23    2    1    2    0    0 -0.72672399731E+03  0.48737750042E+03  0.20713825600E+04  0.22504790479E+04  0.91463867410E+02 0.  0.
         13    1    3    3    0    0 -0.40853479109E+03  0.32609307264E+03  0.12616354118E+04  0.13656358518E+04  0.00000000000E+00 0.  1.
        -13    1    3    3    0    0 -0.31818920622E+03  0.16128442779E+03  0.80974714825E+03  0.88484319611E+03  0.00000000000E+00 0. -1.
         22    1    1    2    0    0  0.72672399731E+03 -0.48737750042E+03 -0.55262991634E+03  0.10349224225E+04  0.00000000000E+00 0. -1.
<mgrwt>
<rscale>  0 0.29132891E+04</rscale>
<asrwt>0</asrwt>
<pdfrwt beam="1">  1        2 0.36955031E+00 0.29132891E+04</pdfrwt>
<pdfrwt beam="2">  1       -2 0.13589606E+00 0.29132891E+04</pdfrwt>
<totfact> 0.13255940E+00</totfact>
</mgrwt>
</event>
<event>
 6    1  0.2325157E-005  0.1657018E+04  0.7818608E-02  0.8786265E-01
          2   -1    0    0  501    0  0.00000000000E+00  0.00000000000E+00  0.15852653689E+04  0.15852653689E+04  0.00000000000E+00 0.  1.
         -2   -1    0    0    0  501 -0.00000000000E+00 -0.00000000000E+00 -0.43300477451E+03  0.43300477451E+03  0.00000000000E+00 0. -1.
         23    2    1    2    0    0 -0.79298355099E+03 -0.23003774245E+03  0.60873292893E+03  0.10297547929E+04  0.89993775339E+02 0.  0.
         13    1    3    3    0    0 -0.36453204871E+03 -0.71853862067E+02  0.31132703219E+03  0.48473819016E+03  0.00000000000E+00 0. -1.
        -13    1    3    3    0    0 -0.42845150228E+03 -0.15818388038E+03  0.29740589674E+03  0.54501660271E+03  0.00000000000E+00 0.  1.
         22    1    1    2    0    0  0.79298355099E+03  0.23003774245E+03  0.54352766543E+03  0.98851535050E+03  0.00000000000E+00 0. -1.
<mgrwt>
<rscale>  0 0.16570184E+04</rscale>
<asrwt>0</asrwt>
<pdfrwt beam="1">  1        2 0.24388698E+00 0.16570184E+04</pdfrwt>
<pdfrwt beam="2">  1       -2 0.66616120E-01 0.16570184E+04</pdfrwt>
<totfact> 0.22465176E+01</totfact>
</mgrwt>
</event>
<event>
 6    1  0.2325157E-005  0.2331226E+04  0.7818608E-02  0.8465710E-01
          2   -1    0    0  501    0  0.00000000000E+00  0.00000000000E+00  0.23578529222E+04  0.23578529222E+04  0.00000000000E+00 0.  1.
         -2   -1    0    0    0  501 -0.00000000000E+00 -0.00000000000E+00 -0.57622517506E+03  0.57622517506E+03  0.00000000000E+00 0. -1.
         23    2    1    2    0    0  0.10005312031E+04 -0.52620592595E+03  0.54285867401E+03  0.12570258675E+04  0.86389390299E+02 0.  0.
         11    1    3    3    0    0  0.36752464204E+03 -0.18550291317E+03  0.24355676990E+03  0.47833627655E+03  0.00000000000E+00 0. -1.
        -11    1    3    3    0    0  0.63300656104E+03 -0.34070301277E+03  0.29930190411E+03  0.77868959094E+03  0.00000000000E+00 0.  1.
         22    1    1    2    0    0 -0.10005312031E+04  0.52620592595E+03  0.12387690732E+04  0.16770522298E+04  0.00000000000E+00 0.  1.
<mgrwt>
<rscale>  0 0.23312265E+04</rscale>
<asrwt>0</asrwt>
<pdfrwt beam="1">  1        2 0.36274660E+00 0.23312265E+04</pdfrwt>
<pdfrwt beam="2">  1       -2 0.88650028E-01 0.23312265E+04</pdfrwt>
<totfact> 0.41581359E+00</totfact>
</mgrwt>
</event>
<event>
 6    1  0.2325157E-005  0.1191047E+04  0.7818608E-02  0.9120729E-01
         -2   -1    0    0    0  501 -0.00000000000E+00  0.00000000000E+00  0.54904677388E+03  0.54904677388E+03  0.00000000000E+00 0. -1.
          2   -1    0    0  501    0  0.00000000000E+00 -0.00000000000E+00 -0.64593446799E+03  0.64593446799E+03  0.00000000000E+00 0.  1.
         23    2    1    2    0    0 -0.13818447577E+03 -0.32505392793E+03  0.42781485235E+03  0.56247213706E+03  0.92705726226E+02 0.  0.
         11    1    3    3    0    0 -0.17972191747E+02 -0.15349102471E+03  0.20380865999E+03  0.25577424466E+03  0.00000000000E+00 0. -1.
        -11    1    3    3    0    0 -0.12021228402E+03 -0.17156290321E+03  0.22400619236E+03  0.30669789240E+03  0.00000000000E+00 0.  1.
         22    1    1    2    0    0  0.13818447577E+03  0.32505392793E+03 -0.52470254647E+03  0.63250910481E+03  0.00000000000E+00 0.  1.
<mgrwt>
<rscale>  0 0.11910470E+04</rscale>
<asrwt>0</asrwt>
<pdfrwt beam="1">  1        2 0.99374534E-01 0.11910470E+04</pdfrwt>
<pdfrwt beam="2">  1       -2 0.84468734E-01 0.11910470E+04</pdfrwt>
<totfact> 0.54708275E+01</totfact>
</mgrwt>
</event>
<event>
 6    1  0.2325157E-005  0.2923192E+04  0.7818608E-02  0.8266010E-01
          2   -1    0    0  501    0  0.00000000000E+00  0.00000000000E+00  0.10094902707E+04  0.10094902707E+04  0.00000000000E+00 0.  1.
         -2   -1    0    0    0  501 -0.00000000000E+00 -0.00000000000E+00 -0.21161796287E+04  0.21161796287E+04  0.00000000000E+00 0. -1.
         23    2    1    2    0    0  0.11665934874E+04  0.85491196096E+03 -0.76812449237E+03  0.16402605301E+04  0.92868428588E+02 0.  0.
         11    1    3    3    0    0  0.37720859531E+03  0.28246102642E+03 -0.29977565674E+03  0.55851230979E+03  0.00000000000E+00 0.  1.
        -11    1    3    3    0    0  0.78938489214E+03  0.57245093454E+03 -0.46834883564E+03  0.10817482203E+04  0.00000000000E+00 0. -1.
         22    1    1    2    0    0 -0.11665934874E+04 -0.85491196096E+03 -0.33856486559E+03  0.14854093692E+04  0.00000000000E+00 0.  1.
<mgrwt>
<rscale>  0 0.29231919E+04</rscale>
<asrwt>0</asrwt>
<pdfrwt beam="1">  1        2 0.15530619E+00 0.29231919E+04</pdfrwt>
<pdfrwt beam="2">  1       -2 0.32556610E+00 0.29231919E+04</pdfrwt>
<totfact> 0.47316838E-01</totfact>
</mgrwt>
</event>
<event>
 6    1  0.2325157E-005  0.8171505E+03  0.7818608E-02  0.9535519E-01
          2   -1    0    0  501    0  0.00000000000E+00  0.00000000000E+00  0.96035039673E+03  0.96035039673E+03  0.00000000000E+00 0.  1.
         -2   -1    0    0    0  501 -0.00000000000E+00 -0.00000000000E+00 -0.17382585802E+03  0.17382585802E+03  0.00000000000E+00 0. -1.
         23    2    1    2    0    0 -0.10041115544E+03  0.24968153637E+03  0.81519810855E+03  0.86353730089E+03  0.93410085722E+02 0.  0.
         13    1    3    3    0    0 -0.96392138839E+02  0.15036684669E+03  0.60868147885E+03  0.63434594324E+03  0.00000000000E+00 0.  1.
        -13    1    3    3    0    0 -0.40190166006E+01  0.99314689676E+02  0.20651662970E+03  0.22919135765E+03  0.00000000000E+00 0. -1.
         22    1    1    2    0    0  0.10041115544E+03 -0.24968153637E+03 -0.28673569843E+02  0.27063895386E+03  0.00000000000E+00 0. -1.
<mgrwt>
<rscale>  0 0.81715049E+03</rscale>
<asrwt>0</asrwt>
<pdfrwt beam="1">  1        2 0.14774621E+00 0.81715049E+03</pdfrwt>
<pdfrwt beam="2">  1       -2 0.26742440E-01 0.81715049E+03</pdfrwt>
<totfact> 0.34025202E+02</totfact>
</mgrwt>
</event>
<event>
 6    1  0.2325157E-005  0.2419520E+04  0.7818608E-02  0.8432232E-01
         -2   -1    0    0    0  501 -0.00000000000E+00  0.00000000000E+00  0.44914544500E+03  0.44914544500E+03  0.00000000000E+00 0. -1.
          2   -1    0    0  501    0  0.00000000000E+00 -0.00000000000E+00 -0.32584527946E+04  0.32584527946E+04  0.00000000000E+00 0.  1.
         23    2    1    2    0    0  0.71851331124E+03 -0.94635972916E+03 -0.10727801515E+04  0.16034630669E+04  0.91533807645E+02 0.  0.
         11    1    3    3    0    0  0.58676423364E+03 -0.74221769854E+03 -0.80917897957E+03  0.12449698787E+04  0.00000000000E+00 0.  1.
        -11    1    3    3    0    0  0.13174907760E+03 -0.20414203062E+03 -0.26360117193E+03  0.35849318816E+03  0.00000000000E+00 0. -1.
         22    1    1    2    0    0 -0.71851331124E+03  0.94635972916E+03 -0.17365271981E+04  0.21041351728E+04  0.00000000000E+00 0. -1.
<mgrwt>
<rscale>  0 0.24195200E+04</rscale>
<asrwt>0</asrwt>
<pdfrwt beam="1">  1        2 0.50130044E+00 0.24195200E+04</pdfrwt>
<pdfrwt beam="2">  1       -2 0.69099298E-01 0.24195200E+04</pdfrwt>
<totfact> 0.20398528E+00</totfact>
</mgrwt>
</event>
<event>
 6    1  0.2325157E-005  0.9383044E+03  0.7818608E-02  0.9378926E-01
          2   -1    0    0  501    0  0.00000000000E+00  0.00000000000E+00  0.60122741115E+03  0.60122741115E+03  0.00000000000E+00 0.  1.
         -2   -1    0    0    0  501 -0.00000000000E+00 -0.00000000000E+00 -0.36609074919E+03  0.36609074919E+03  0.00000000000E+00 0. -1.
         23    2    1    2    0    0  0.20517027202E+03  0.14493578775E+03  0.52168585125E+03  0.58625168192E+03  0.91835091688E+02 0.  0.
         13    1    3    3    0    0  0.89552480304E+02  0.82453765148E+02  0.34642730792E+03  0.36719225181E+03  0.00000000000E+00 0. -1.
        -13    1    3    3    0    0  0.11561779172E+03  0.62482022604E+02  0.17525854333E+03  0.21905943011E+03  0.00000000000E+00 0.  1.
         22    1    1    2    0    0 -0.20517027202E+03 -0.14493578775E+03 -0.28654918929E+03  0.38106647842E+03  0.00000000000E+00 0. -1.
<mgrwt>
<rscale>  0 0.93830441E+03</rscale>
<asrwt>0</asrwt>
<pdfrwt beam="1">  1        2 0.92496525E-01 0.93830441E+03</pdfrwt>
<pdfrwt beam="2">  1       -2 0.56321654E-01 0.93830441E+03</pdfrwt>
<totfact> 0.14666278E+02</totfact>
</mgrwt>
</event>
<event>
 6    1  0.2325157E-005  0.1310413E+04  0.7818608E-02  0.9021348E-01
          2   -1    0    0  501    0  0.00000000000E+00  0.00000000000E+00  0.11408669195E+04  0.11408669195E+04  0.00000000000E+00 0.  1.
         -2   -1    0    0    0  501 -0.00000000000E+00 -0.00000000000E+00 -0.37628910560E+03  0.37628910560E+03  0.00000000000E+00 0. -1.
         23    2    1    2    0    0  0.29248044061E+03  0.50240744539E+03  0.72609827355E+03  0.93454232430E+03  0.90513003078E+02 0.  0.
         11    1    3    3    0    0  0.56594414750E+02  0.12018316191E+03  0.22770986166E+03  0.26362606336E+03  0.00000000000E+00 0.  1.
        -11    1    3    3    0    0  0.23588602586E+03  0.38222428348E+03  0.49838841189E+03  0.67091626094E+03  0.00000000000E+00 0. -1.
         22    1    1    2    0    0 -0.29248044061E+03 -0.50240744539E+03  0.38479540334E+02  0.58261370079E+03  0.00000000000E+00 0. -1.
<mgrwt>
<rscale>  0 0.13104134E+04</rscale>
<asrwt>0</asrwt>
<pdfrwt beam="1">  1        2 0.17551799E+00 0.13104134E+04</pdfrwt>
<pdfrwt beam="2">  1       -2 0.57890632E-01 0.13104134E+04</pdfrwt>
<totfact> 0.56255750E+01</totfact>
</mgrwt>
</event>
<event>
 6    1  0.2325157E-005  0.3677671E+04  0.7818608E-02  0.8072928E-01
         -2   -1    0    0    0  501 -0.00000000000E+00  0.00000000000E+00  0.88935097291E+03  0.88935097291E+03  0.00000000000E+00 0. -1.
          2   -1    0    0  501    0  0.00000000000E+00 -0.00000000000E+00 -0.38020033684E+04  0.38020033684E+04  0.00000000000E+00 0.  1.
         23    2    1    2    0    0 -0.18209377050E+04  0.10269055739E+03 -0.17460989704E+04  0.25263586439E+04  0.85246156087E+02 0.  0.
         13    1    3    3    0    0 -0.49394729580E+03  0.46486864422E+02 -0.52126937655E+03  0.71962957313E+03  0.00000000000E+00 0. -1.
        -13    1    3    3    0    0 -0.13269904092E+04  0.56203692968E+02 -0.12248295938E+04  0.18067290708E+04  0.00000000000E+00 0.  1.
         22    1    1    2    0    0  0.18209377050E+04 -0.10269055739E+03 -0.11665534251E+04  0.21649956974E+04  0.00000000000E+00 0.  1.
<mgrwt>
<rscale>  0 0.36776707E+04</rscale>
<asrwt>0</asrwt>
<pdfrwt beam="1">  1        2 0.58492359E+00 0.36776707E+04</pdfrwt>
<pdfrwt beam="2">  1       -2 0.13682323E+00 0.36776707E+04</pdfrwt>
<totfact> 0.15070480E-01</totfact>
</mgrwt>
</event>
<event>
 6    1  0.2325157E-005  0.2033887E+04  0.7818608E-02  0.8590939E-01
          2   -1    0    0  501    0  0.00000000000E+00  0.00000000000E+00  0.25561035480E+04  0.25561035480E+04  0.00000000000E+00 0.  1.
         -2   -1    0    0    0  501 -0.00000000000E+00 -0.00000000000E+00 -0.40458998841E+03  0.40458998841E+03  0.00000000000E+00 0. -1.
         23    2    1    2    0    0 -0.33796574546E+03 -0.12997206492E+03  0.24580662580E+04  0.24862589891E+04  0.90996973000E+02 0.  0.
         11    1    3    3    0    0 -0.22797309742E+03 -0.75080316154E+02  0.13269572903E+04  0.13484896875E+04  0.00000000000E+00 0.  1.
        -11    1    3    3    0    0 -0.10999264804E+03 -0.54891748762E+02  0.11311089677E+04  0.11377693016E+04  0.00000000000E+00 0. -1.
         22    1    1    2    0    0  0.33796574546E+03  0.12997206492E+03 -0.30655269845E+03  0.47443454732E+03  0.00000000000E+00 0. -1.
<mgrwt>
<rscale>  0 0.20338868E+04</rscale>
<asrwt>0</asrwt>
<pdfrwt beam="1">  1        2 0.39324669E+00 0.20338868E+04</pdfrwt>
<pdfrwt beam="2">  1       -2 0.62244615E-01 0.20338868E+04</pdfrwt>
<totfact> 0.71706985E+00</totfact>
</mgrwt>
</event>
<event>
 6    1  0.2325157E-005  0.2142275E+04  0.7818608E-02  0.8542846E-01
          2   -1    0    0  501    0  0.00000000000E+00  0.00000000000E+00  0.12702716472E+04  0.12702716472E+04  0.00000000000E+00 0.  1.
         -2   -1    0    0    0  501 -0.00000000000E+00 -0.00000000000E+00 -0.90322087546E+03  0.90322087546E+03  0.00000000000E+00 0. -1.
         23    2    1    2    0    0 -0.10302757996E+04 -0.28138716235E+03  0.13099388217E+03  0.10797056085E+04  0.89206756415E+02 0.  0.
         11    1    3    3    0    0 -0.31470582776E+03 -0.43752143465E+02  0.38283727470E+02  0.32003070458E+03  0.00000000000E+00 0.  1.
        -11    1    3    3    0    0 -0.71556997189E+03 -0.23763501888E+03  0.92710154705E+02  0.75967490393E+03  0.00000000000E+00 0. -1.
         22    1    1    2    0    0  0.10302757996E+04  0.28138716235E+03  0.23605688956E+03  0.10937869142E+04  0.00000000000E+00 0.  1.
<mgrwt>
<rscale>  0 0.21422753E+04</rscale>
<asrwt>0</asrwt>
<pdfrwt beam="1">  1        2 0.19542641E+00 0.21422753E+04</pdfrwt>
<pdfrwt beam="2">  1       -2 0.13895706E+00 0.21422753E+04</pdfrwt>
<totfact> 0.57880981E+00</totfact>
</mgrwt>
</event>
<event>
 6    1  0.2325157E-005  0.9604096E+03  0.7818608E-02  0.9353065E-01
          2   -1    0    0  501    0  0.00000000000E+00  0.00000000000E+00  0.32297855468E+04  0.32297855468E+04  0.00000000000E+00 0.  1.
         -2   -1    0    0    0  501 -0.00000000000E+00 -0.00000000000E+00 -0.71396898256E+02  0.71396898256E+02  0.00000000000E+00 0. -1.
         23    2    1    2    0    0  0.23458797118E+03  0.38248248877E+03  0.21379806384E+04  0.21864820918E+04  0.91751605147E+02 0.  0.
         13    1    3    3    0    0  0.10521613240E+03  0.12544174042E+03  0.60704300632E+03  0.62873466285E+03  0.00000000000E+00 0. -1.
        -13    1    3    3    0    0  0.12937183877E+03  0.25704074835E+03  0.15309376321E+04  0.15577474290E+04  0.00000000000E+00 0.  1.
         22    1    1    2    0    0 -0.23458797118E+03 -0.38248248877E+03  0.10204080101E+04  0.11147003533E+04  0.00000000000E+00 0. -1.
<mgrwt>
<rscale>  0 0.96040964E+03</rscale>
<asrwt>0</asrwt>
<pdfrwt beam="1">  1        2 0.49688997E+00 0.96040964E+03</pdfrwt>
<pdfrwt beam="2">  1       -2 0.10984141E-01 0.96040964E+03</pdfrwt>
<totfact> 0.75706299E+01</totfact>
</mgrwt>
</event>
<event>
 6    1  0.2325157E-005  0.1889457E+04  0.7818608E-02  0.8660122E-01
          2   -1    0    0  501    0  0.00000000000E+00  0.00000000000E+00  0.48387626457E+03  0.48387626457E+03  0.00000000000E+00 0.  1.
         -2   -1    0    0    0  501 -0.00000000000E+00 -0.00000000000E+00 -0.18445035578E+04  0.18445035578E+04  0.00000000000E+00 0. -1.
         23    2    1    2    0    0 -0.22326156748E+03 -0.35603816004E+03 -0.17215483533E+04  0.17744187132E+04  0.90687033756E+02 0.  0.
         13    1    3    3    0    0 -0.43941438715E+02 -0.13086314972E+03 -0.67717133253E+03  0.69109842106E+03  0.00000000000E+00 0.  1.
        -13    1    3    3    0    0 -0.17932012877E+03 -0.22517501032E+03 -0.10443770207E+04  0.10833202921E+04  0.00000000000E+00 0. -1.
         22    1    1    2    0    0  0.22326156748E+03  0.35603816004E+03  0.36092106004E+03  0.55396110919E+03  0.00000000000E+00 0.  1.
<mgrwt>
<rscale>  0 0.18894565E+04</rscale>
<asrwt>0</asrwt>
<pdfrwt beam="1">  1        2 0.74442502E-01 0.18894565E+04</pdfrwt>
<pdfrwt beam="2">  1       -2 0.28376978E+00 0.18894565E+04</pdfrwt>
<totfact> 0.23968800E+00</totfact>
</mgrwt>
</event>
<event>
 6    1  0.2325157E-005  0.9402939E+03  0.7818608E-02  0.9376568E-01
         -2   -1    0    0    0  501 -0.00000000000E+00  0.00000000000E+00  0.13907456149E+03  0.13907456149E+03  0.00000000000E+00 0. -1.
          2   -1    0    0  501    0  0.00000000000E+00 -0.00000000000E+00 -0.15893498933E+04  0.15893498933E+04  0.00000000000E+00 0.  1.
         23    2    1    2    0    0 -0.34562012230E+03 -0.13403468729E+03 -0.12500381720E+04  0.13071009609E+04  0.92189610233E+02 0.  0.
         13    1    3    3    0    0 -0.27958682687E+02 -0.14588490210E+02 -0.22845532201E+03  0.23062165150E+03  0.00000000000E+00 0.  1.
        -13    1    3    3    0    0 -0.31766143962E+03 -0.11944619708E+03 -0.10215828499E+04  0.10764793094E+04  0.00000000000E+00 0. -1.
         22    1    1    2    0    0  0.34562012230E+03  0.13403468729E+03 -0.20023715987E+03  0.42132349392E+03  0.00000000000E+00 0. -1.
<mgrwt>
<rscale>  0 0.94029387E+03</rscale>
<asrwt>0</asrwt>
<pdfrwt beam="1">  1        2 0.24451537E+00 0.94029387E+03</pdfrwt>
<pdfrwt beam="2">  1       -2 0.21396086E-01 0.94029387E+03</pdfrwt>
<totfact> 0.21477977E+02</totfact>
</mgrwt>
</event>
<event>
 6    1  0.2325157E-005  0.1343440E+04  0.7818608E-02  0.8995809E-01
         -2   -1    0    0    0  501 -0.00000000000E+00  0.00000000000E+00  0.36402701698E+03  0.36402701698E+03  0.00000000000E+00 0. -1.
          2   -1    0    0  501    0  0.00000000000E+00 -0.00000000000E+00 -0.12394901668E+04  0.12394901668E+04  0.00000000000E+00 0.  1.
         23    2    1    2    0    0  0.17062510056E+03 -0.12784773093E+03 -0.11960824276E+04  0.12184786292E+04  0.92838725651E+02 0.  0.
         13    1    3    3    0    0  0.14127754879E+03 -0.14133348339E+03 -0.10532425073E+04  0.10720327786E+04  0.00000000000E+00 0.  1.
        -13    1    3    3    0    0  0.29347551767E+02  0.13485752461E+02 -0.14283992029E+03  0.14644585055E+03  0.00000000000E+00 0. -1.
         22    1    1    2    0    0 -0.17062510056E+03  0.12784773093E+03  0.32061927777E+03  0.38503855459E+03  0.00000000000E+00 0. -1.
<mgrwt>
<rscale>  0 0.13434402E+04</rscale>
<asrwt>0</asrwt>
<pdfrwt beam="1">  1        2 0.19069079E+00 0.13434402E+04</pdfrwt>
<pdfrwt beam="2">  1       -2 0.56004157E-01 0.13434402E+04</pdfrwt>
<totfact> 0.52489026E+01</totfact>
</mgrwt>
</event>
<event>
 6    1  0.2325157E-005  0.1812074E+04  0.7818608E-02  0.8699905E-01
          2   -1    0    0  501    0  0.00000000000E+00  0.00000000000E+00  0.16933502650E+04  0.16933502650E+04  0.00000000000E+00 0.  1.
         -2   -1    0    0    0  501 -0.00000000000E+00 -0.00000000000E+00 -0.48478034528E+03  0.48478034528E+03  0.00000000000E+00 0. -1.
         23    2    1    2    0    0  0.23778097543E+03  0.77193448000E+03  0.10929791827E+04  0.13621748197E+04  0.92163506219E+02 0.  0.
         13    1    3    3    0    0  0.96080192999E+02  0.46121807767E+03  0.65320267685E+03  0.80537398499E+03  0.00000000000E+00 0. -1.
        -13    1    3    3    0    0  0.14170078243E+03  0.31071640233E+03  0.43977650586E+03  0.55680083470E+03  0.00000000000E+00 0.  1.
         22    1    1    2    0    0 -0.23778097543E+03 -0.77193448000E+03  0.11559073700E+03  0.81595579058E+03  0.00000000000E+00 0. -1.
<mgrwt>
<rscale>  0 0.18120739E+04</rscale>
<asrwt>0</asrwt>
<pdfrwt beam="1">  1        2 0.26051542E+00 0.18120739E+04</pdfrwt>
<pdfrwt beam="2">  1       -2 0.74581592E-01 0.18120739E+04</pdfrwt>
<totfact> 0.15080728E+01</totfact>
</mgrwt>
</event>
<event>
 6    1  0.2325157E-005  0.2967311E+04  0.7818608E-02  0.8253127E-01
          2   -1    0    0  501    0  0.00000000000E+00  0.00000000000E+00  0.13350812796E+04  0.13350812796E+04  0.00000000000E+00 0.  1.
         -2   -1    0    0    0  501 -0.00000000000E+00 -0.00000000000E+00 -0.16487638218E+04  0.16487638218E+04  0.00000000000E+00 0. -1.
         23    2    1    2    0    0  0.46100280313E+02 -0.92299424064E+03  0.10083595490E+04  0.13708234354E+04  0.91237640802E+02 0.  0.
         13    1    3    3    0    0  0.60216314611E+02 -0.38237609262E+03  0.44789521113E+03  0.59198614925E+03  0.00000000000E+00 0.  1.
        -13    1    3    3    0    0 -0.14116034298E+02 -0.54061814802E+03  0.56046433783E+03  0.77883728619E+03  0.00000000000E+00 0. -1.
         22    1    1    2    0    0 -0.46100280313E+02  0.92299424064E+03 -0.13220420912E+04  0.16130216660E+04  0.00000000000E+00 0. -1.
<mgrwt>
<rscale>  0 0.29673110E+04</rscale>
<asrwt>0</asrwt>
<pdfrwt beam="1">  1        2 0.20539712E+00 0.29673110E+04</pdfrwt>
<pdfrwt beam="2">  1       -2 0.25365597E+00 0.29673110E+04</pdfrwt>
<totfact> 0.82607937E-01</totfact>
</mgrwt>
</event>
<event>
 6    1  0.2325157E-005  0.1988915E+04  0.7818608E-02  0.8611821E-01
         -2   -1    0    0    0  501 -0.00000000000E+00  0.00000000000E+00  0.14224569952E+04  0.14224569952E+04  0.00000000000E+00 0. -1.
          2   -1    0    0  501    0  0.00000000000E+00 -0.00000000000E+00 -0.69523768939E+03  0.69523768939E+03  0.00000000000E+00 0.  1.
         23    2    1    2    0    0  0.41791169510E+03  0.79693897234E+03 -0.81483145278E+02  0.90783454187E+03  0.88103018727E+02 0.  0.
         13    1    3    3    0    0  0.32381796046E+03  0.63868934601E+03 -0.30240931956E+02  0.71672635377E+03  0.00000000000E+00 0.  1.
        -13    1    3    3    0    0  0.94093734638E+02  0.15824962634E+03 -0.51242213323E+02  0.19110818810E+03  0.00000000000E+00 0. -1.
         22    1    1    2    0    0 -0.41791169510E+03 -0.79693897234E+03  0.80870245109E+03  0.12098601427E+04  0.00000000000E+00 0. -1.
<mgrwt>
<rscale>  0 0.19889150E+04</rscale>
<asrwt>0</asrwt>
<pdfrwt beam="1">  1        2 0.10695964E+00 0.19889150E+04</pdfrwt>
<pdfrwt beam="2">  1       -2 0.21883954E+00 0.19889150E+04</pdfrwt>
<totfact> 0.38612137E+00</totfact>
</mgrwt>
</event>
<event>
 6    1  0.2325157E-005  0.1378245E+04  0.7818608E-02  0.8969718E-01
          2   -1    0    0  501    0  0.00000000000E+00  0.00000000000E+00  0.88295171537E+03  0.88295171537E+03  0.00000000000E+00 0.  1.
         -2   -1    0    0    0  501 -0.00000000000E+00 -0.00000000000E+00 -0.53784318373E+03  0.53784318373E+03  0.00000000000E+00 0. -1.
         23    2    1    2    0    0  0.91108487764E+01  0.35577385674E+03 -0.43133896582E+03  0.56667034084E+03  0.91672935208E+02 0.  0.
         11    1    3    3    0    0 -0.30036042764E+02  0.12510396793E+03 -0.11059770793E+03  0.16966148548E+03  0.00000000000E+00 0. -1.
        -11    1    3    3    0    0  0.39146891540E+02  0.23066988881E+03 -0.32074125789E+03  0.39700885536E+03  0.00000000000E+00 0.  1.
         22    1    1    2    0    0 -0.91108487764E+01 -0.35577385674E+03  0.77644749746E+03  0.85412455826E+03  0.00000000000E+00 0.  1.
<mgrwt>
<rscale>  0 0.13782446E+04</rscale>
<asrwt>0</asrwt>
<pdfrwt beam="1">  1        2 0.13583872E+00 0.13782446E+04</pdfrwt>
<pdfrwt beam="2">  1       -2 0.82745106E-01 0.13782446E+04</pdfrwt>
<totfact> 0.37615373E+01</totfact>
</mgrwt>
</event>
<event>
 6    1  0.2325157E-005  0.3317894E+04  0.7818608E-02  0.8158357E-01
          1   -1    0    0  501    0  0.00000000000E+00  0.00000000000E+00  0.28371477145E+04  0.28371477145E+04  0.00000000000E+00 0.  1.
         -1   -1    0    0    0  501 -0.00000000000E+00 -0.00000000000E+00 -0.97002544264E+03  0.97002544264E+03  0.00000000000E+00 0. -1.
         23    2    1    2    0    0  0.34091433210E+03 -0.10444879445E+04  0.23585378520E+04  0.26035673578E+04  0.93190873779E+02 0.  0.
         11    1    3    3    0    0  0.13141963951E+03 -0.41124147706E+03  0.82124918557E+03  0.92781512107E+03  0.00000000000E+00 0.  1.
        -11    1    3    3    0    0  0.20949469260E+03 -0.63324646741E+03  0.15372886665E+04  0.16757522367E+04  0.00000000000E+00 0. -1.
         22    1    1    2    0    0 -0.34091433210E+03  0.10444879445E+04 -0.49141558014E+03  0.12036057994E+04  0.00000000000E+00 0. -1.
<mgrwt>
<rscale>  0 0.33178942E+04</rscale>
<asrwt>0</asrwt>
<pdfrwt beam="1">  1        1 0.43648426E+00 0.33178942E+04</pdfrwt>
<pdfrwt beam="2">  1       -1 0.14923468E+00 0.33178942E+04</pdfrwt>
<totfact> 0.22958098E-01</totfact>
</mgrwt>
</event>
<event>
 6    1  0.2325157E-005  0.2903276E+04  0.7818608E-02  0.8271903E-01
         -2   -1    0    0    0  501 -0.00000000000E+00  0.00000000000E+00  0.83732974486E+03  0.83732974486E+03  0.00000000000E+00 0. -1.
          2   -1    0    0  501    0  0.00000000000E+00 -0.00000000000E+00 -0.25166348930E+04  0.25166348930E+04  0.00000000000E+00 0.  1.
         23    2    1    2    0    0  0.45984553054E+03 -0.13746760289E+04 -0.89071762892E+03  0.17037942310E+04  0.91349825356E+02 0.  0.
         11    1    3    3    0    0  0.36858792260E+03 -0.11213892610E+04 -0.68313528338E+03  0.13638345745E+04  0.00000000000E+00 0.  1.
        -11    1    3    3    0    0  0.91257607938E+02 -0.25328676795E+03 -0.20758234554E+03  0.33995965644E+03  0.00000000000E+00 0. -1.
         22    1    1    2    0    0 -0.45984553054E+03  0.13746760289E+04 -0.78858751924E+03  0.16501704069E+04  0.00000000000E+00 0.  1.
<mgrwt>
<rscale>  0 0.29032763E+04</rscale>
<asrwt>0</asrwt>
<pdfrwt beam="1">  1        2 0.38717460E+00 0.29032763E+04</pdfrwt>
<pdfrwt beam="2">  1       -2 0.12881996E+00 0.29032763E+04</pdfrwt>
<totfact> 0.13052719E+00</totfact>
</mgrwt>
</event>
<event>
 6    1  0.2325157E-005  0.2623872E+04  0.7818608E-02  0.8360137E-01
          2   -1    0    0  501    0  0.00000000000E+00  0.00000000000E+00  0.14412453800E+04  0.14412453800E+04  0.00000000000E+00 0.  1.
         -2   -1    0    0    0  501 -0.00000000000E+00 -0.00000000000E+00 -0.11942282363E+04  0.11942282363E+04  0.00000000000E+00 0. -1.
         23    2    1    2    0    0  0.70926766340E+02 -0.56039102725E+03 -0.10639270212E+04  0.12080131745E+04  0.91029741636E+02 0.  0.
         13    1    3    3    0    0  0.82349078368E+02 -0.29854367918E+03 -0.59754674759E+03  0.67303180804E+03  0.00000000000E+00 0. -1.
        -13    1    3    3    0    0 -0.11422312028E+02 -0.26184734806E+03 -0.46638027359E+03  0.53498136649E+03  0.00000000000E+00 0.  1.
         22    1    1    2    0    0 -0.70926766340E+02  0.56039102725E+03  0.13109441649E+04  0.14274604418E+04  0.00000000000E+00 0.  1.
<mgrwt>
<rscale>  0 0.26238719E+04</rscale>
<asrwt>0</asrwt>
<pdfrwt beam="1">  1        2 0.22173006E+00 0.26238719E+04</pdfrwt>
<pdfrwt beam="2">  1       -2 0.18372742E+00 0.26238719E+04</pdfrwt>
<totfact> 0.20686382E+00</totfact>
</mgrwt>
</event>
<event>
 6    1  0.2325157E-005  0.1581648E+04  0.7818608E-02  0.8831902E-01
         -2   -1    0    0    0  501 -0.00000000000E+00  0.00000000000E+00  0.44604958461E+03  0.44604958461E+03  0.00000000000E+00 0. -1.
          2   -1    0    0  501    0  0.00000000000E+00 -0.00000000000E+00 -0.14020924400E+04  0.14020924400E+04  0.00000000000E+00 0.  1.
         23    2    1    2    0    0  0.31650120103E+03 -0.13996968385E+03 -0.13071268609E+04  0.13551668714E+04  0.90178136254E+02 0.  0.
         11    1    3    3    0    0  0.15749662706E+03 -0.93621963969E+02 -0.83400026846E+03  0.85388916580E+03  0.00000000000E+00 0.  1.
        -11    1    3    3    0    0  0.15900457398E+03 -0.46347719882E+02 -0.47312659246E+03  0.50127770564E+03  0.00000000000E+00 0. -1.
         22    1    1    2    0    0 -0.31650120103E+03  0.13996968385E+03  0.35108400556E+03  0.49297515314E+03  0.00000000000E+00 0. -1.
<mgrwt>
<rscale>  0 0.15816482E+04</rscale>
<asrwt>0</asrwt>
<pdfrwt beam="1">  1        2 0.21570653E+00 0.15816482E+04</pdfrwt>
<pdfrwt beam="2">  1       -2 0.68623014E-01 0.15816482E+04</pdfrwt>
<totfact> 0.26900099E+01</totfact>
</mgrwt>
</event>
<event>
 6    1  0.2325157E-005  0.3979405E+03  0.7818608E-02  0.1044495E+00
         -2   -1    0    0    0  501 -0.00000000000E+00  0.00000000000E+00  0.10367579036E+03  0.10367579036E+03  0.00000000000E+00 0. -1.
          2   -1    0    0  501    0  0.00000000000E+00 -0.00000000000E+00 -0.38185537899E+03  0.38185537899E+03  0.00000000000E+00 0.  1.
         23    2    1    2    0    0  0.15941145375E+03  0.88597413832E+02 -0.82976077036E+02  0.21838715526E+03  0.86870057539E+02 0.  0.
         13    1    3    3    0    0  0.16984879945E+03  0.88601858324E+02 -0.78434351729E+02  0.20700447219E+03  0.00000000000E+00 0.  1.
        -13    1    3    3    0    0 -0.10437345705E+02 -0.44444918165E-02 -0.45417253064E+01  0.11382683070E+02  0.00000000000E+00 0. -1.
         22    1    1    2    0    0 -0.15941145375E+03 -0.88597413832E+02 -0.19520351160E+03  0.26714401409E+03  0.00000000000E+00 0.  1.
<mgrwt>
<rscale>  0 0.39794049E+03</rscale>
<asrwt>0</asrwt>
<pdfrwt beam="1">  1        2 0.58746982E-01 0.39794049E+03</pdfrwt>
<pdfrwt beam="2">  1       -2 0.15950121E-01 0.39794049E+03</pdfrwt>
<totfact> 0.26109759E+03</totfact>
</mgrwt>
</event>
<event>
 6    1  0.2325157E-005  0.1163831E+04  0.7818608E-02  0.9145118E-01
         -2   -1    0    0    0  501 -0.00000000000E+00  0.00000000000E+00  0.64919228575E+03  0.64919228575E+03  0.00000000000E+00 0. -1.
          2   -1    0    0  501    0  0.00000000000E+00 -0.00000000000E+00 -0.52161054488E+03  0.52161054488E+03  0.00000000000E+00 0.  1.
         23    2    1    2    0    0  0.48247819556E+03 -0.29906671393E+03  0.16420322607E+03  0.60197311820E+03  0.11481649277E+03 0.  0.
         13    1    3    3    0    0  0.29113809487E+03 -0.14765164699E+03  0.14506608977E+03  0.35722061747E+03  0.00000000000E+00 0.  1.
        -13    1    3    3    0    0  0.19134010069E+03 -0.15141506694E+03  0.19137136300E+02  0.24475250073E+03  0.00000000000E+00 0. -1.
         22    1    1    2    0    0 -0.48247819556E+03  0.29906671393E+03 -0.36621485209E+02  0.56882971243E+03  0.00000000000E+00 0.  1.
<mgrwt>
<rscale>  0 0.11638308E+04</rscale>
<asrwt>0</asrwt>
<pdfrwt beam="1">  1        2 0.80247776E-01 0.11638308E+04</pdfrwt>
<pdfrwt beam="2">  1       -2 0.99875737E-01 0.11638308E+04</pdfrwt>
<totfact> 0.48030965E+01</totfact>
</mgrwt>
</event>
<event>
 6    1  0.2325157E-005  0.3695222E+04  0.7818608E-02  0.8069021E-01
          2   -1    0    0  501    0  0.00000000000E+00  0.00000000000E+00  0.31040075568E+04  0.31040075568E+04  0.00000000000E+00 0.  1.
         -2   -1    0    0    0  501 -0.00000000000E+00 -0.00000000000E+00 -0.10997610701E+04  0.10997610701E+04  0.00000000000E+00 0. -1.
         23    2    1    2    0    0  0.17488769687E+03 -0.32017344942E+03  0.30619472362E+04  0.30849176004E+04  0.89994332440E+02 0.  0.
         13    1    3    3    0    0  0.13600393794E+03 -0.28770705413E+03  0.28073869831E+04  0.28253661874E+04  0.00000000000E+00 0.  1.
        -13    1    3    3    0    0  0.38883758936E+02 -0.32466395287E+02  0.25456025310E+03  0.25955141300E+03  0.00000000000E+00 0. -1.
         22    1    1    2    0    0 -0.17488769687E+03  0.32017344942E+03 -0.10577007495E+04  0.11188510266E+04  0.00000000000E+00 0. -1.
<mgrwt>
<rscale>  0 0.36952221E+04</rscale>
<asrwt>0</asrwt>
<pdfrwt beam="1">  1        2 0.47753962E+00 0.36952221E+04</pdfrwt>
<pdfrwt beam="2">  1       -2 0.16919401E+00 0.36952221E+04</pdfrwt>
<totfact> 0.26106623E-01</totfact>
</mgrwt>
</event>
<event>
 6    1  0.2325157E-005  0.3184503E+04  0.7818608E-02  0.8192922E-01
          2   -1    0    0  501    0  0.00000000000E+00  0.00000000000E+00  0.16648794687E+04  0.16648794687E+04  0.00000000000E+00 0. -1.
         -2   -1    0    0    0  501 -0.00000000000E+00 -0.00000000000E+00 -0.15227913715E+04  0.15227913715E+04  0.00000000000E+00 0.  1.
         23    2    1    2    0    0 -0.60267248230E+03 -0.57529520365E+03 -0.12856287859E+04  0.15346269235E+04  0.89775981501E+02 0.  0.
         11    1    3    3    0    0 -0.47759551063E+03 -0.48231305676E+03 -0.98853087393E+03  0.11991316213E+04  0.00000000000E+00 0.  1.
        -11    1    3    3    0    0 -0.12507697167E+03 -0.92982146892E+02 -0.29709791198E+03  0.33549530218E+03  0.00000000000E+00 0. -1.
         22    1    1    2    0    0  0.60267248230E+03  0.57529520365E+03  0.14277168832E+04  0.16530439168E+04  0.00000000000E+00 0. -1.
<mgrwt>
<rscale>  0 0.31845025E+04</rscale>
<asrwt>0</asrwt>
<pdfrwt beam="1">  1        2 0.25613530E+00 0.31845025E+04</pdfrwt>
<pdfrwt beam="2">  1       -2 0.23427559E+00 0.31845025E+04</pdfrwt>
<totfact> 0.69545819E-01</totfact>
</mgrwt>
</event>
<event>
 6    1  0.2325157E-005  0.1189542E+04  0.7818608E-02  0.9122060E-01
         -4   -1    0    0    0  501 -0.00000000000E+00  0.00000000000E+00  0.40636473870E+03  0.40636473870E+03  0.00000000000E+00 0. -1.
          4   -1    0    0  501    0  0.00000000000E+00 -0.00000000000E+00 -0.87052981521E+03  0.87052981521E+03  0.00000000000E+00 0.  1.
         23    2    1    2    0    0  0.52566967339E+02  0.58889498181E+03 -0.23810380533E+03  0.64391407712E+03  0.91494977675E+02 0.  0.
         13    1    3    3    0    0  0.29279200626E+01  0.13850756713E+03 -0.16516453848E+02  0.13951957610E+03  0.00000000000E+00 0. -1.
        -13    1    3    3    0    0  0.49639047277E+02  0.45038741469E+03 -0.22158735148E+03  0.50439450102E+03  0.00000000000E+00 0.  1.
         22    1    1    2    0    0 -0.52566967339E+02 -0.58889498181E+03 -0.22606127118E+03  0.63298047678E+03  0.00000000000E+00 0.  1.
<mgrwt>
<rscale>  0 0.11895421E+04</rscale>
<asrwt>0</asrwt>
<pdfrwt beam="1">  1        4 0.13392766E+00 0.11895421E+04</pdfrwt>
<pdfrwt beam="2">  1       -4 0.62517653E-01 0.11895421E+04</pdfrwt>
<totfact> 0.18932191E+00</totfact>
</mgrwt>
</event>
<event>
 6    1  0.2325157E-005  0.4419600E+04  0.7818608E-02  0.7924866E-01
         -2   -1    0    0    0  501 -0.00000000000E+00  0.00000000000E+00  0.13905627468E+04  0.13905627468E+04  0.00000000000E+00 0. -1.
          2   -1    0    0  501    0  0.00000000000E+00 -0.00000000000E+00 -0.35116839614E+04  0.35116839614E+04  0.00000000000E+00 0.  1.
         23    2    1    2    0    0 -0.13012866374E+04 -0.91861215832E+03 -0.27579797965E+04  0.31867922309E+04  0.10953061180E+03 0.  0.
         11    1    3    3    0    0 -0.61176563554E+03 -0.36725348069E+03 -0.12595086638E+04  0.14475822554E+04  0.00000000000E+00 0.  1.
        -11    1    3    3    0    0 -0.68952100189E+03 -0.55135867763E+03 -0.14984711327E+04  0.17392099755E+04  0.00000000000E+00 0. -1.
         22    1    1    2    0    0  0.13012866374E+04  0.91861215832E+03  0.63685858190E+03  0.17154544772E+04  0.00000000000E+00 0. -1.
<mgrwt>
<rscale>  0 0.44196004E+04</rscale>
<asrwt>0</asrwt>
<pdfrwt beam="1">  1        2 0.54025907E+00 0.44196004E+04</pdfrwt>
<pdfrwt beam="2">  1       -2 0.21393273E+00 0.44196004E+04</pdfrwt>
<totfact> 0.65603823E-02</totfact>
</mgrwt>
</event>
<event>
 6    1  0.2325157E-005  0.1935428E+04  0.7818608E-02  0.8637420E-01
         -2   -1    0    0    0  501 -0.00000000000E+00  0.00000000000E+00  0.11308439360E+04  0.11308439360E+04  0.00000000000E+00 0. -1.
          2   -1    0    0  501    0  0.00000000000E+00 -0.00000000000E+00 -0.82811639107E+03  0.82811639107E+03  0.00000000000E+00 0.  1.
         23    2    1    2    0    0 -0.85174582451E+03 -0.39167120272E+03 -0.86337950369E+02  0.94394838611E+03  0.68607822813E+02 0.  0.
         11    1    3    3    0    0 -0.26295859549E+02 -0.41780700441E+01  0.63529778162E+01  0.27373140591E+02  0.00000000000E+00 0. -1.
        -11    1    3    3    0    0 -0.82544996496E+03 -0.38749313268E+03 -0.92690928185E+02  0.91657524552E+03  0.00000000000E+00 0.  1.
         22    1    1    2    0    0  0.85174582451E+03  0.39167120272E+03  0.38906549525E+03  0.10150119409E+04  0.00000000000E+00 0.  1.
<mgrwt>
<rscale>  0 0.19354280E+04</rscale>
<asrwt>0</asrwt>
<pdfrwt beam="1">  1        2 0.12740252E+00 0.19354280E+04</pdfrwt>
<pdfrwt beam="2">  1       -2 0.17397599E+00 0.19354280E+04</pdfrwt>
<totfact> 0.61322954E+00</totfact>
</mgrwt>
</event>
<event>
 6    1  0.2519680E-005  0.2089179E+04  0.7818608E-02  0.8566025E-01
          2   -1    0    0  501    0  0.00000000000E+00  0.00000000000E+00  0.87343383901E+03  0.87343383901E+03  0.00000000000E+00 0.  1.
         -2   -1    0    0    0  501 -0.00000000000E+00 -0.00000000000E+00 -0.12492843329E+04  0.12492843329E+04  0.00000000000E+00 0. -1.
         23    2    1    2    0    0  0.54027981171E+03  0.57276982566E+03  0.50610207008E+03  0.94042892082E+03  0.91102698364E+02 0.  0.
         11    1    3    3    0    0  0.12152109520E+03  0.10681139800E+03  0.65596859012E+02  0.17458235659E+03  0.00000000000E+00 0.  1.
        -11    1    3    3    0    0  0.41875871650E+03  0.46595842766E+03  0.44050521107E+03  0.76584656423E+03  0.00000000000E+00 0. -1.
         22    1    1    2    0    0 -0.54027981171E+03 -0.57276982566E+03 -0.88195256395E+03  0.11822892511E+04  0.00000000000E+00 0. -1.
<mgrwt>
<rscale>  0 0.20891790E+04</rscale>
<asrwt>0</asrwt>
<pdfrwt beam="1">  1        2 0.13437444E+00 0.20891790E+04</pdfrwt>
<pdfrwt beam="2">  1       -2 0.19219759E+00 0.20891790E+04</pdfrwt>
<totfact> 0.42234722E+00</totfact>
</mgrwt>
</event>
<event>
 6    1  0.2325157E-005  0.1559586E+04  0.7818608E-02  0.8845768E-01
         -2   -1    0    0    0  501 -0.00000000000E+00  0.00000000000E+00  0.96054462314E+03  0.96054462314E+03  0.00000000000E+00 0. -1.
          2   -1    0    0  501    0  0.00000000000E+00 -0.00000000000E+00 -0.63305481439E+03  0.63305481439E+03  0.00000000000E+00 0.  1.
         23    2    1    2    0    0  0.28328143910E+03  0.70085954491E+03 -0.20085012104E+02  0.76157736359E+03  0.90245208066E+02 0.  0.
         13    1    3    3    0    0  0.11910077977E+03  0.34800205272E+03 -0.50210648876E+02  0.37122975864E+03  0.00000000000E+00 0.  1.
        -13    1    3    3    0    0  0.16418065934E+03  0.35285749219E+03  0.30125636771E+02  0.39034760494E+03  0.00000000000E+00 0. -1.
         22    1    1    2    0    0 -0.28328143910E+03 -0.70085954491E+03  0.34757482086E+03  0.83202207395E+03  0.00000000000E+00 0. -1.
<mgrwt>
<rscale>  0 0.15595864E+04</rscale>
<asrwt>0</asrwt>
<pdfrwt beam="1">  1        2 0.97393048E-01 0.15595864E+04</pdfrwt>
<pdfrwt beam="2">  1       -2 0.14777610E+00 0.15595864E+04</pdfrwt>
<totfact> 0.13918762E+01</totfact>
</mgrwt>
</event>
<event>
 6    1  0.2325157E-005  0.6235799E+04  0.7818608E-02  0.7661834E-01
          2   -1    0    0  501    0  0.00000000000E+00  0.00000000000E+00  0.32290126340E+04  0.32290126340E+04  0.00000000000E+00 0.  1.
         -2   -1    0    0    0  501 -0.00000000000E+00 -0.00000000000E+00 -0.30106102273E+04  0.30106102273E+04  0.00000000000E+00 0. -1.
         23    2    1    2    0    0  0.16381045693E+04  0.10215597479E+04 -0.23397758738E+04  0.30347442343E+04  0.90280284407E+02 0.  0.
         13    1    3    3    0    0  0.13181398176E+04  0.82127510082E+03 -0.19369743325E+04  0.24827112065E+04  0.00000000000E+00 0. -1.
        -13    1    3    3    0    0  0.31996475169E+03  0.20028464709E+03 -0.40280154132E+03  0.55203302788E+03  0.00000000000E+00 0.  1.
         22    1    1    2    0    0 -0.16381045693E+04 -0.10215597479E+04  0.25581782805E+04  0.32048786269E+04  0.00000000000E+00 0. -1.
<mgrwt>
<rscale>  0 0.62357994E+04</rscale>
<asrwt>0</asrwt>
<pdfrwt beam="1">  1        2 0.49677118E+00 0.62357994E+04</pdfrwt>
<pdfrwt beam="2">  1       -2 0.46317080E+00 0.62357994E+04</pdfrwt>
<totfact> 0.23450867E-03</totfact>
</mgrwt>
</event>
<event>
 6    1  0.2325157E-005  0.3387417E+04  0.7818608E-02  0.8141001E-01
         -2   -1    0    0    0  501 -0.00000000000E+00  0.00000000000E+00  0.10221112416E+04  0.10221112416E+04  0.00000000000E+00 0. -1.
          2   -1    0    0  501    0  0.00000000000E+00 -0.00000000000E+00 -0.28065913447E+04  0.28065913447E+04  0.00000000000E+00 0.  1.
         23    2    1    2    0    0 -0.14487446423E+04 -0.37116406052E+03 -0.17884571059E+04  0.23331626787E+04  0.91899223825E+02 0.  0.
         13    1    3    3    0    0 -0.57724422087E+03 -0.18160284320E+03 -0.77168035351E+03  0.98065337973E+03  0.00000000000E+00 0. -1.
        -13    1    3    3    0    0 -0.87150042144E+03 -0.18956121732E+03 -0.10167767524E+04  0.13525092990E+04  0.00000000000E+00 0.  1.
         22    1    1    2    0    0  0.14487446423E+04  0.37116406052E+03  0.39770028767E+01  0.14955399075E+04  0.00000000000E+00 0. -1.
<mgrwt>
<rscale>  0 0.33874170E+04</rscale>
<asrwt>0</asrwt>
<pdfrwt beam="1">  1        2 0.43178328E+00 0.33874170E+04</pdfrwt>
<pdfrwt beam="2">  1       -2 0.15724789E+00 0.33874170E+04</pdfrwt>
<totfact> 0.50149255E-01</totfact>
</mgrwt>
</event>
<event>
 6    1  0.2325157E-005  0.2921137E+04  0.7818608E-02  0.8266616E-01
          2   -1    0    0  501    0  0.00000000000E+00  0.00000000000E+00  0.14858397045E+04  0.14858397045E+04  0.00000000000E+00 0.  1.
         -2   -1    0    0    0  501 -0.00000000000E+00 -0.00000000000E+00 -0.14357266262E+04  0.14357266262E+04  0.00000000000E+00 0. -1.
         23    2    1    2    0    0  0.60184062226E+03  0.77451968990E+02  0.13516466408E+04  0.14855299257E+04  0.10788686829E+03 0.  0.
         13    1    3    3    0    0  0.47477019010E+03  0.28799402259E+02  0.11210814778E+04  0.12178094346E+04  0.00000000000E+00 0.  1.
        -13    1    3    3    0    0  0.12707043216E+03  0.48652566731E+02  0.23056516297E+03  0.26772049110E+03  0.00000000000E+00 0. -1.
         22    1    1    2    0    0 -0.60184062226E+03 -0.77451968990E+02 -0.13015335625E+04  0.14360364050E+04  0.00000000000E+00 0. -1.
<mgrwt>
<rscale>  0 0.29211365E+04</rscale>
<asrwt>0</asrwt>
<pdfrwt beam="1">  1        2 0.22859073E+00 0.29211365E+04</pdfrwt>
<pdfrwt beam="2">  1       -2 0.22088102E+00 0.29211365E+04</pdfrwt>
<totfact> 0.10870592E+00</totfact>
</mgrwt>
</event>
<event>
 6    1  0.2325157E-005  0.2407382E+04  0.7818608E-02  0.8436745E-01
          2   -1    0    0  501    0  0.00000000000E+00  0.00000000000E+00  0.20352945100E+04  0.20352945100E+04  0.00000000000E+00 0.  1.
         -2   -1    0    0    0  501 -0.00000000000E+00 -0.00000000000E+00 -0.71187344183E+03  0.71187344183E+03  0.00000000000E+00 0. -1.
         23    2    1    2    0    0  0.65650322276E+03  0.65373233132E+03  0.15365343533E+04  0.17964946564E+04  0.89959929132E+02 0.  0.
         13    1    3    3    0    0  0.30752919915E+03  0.24365905498E+03  0.64258629115E+03  0.75290177645E+03  0.00000000000E+00 0.  1.
        -13    1    3    3    0    0  0.34897402361E+03  0.41007327635E+03  0.89394806217E+03  0.10435928799E+04  0.00000000000E+00 0. -1.
         22    1    1    2    0    0 -0.65650322276E+03 -0.65373233132E+03 -0.21311328511E+03  0.95067329551E+03  0.00000000000E+00 0. -1.
<mgrwt>
<rscale>  0 0.24073821E+04</rscale>
<asrwt>0</asrwt>
<pdfrwt beam="1">  1        2 0.31312223E+00 0.24073821E+04</pdfrwt>
<pdfrwt beam="2">  1       -2 0.10951899E+00 0.24073821E+04</pdfrwt>
<totfact> 0.38104091E+00</totfact>
</mgrwt>
</event>
<event>
 6    1  0.2325157E-005  0.2049957E+04  0.7818608E-02  0.8583614E-01
         -2   -1    0    0    0  501 -0.00000000000E+00  0.00000000000E+00  0.55586225440E+03  0.55586225440E+03  0.00000000000E+00 0. -1.
          2   -1    0    0  501    0  0.00000000000E+00 -0.00000000000E+00 -0.18900026571E+04  0.18900026571E+04  0.00000000000E+00 0.  1.
         23    2    1    2    0    0 -0.56469728213E+03 -0.77866340260E+03 -0.10835518434E+04  0.14518858669E+04  0.93210826156E+02 0.  0.
         13    1    3    3    0    0 -0.11647910446E+03 -0.11630511055E+03 -0.22173892945E+03  0.27615650155E+03  0.00000000000E+00 0.  1.
        -13    1    3    3    0    0 -0.44821817768E+03 -0.66235829205E+03 -0.86181291397E+03  0.11757293653E+04  0.00000000000E+00 0. -1.
         22    1    1    2    0    0  0.56469728213E+03  0.77866340260E+03 -0.25058855924E+03  0.99397904456E+03  0.00000000000E+00 0.  1.
<mgrwt>
<rscale>  0 0.20499572E+04</rscale>
<asrwt>0</asrwt>
<pdfrwt beam="1">  1        2 0.29076964E+00 0.20499572E+04</pdfrwt>
<pdfrwt beam="2">  1       -2 0.85517270E-01 0.20499572E+04</pdfrwt>
<totfact> 0.84564667E+00</totfact>
</mgrwt>
</event>
<event>
 6    1  0.2325157E-005  0.2733306E+04  0.7818608E-02  0.8324278E-01
         -2   -1    0    0    0  501 -0.00000000000E+00  0.00000000000E+00  0.50919879164E+03  0.50919879164E+03  0.00000000000E+00 0. -1.
          2   -1    0    0  501    0  0.00000000000E+00 -0.00000000000E+00 -0.36679990254E+04  0.36679990254E+04  0.00000000000E+00 0.  1.
         23    2    1    2    0    0  0.78085551229E+03 -0.69251853848E+03 -0.23539310062E+03  0.10730672587E+04  0.82135087766E+02 0.  0.
         13    1    3    3    0    0  0.58468364125E+03 -0.48588885622E+03 -0.14313405224E+03  0.77358276729E+03  0.00000000000E+00 0.  1.
        -13    1    3    3    0    0  0.19617187104E+03 -0.20662968227E+03 -0.92259048386E+02  0.29948449140E+03  0.00000000000E+00 0. -1.
         22    1    1    2    0    0 -0.78085551229E+03  0.69251853848E+03 -0.29234071331E+04  0.31041305583E+04  0.00000000000E+00 0.  1.
<mgrwt>
<rscale>  0 0.27333062E+04</rscale>
<asrwt>0</asrwt>
<pdfrwt beam="1">  1        2 0.56430754E+00 0.27333062E+04</pdfrwt>
<pdfrwt beam="2">  1       -2 0.78338275E-01 0.27333062E+04</pdfrwt>
<totfact> 0.78152665E-01</totfact>
</mgrwt>
</event>
<event>
 6    1  0.2325157E-005  0.1283918E+04  0.7818608E-02  0.9042417E-01
         -2   -1    0    0    0  501 -0.00000000000E+00  0.00000000000E+00  0.29367216689E+03  0.29367216689E+03  0.00000000000E+00 0. -1.
          2   -1    0    0  501    0  0.00000000000E+00 -0.00000000000E+00 -0.14033033340E+04  0.14033033340E+04  0.00000000000E+00 0.  1.
         23    2    1    2    0    0 -0.59666891236E+03  0.21777885371E+03 -0.46924417447E+03  0.79501268544E+03  0.91725975834E+02 0.  0.
         13    1    3    3    0    0 -0.52957815767E+03  0.21090605614E+03 -0.44566155008E+03  0.72356658768E+03  0.00000000000E+00 0. -1.
        -13    1    3    3    0    0 -0.67090754690E+02  0.68727975681E+01 -0.23582624386E+02  0.71446097753E+02  0.00000000000E+00 0.  1.
         22    1    1    2    0    0  0.59666891236E+03 -0.21777885371E+03 -0.64038699264E+03  0.90196281544E+03  0.00000000000E+00 0.  1.
<mgrwt>
<rscale>  0 0.12839176E+04</rscale>
<asrwt>0</asrwt>
<pdfrwt beam="1">  1        2 0.21589282E+00 0.12839176E+04</pdfrwt>
<pdfrwt beam="2">  1       -2 0.45180334E-01 0.12839176E+04</pdfrwt>
<totfact> 0.65654556E+01</totfact>
</mgrwt>
</event>
<event>
 6    1  0.2325157E-005  0.1029394E+04  0.7818608E-02  0.9276881E-01
         -2   -1    0    0    0  501 -0.00000000000E+00  0.00000000000E+00  0.22729308173E+03  0.22729308173E+03  0.00000000000E+00 0. -1.
          2   -1    0    0  501    0  0.00000000000E+00 -0.00000000000E+00 -0.11655128103E+04  0.11655128103E+04  0.00000000000E+00 0.  1.
         23    2    1    2    0    0 -0.33756216781E+03  0.37305573757E+03 -0.59237443631E+03  0.78229154605E+03  0.89184021863E+02 0.  0.
         11    1    3    3    0    0 -0.27504243364E+03  0.24488925546E+03 -0.42055554794E+03  0.55900452292E+03  0.00000000000E+00 0.  1.
        -11    1    3    3    0    0 -0.62519734175E+02  0.12816648211E+03 -0.17181888837E+03  0.22328702313E+03  0.00000000000E+00 0. -1.
         22    1    1    2    0    0  0.33756216781E+03 -0.37305573757E+03 -0.34584529225E+03  0.61051434598E+03  0.00000000000E+00 0. -1.
<mgrwt>
<rscale>  0 0.10293940E+04</rscale>
<asrwt>0</asrwt>
<pdfrwt beam="1">  1        2 0.17930967E+00 0.10293940E+04</pdfrwt>
<pdfrwt beam="2">  1       -2 0.34968166E-01 0.10293940E+04</pdfrwt>
<totfact> 0.15180258E+02</totfact>
</mgrwt>
</event>
<event>
 6    1  0.2325157E-005  0.1382338E+04  0.7818608E-02  0.8966703E-01
          2   -1    0    0  501    0  0.00000000000E+00  0.00000000000E+00  0.12319665792E+04  0.12319665792E+04  0.00000000000E+00 0. -1.
         -2   -1    0    0    0  501 -0.00000000000E+00 -0.00000000000E+00 -0.38776597860E+03  0.38776597860E+03  0.00000000000E+00 0.  1.
         23    2    1    2    0    0  0.35968534137E+03 -0.43093636410E+03 -0.42752273181E+02  0.57008257090E+03  0.89926003396E+02 0.  0.
         13    1    3    3    0    0  0.17505253111E+03 -0.17696760755E+03  0.20582918512E+02  0.24976905194E+03  0.00000000000E+00 0. -1.
        -13    1    3    3    0    0  0.18463281026E+03 -0.25396875654E+03 -0.63335191692E+02  0.32031351896E+03  0.00000000000E+00 0.  1.
         22    1    1    2    0    0 -0.35968534137E+03  0.43093636410E+03  0.88695287378E+03  0.10496499869E+04  0.00000000000E+00 0. -1.
<mgrwt>
<rscale>  0 0.13823382E+04</rscale>
<asrwt>0</asrwt>
<pdfrwt beam="1">  1        2 0.18953332E+00 0.13823382E+04</pdfrwt>
<pdfrwt beam="2">  1       -2 0.59656305E-01 0.13823382E+04</pdfrwt>
<totfact> 0.46312831E+01</totfact>
</mgrwt>
</event>
<event>
 6    1  0.2325157E-005  0.3523352E+04  0.7818608E-02  0.8108278E-01
          2   -1    0    0  501    0  0.00000000000E+00  0.00000000000E+00  0.31312995357E+04  0.31312995357E+04  0.00000000000E+00 0.  1.
         -2   -1    0    0    0  501 -0.00000000000E+00 -0.00000000000E+00 -0.99112283336E+03  0.99112283336E+03  0.00000000000E+00 0. -1.
         23    2    1    2    0    0 -0.50862767598E+03 -0.15553822376E+04  0.31114050738E+03  0.16681832975E+04  0.90061541031E+02 0.  0.
         13    1    3    3    0    0 -0.16571002423E+03 -0.54939176478E+03  0.67603315839E+02  0.57780734822E+03  0.00000000000E+00 0. -1.
        -13    1    3    3    0    0 -0.34291765175E+03 -0.10059904728E+04  0.24353719154E+03  0.10903759493E+04  0.00000000000E+00 0.  1.
         22    1    1    2    0    0  0.50862767598E+03  0.15553822376E+04  0.18290361949E+04  0.24542390715E+04  0.00000000000E+00 0.  1.
<mgrwt>
<rscale>  0 0.35233521E+04</rscale>
<asrwt>0</asrwt>
<pdfrwt beam="1">  1        2 0.48173839E+00 0.35233521E+04</pdfrwt>
<pdfrwt beam="2">  1       -2 0.15248044E+00 0.35233521E+04</pdfrwt>
<totfact> 0.33768796E-01</totfact>
</mgrwt>
</event>
<event>
 6    1  0.2325157E-005  0.4499448E+04  0.7818608E-02  0.7910734E-01
         -2   -1    0    0    0  501 -0.00000000000E+00  0.00000000000E+00  0.49142405725E+04  0.49142405725E+04  0.00000000000E+00 0. -1.
          2   -1    0    0  501    0  0.00000000000E+00 -0.00000000000E+00 -0.10299164071E+04  0.10299164071E+04  0.00000000000E+00 0.  1.
         23    2    1    2    0    0 -0.14280605786E+04 -0.23961188594E+03  0.42159879706E+04  0.44586362791E+04  0.90066802907E+02 0.  0.
         13    1    3    3    0    0 -0.24680587507E+03 -0.20743938228E+02  0.64070970378E+03  0.68691511518E+03  0.00000000000E+00 0. -1.
        -13    1    3    3    0    0 -0.11812547036E+04 -0.21886794771E+03  0.35752782668E+04  0.37717211639E+04  0.00000000000E+00 0.  1.
         22    1    1    2    0    0  0.14280605786E+04  0.23961188594E+03 -0.33166380510E+03  0.14855207005E+04  0.00000000000E+00 0.  1.
<mgrwt>
<rscale>  0 0.44994475E+04</rscale>
<asrwt>0</asrwt>
<pdfrwt beam="1">  1        2 0.15844868E+00 0.44994475E+04</pdfrwt>
<pdfrwt beam="2">  1       -2 0.75603700E+00 0.44994475E+04</pdfrwt>
<totfact> 0.24624914E-03</totfact>
</mgrwt>
</event>
<event>
 6    1  0.2325157E-005  0.2308332E+03  0.7818608E-02  0.1126055E+00
          4   -1    0    0  501    0  0.00000000000E+00  0.00000000000E+00  0.11577304930E+03  0.11577304930E+03  0.00000000000E+00 0.  1.
         -4   -1    0    0    0  501 -0.00000000000E+00 -0.00000000000E+00 -0.11506123911E+03  0.11506123911E+03  0.00000000000E+00 0. -1.
         23    2    1    2    0    0 -0.70484096620E+02 -0.10127056011E+02  0.66812915651E+02  0.13367503109E+03  0.91293390232E+02 0.  0.
         11    1    3    3    0    0 -0.91862135466E+02 -0.16264396520E+02  0.57313221198E+02  0.10948967006E+03  0.00000000000E+00 0.  1.
        -11    1    3    3    0    0  0.21378038846E+02  0.61373405085E+01  0.94996944528E+01  0.24185361029E+02  0.00000000000E+00 0. -1.
         22    1    1    2    0    0  0.70484096620E+02  0.10127056011E+02 -0.66101105464E+02  0.97159257322E+02  0.00000000000E+00 0. -1.
<mgrwt>
<rscale>  0 0.23083319E+03</rscale>
<asrwt>0</asrwt>
<pdfrwt beam="1">  1        4 0.17811238E-01 0.23083319E+03</pdfrwt>
<pdfrwt beam="2">  1       -4 0.17701729E-01 0.23083319E+03</pdfrwt>
<totfact> 0.14279960E+03</totfact>
</mgrwt>
</event>
<event>
 6    1  0.2325157E-005  0.1892068E+04  0.7818608E-02  0.8658815E-01
          2   -1    0    0  501    0  0.00000000000E+00  0.00000000000E+00  0.15272787524E+04  0.15272787524E+04  0.00000000000E+00 0.  1.
         -2   -1    0    0    0  501 -0.00000000000E+00 -0.00000000000E+00 -0.58599673306E+03  0.58599673306E+03  0.00000000000E+00 0. -1.
         23    2    1    2    0    0  0.16015401158E+02  0.41544542688E+03 -0.47417440532E+03  0.63802354566E+03  0.96857020175E+02 0.  0.
         13    1    3    3    0    0  0.52470039273E+02  0.18571001557E+03 -0.23988910834E+03  0.30787675976E+03  0.00000000000E+00 0. -1.
        -13    1    3    3    0    0 -0.36454638115E+02  0.22973541132E+03 -0.23428529699E+03  0.33014678589E+03  0.00000000000E+00 0.  1.
         22    1    1    2    0    0 -0.16015401158E+02 -0.41544542688E+03  0.14154564246E+04  0.14752519398E+04  0.00000000000E+00 0.  1.
<mgrwt>
<rscale>  0 0.18920680E+04</rscale>
<asrwt>0</asrwt>
<pdfrwt beam="1">  1        2 0.23496596E+00 0.18920680E+04</pdfrwt>
<pdfrwt beam="2">  1       -2 0.90153344E-01 0.18920680E+04</pdfrwt>
<totfact> 0.12086947E+01</totfact>
</mgrwt>
</event>
<event>
 6    1  0.2787145E-005  0.4948784E+04  0.7818608E-02  0.7836457E-01
          2   -1    0    0  501    0  0.00000000000E+00  0.00000000000E+00  0.30294554664E+04  0.30294554664E+04  0.00000000000E+00 0.  1.
         -2   -1    0    0    0  501 -0.00000000000E+00 -0.00000000000E+00 -0.20210286486E+04  0.20210286486E+04  0.00000000000E+00 0. -1.
         23    2    1    2    0    0  0.10152329613E+04  0.12726349196E+04  0.24048397149E+04  0.29056609093E+04  0.96507312465E+02 0.  0.
         11    1    3    3    0    0  0.73662173903E+03  0.85187543252E+03  0.16617448616E+04  0.20074110999E+04  0.00000000000E+00 0.  1.
        -11    1    3    3    0    0  0.27861122222E+03  0.42075948704E+03  0.74309485330E+03  0.89824980940E+03  0.00000000000E+00 0. -1.
         22    1    1    2    0    0 -0.10152329613E+04 -0.12726349196E+04 -0.13964128971E+04  0.21448232056E+04  0.00000000000E+00 0. -1.
<mgrwt>
<rscale>  0 0.49487842E+04</rscale>
<asrwt>0</asrwt>
<pdfrwt beam="1">  1        2 0.46607007E+00 0.49487842E+04</pdfrwt>
<pdfrwt beam="2">  1       -2 0.31092748E+00 0.49487842E+04</pdfrwt>
<totfact> 0.33197367E-02</totfact>
</mgrwt>
</event>
<event>
 6    1  0.2325157E-005  0.1916535E+04  0.7818608E-02  0.8646669E-01
         -2   -1    0    0    0  501 -0.00000000000E+00  0.00000000000E+00  0.39269848173E+03  0.39269848173E+03  0.00000000000E+00 0. -1.
          2   -1    0    0  501    0  0.00000000000E+00 -0.00000000000E+00 -0.23383757839E+04  0.23383757839E+04  0.00000000000E+00 0.  1.
         23    2    1    2    0    0  0.15517136601E+03 -0.91310814128E+03 -0.13131178591E+04  0.16094789377E+04  0.91100541779E+02 0.  0.
         13    1    3    3    0    0  0.17283003133E+02 -0.24347688196E+03 -0.29147004347E+03  0.38017690683E+03  0.00000000000E+00 0. -1.
        -13    1    3    3    0    0  0.13788836288E+03 -0.66963125932E+03 -0.10216478156E+04  0.12293020309E+04  0.00000000000E+00 0.  1.
         22    1    1    2    0    0 -0.15517136601E+03  0.91310814128E+03 -0.63255944311E+03  0.11215953279E+04  0.00000000000E+00 0. -1.
<mgrwt>
<rscale>  0 0.19165350E+04</rscale>
<asrwt>0</asrwt>
<pdfrwt beam="1">  1        2 0.35975012E+00 0.19165350E+04</pdfrwt>
<pdfrwt beam="2">  1       -2 0.60415151E-01 0.19165350E+04</pdfrwt>
<totfact> 0.10296334E+01</totfact>
</mgrwt>
</event>
<event>
 6    1  0.2325157E-005  0.3334769E+04  0.7818608E-02  0.8154104E-01
          2   -1    0    0  501    0  0.00000000000E+00  0.00000000000E+00  0.20654931988E+04  0.20654931988E+04  0.00000000000E+00 0.  1.
         -2   -1    0    0    0  501 -0.00000000000E+00 -0.00000000000E+00 -0.13460079759E+04  0.13460079759E+04  0.00000000000E+00 0. -1.
         23    2    1    2    0    0 -0.41817682159E+03 -0.10137675817E+03  0.20060249252E+04  0.20549122514E+04  0.11566874790E+03 0.  0.
         13    1    3    3    0    0 -0.34388273211E+03 -0.78633916627E+02  0.13924957300E+04  0.14364828521E+04  0.00000000000E+00 0. -1.
        -13    1    3    3    0    0 -0.74294089479E+02 -0.22742841548E+02  0.61352919515E+03  0.61842939926E+03  0.00000000000E+00 0.  1.
         22    1    1    2    0    0  0.41817682159E+03  0.10137675817E+03 -0.12865397023E+04  0.13565889233E+04  0.00000000000E+00 0. -1.
<mgrwt>
<rscale>  0 0.33347685E+04</rscale>
<asrwt>0</asrwt>
<pdfrwt beam="1">  1        2 0.31776819E+00 0.33347685E+04</pdfrwt>
<pdfrwt beam="2">  1       -2 0.20707815E+00 0.33347685E+04</pdfrwt>
<totfact> 0.61184177E-01</totfact>
</mgrwt>
</event>
<event>
 6    1  0.2325157E-005  0.5175854E+04  0.7818608E-02  0.7801938E-01
          2   -1    0    0  501    0  0.00000000000E+00  0.00000000000E+00  0.48794929150E+04  0.48794929150E+04  0.00000000000E+00 0.  1.
         -2   -1    0    0    0  501 -0.00000000000E+00 -0.00000000000E+00 -0.13725537145E+04  0.13725537145E+04  0.00000000000E+00 0. -1.
         23    2    1    2    0    0  0.24550678124E+04  0.69156157736E+03  0.12305853961E+04  0.28333623765E+04  0.89367561417E+02 0.  0.
         11    1    3    3    0    0  0.18213173882E+04  0.52206259948E+03  0.95602390958E+03  0.21221988837E+04  0.00000000000E+00 0.  1.
        -11    1    3    3    0    0  0.63375042418E+03  0.16949897788E+03  0.27456148649E+03  0.71116349281E+03  0.00000000000E+00 0. -1.
         22    1    1    2    0    0 -0.24550678124E+04 -0.69156157736E+03  0.22763538044E+04  0.34186842529E+04  0.00000000000E+00 0.  1.
<mgrwt>
<rscale>  0 0.51758540E+04</rscale>
<asrwt>0</asrwt>
<pdfrwt beam="1">  1        2 0.75069121E+00 0.51758540E+04</pdfrwt>
<pdfrwt beam="2">  1       -2 0.21116211E+00 0.51758540E+04</pdfrwt>
<totfact> 0.38319172E-03</totfact>
</mgrwt>
</event>
<event>
 6    1  0.2325157E-005  0.4732211E+04  0.7818608E-02  0.7871198E-01
         -2   -1    0    0    0  501 -0.00000000000E+00  0.00000000000E+00  0.23627784069E+04  0.23627784069E+04  0.00000000000E+00 0. -1.
          2   -1    0    0  501    0  0.00000000000E+00 -0.00000000000E+00 -0.23694370858E+04  0.23694370858E+04  0.00000000000E+00 0.  1.
         23    2    1    2    0    0  0.13371332299E+04 -0.98142973344E+03  0.16828323355E+04  0.23646197748E+04  0.91500895896E+02 0.  0.
         11    1    3    3    0    0  0.62287784497E+03 -0.49919277920E+03  0.85294523166E+03  0.11681976754E+04  0.00000000000E+00 0. -1.
        -11    1    3    3    0    0  0.71425538488E+03 -0.48223695424E+03  0.82988710380E+03  0.11964220994E+04  0.00000000000E+00 0.  1.
         22    1    1    2    0    0 -0.13371332299E+04  0.98142973344E+03 -0.16894910144E+04  0.23675957180E+04  0.00000000000E+00 0.  1.
<mgrwt>
<rscale>  0 0.47322108E+04</rscale>
<asrwt>0</asrwt>
<pdfrwt beam="1">  1        2 0.36452878E+00 0.47322108E+04</pdfrwt>
<pdfrwt beam="2">  1       -2 0.36350437E+00 0.47322108E+04</pdfrwt>
<totfact> 0.39322267E-02</totfact>
</mgrwt>
</event>
<event>
 6    1  0.2325157E-005  0.2297205E+04  0.7818608E-02  0.8479024E-01
         -2   -1    0    0    0  501 -0.00000000000E+00  0.00000000000E+00  0.96091926106E+03  0.96091926106E+03  0.00000000000E+00 0. -1.
          2   -1    0    0  501    0  0.00000000000E+00 -0.00000000000E+00 -0.13729435378E+04  0.13729435378E+04  0.00000000000E+00 0.  1.
         23    2    1    2    0    0 -0.10306881977E+04  0.38486818601E+03  0.12285907499E+03  0.11105305130E+04  0.87988559530E+02 0.  0.
         11    1    3    3    0    0 -0.45667032062E+03  0.19726218267E+03  0.91656947809E+02  0.50582719038E+03  0.00000000000E+00 0. -1.
        -11    1    3    3    0    0 -0.57401787708E+03  0.18760600334E+03  0.31202127180E+02  0.60470332266E+03  0.00000000000E+00 0.  1.
         22    1    1    2    0    0  0.10306881977E+04 -0.38486818601E+03 -0.53488335168E+03  0.12233322858E+04  0.00000000000E+00 0. -1.
<mgrwt>
<rscale>  0 0.22972052E+04</rscale>
<asrwt>0</asrwt>
<pdfrwt beam="1">  1        2 0.21122208E+00 0.22972052E+04</pdfrwt>
<pdfrwt beam="2">  1       -2 0.14783373E+00 0.22972052E+04</pdfrwt>
<totfact> 0.42356017E+00</totfact>
</mgrwt>
</event>
<event>
 6    1  0.2325157E-005  0.3168290E+03  0.7818608E-02  0.1077118E+00
         -3   -1    0    0    0  501 -0.00000000000E+00  0.00000000000E+00  0.39167937369E+03  0.39167937369E+03  0.00000000000E+00 0. -1.
          3   -1    0    0  501    0  0.00000000000E+00 -0.00000000000E+00 -0.64070662588E+02  0.64070662588E+02  0.00000000000E+00 0.  1.
         23    2    1    2    0    0  0.28687043956E+02 -0.60207596170E+02  0.36248608089E+03  0.38048827938E+03  0.94484235624E+02 0.  0.
         13    1    3    3    0    0  0.36496475887E+02 -0.76237397657E+02  0.20138486412E+03  0.21840328993E+03  0.00000000000E+00 0. -1.
        -13    1    3    3    0    0 -0.78094319316E+01  0.16029801487E+02  0.16110121677E+03  0.16208498945E+03  0.00000000000E+00 0.  1.
         22    1    1    2    0    0 -0.28687043956E+02  0.60207596170E+02 -0.34877369789E+02  0.75261756895E+02  0.00000000000E+00 0.  1.
<mgrwt>
<rscale>  0 0.31682902E+03</rscale>
<asrwt>0</asrwt>
<pdfrwt beam="1">  1        3 0.98570252E-02 0.31682902E+03</pdfrwt>
<pdfrwt beam="2">  1       -3 0.60258364E-01 0.31682902E+03</pdfrwt>
<totfact> 0.53011160E+02</totfact>
</mgrwt>
</event>
<event>
 6    1  0.2325157E-005  0.1965049E+04  0.7818608E-02  0.8623138E-01
         -2   -1    0    0    0  501 -0.00000000000E+00  0.00000000000E+00  0.20527790781E+04  0.20527790781E+04  0.00000000000E+00 0. -1.
          2   -1    0    0  501    0  0.00000000000E+00 -0.00000000000E+00 -0.47026722618E+03  0.47026722618E+03  0.00000000000E+00 0.  1.
         23    2    1    2    0    0  0.25932629462E+03 -0.20027607276E+02  0.20066819974E+04  0.20254806860E+04  0.90267039461E+02 0.  0.
         11    1    3    3    0    0  0.32277216731E+02 -0.75001357620E+01  0.56544313900E+03  0.56641328922E+03  0.00000000000E+00 0.  1.
        -11    1    3    3    0    0  0.22704907789E+03 -0.12527471514E+02  0.14412388584E+04  0.14590673968E+04  0.00000000000E+00 0. -1.
         22    1    1    2    0    0 -0.25932629462E+03  0.20027607276E+02 -0.42417014552E+03  0.49756561827E+03  0.00000000000E+00 0.  1.
<mgrwt>
<rscale>  0 0.19650493E+04</rscale>
<asrwt>0</asrwt>
<pdfrwt beam="1">  1        2 0.72348805E-01 0.19650493E+04</pdfrwt>
<pdfrwt beam="2">  1       -2 0.31581216E+00 0.19650493E+04</pdfrwt>
<totfact> 0.15678817E+00</totfact>
</mgrwt>
</event>
<event>
 6    1  0.2325157E-005  0.8113515E+03  0.7818608E-02  0.9543730E-01
         -2   -1    0    0    0  501 -0.00000000000E+00  0.00000000000E+00  0.36865260878E+03  0.36865260878E+03  0.00000000000E+00 0. -1.
          2   -1    0    0  501    0  0.00000000000E+00 -0.00000000000E+00 -0.44641704798E+03  0.44641704798E+03  0.00000000000E+00 0.  1.
         23    2    1    2    0    0 -0.35202889921E+03  0.12185436234E+03  0.10802911804E+03  0.39878600658E+03  0.92666915369E+02 0.  0.
         11    1    3    3    0    0 -0.29810781465E+03  0.84401403218E+02  0.11962532628E+03  0.33211757663E+03  0.00000000000E+00 0. -1.
        -11    1    3    3    0    0 -0.53921084559E+02  0.37452959121E+02 -0.11596208238E+02  0.66668429953E+02  0.00000000000E+00 0.  1.
         22    1    1    2    0    0  0.35202889921E+03 -0.12185436234E+03 -0.18579355724E+03  0.41628365018E+03  0.00000000000E+00 0.  1.
<mgrwt>
<rscale>  0 0.81135149E+03</rscale>
<asrwt>0</asrwt>
<pdfrwt beam="1">  1        2 0.68679546E-01 0.81135149E+03</pdfrwt>
<pdfrwt beam="2">  1       -2 0.56715786E-01 0.81135149E+03</pdfrwt>
<totfact> 0.20611884E+02</totfact>
</mgrwt>
</event>
<event>
 6    1  0.2325157E-005  0.5225310E+04  0.7818608E-02  0.7794661E-01
         -2   -1    0    0    0  501 -0.00000000000E+00  0.00000000000E+00  0.20911005273E+04  0.20911005273E+04  0.00000000000E+00 0. -1.
          2   -1    0    0  501    0  0.00000000000E+00 -0.00000000000E+00 -0.32642932756E+04  0.32642932756E+04  0.00000000000E+00 0.  1.
         23    2    1    2    0    0 -0.49055467161E+03  0.74447019265E+03  0.19293038821E+04  0.21273347739E+04  0.91978353400E+02 0.  0.
         13    1    3    3    0    0 -0.76449910159E+02  0.13412917442E+03  0.26062191205E+03  0.30291748915E+03  0.00000000000E+00 0.  1.
        -13    1    3    3    0    0 -0.41410476145E+03  0.61034101823E+03  0.16686819700E+04  0.18244172848E+04  0.00000000000E+00 0. -1.
         22    1    1    2    0    0  0.49055467161E+03 -0.74447019265E+03 -0.31024966303E+04  0.32280590290E+04  0.00000000000E+00 0.  1.
<mgrwt>
<rscale>  0 0.52253097E+04</rscale>
<asrwt>0</asrwt>
<pdfrwt beam="1">  1        2 0.50219896E+00 0.52253097E+04</pdfrwt>
<pdfrwt beam="2">  1       -2 0.32170777E+00 0.52253097E+04</pdfrwt>
<totfact> 0.19638968E-02</totfact>
</mgrwt>
</event>
<event>
 6    1  0.2325157E-005  0.1755141E+04  0.7818608E-02  0.8730526E-01
          2   -1    0    0  501    0  0.00000000000E+00  0.00000000000E+00  0.40624501000E+03  0.40624501000E+03  0.00000000000E+00 0.  1.
         -2   -1    0    0    0  501 -0.00000000000E+00 -0.00000000000E+00 -0.18957275391E+04  0.18957275391E+04  0.00000000000E+00 0. -1.
         23    2    1    2    0    0  0.28467504835E+03 -0.66517064239E+03 -0.13926898584E+04  0.15719994758E+04  0.90030237098E+02 0.  0.
         11    1    3    3    0    0  0.90392256854E+02 -0.30441311075E+03 -0.55359014994E+03  0.63820071781E+03  0.00000000000E+00 0.  1.
        -11    1    3    3    0    0  0.19428279150E+03 -0.36075753164E+03 -0.83909970844E+03  0.93379875798E+03  0.00000000000E+00 0. -1.
         22    1    1    2    0    0 -0.28467504835E+03  0.66517064239E+03 -0.96792670725E+02  0.72997307331E+03  0.00000000000E+00 0.  1.
<mgrwt>
<rscale>  0 0.17551409E+04</rscale>
<asrwt>0</asrwt>
<pdfrwt beam="1">  1        2 0.62499233E-01 0.17551409E+04</pdfrwt>
<pdfrwt beam="2">  1       -2 0.29165039E+00 0.17551409E+04</pdfrwt>
<totfact> 0.26507448E+00</totfact>
</mgrwt>
</event>
<event>
 6    1  0.3165540E-005  0.2645945E+04  0.7818608E-02  0.8352760E-01
          2   -1    0    0  501    0  0.00000000000E+00  0.00000000000E+00  0.21036667719E+04  0.21036667719E+04  0.00000000000E+00 0.  1.
         -2   -1    0    0    0  501 -0.00000000000E+00 -0.00000000000E+00 -0.83200275307E+03  0.83200275307E+03  0.00000000000E+00 0. -1.
         23    2    1    2    0    0 -0.53146545824E+03 -0.66946284774E+02  0.19768783407E+04  0.20500823874E+04  0.88614237573E+02 0.  0.
         11    1    3    3    0    0 -0.17015677814E+03 -0.34731767422E+02  0.79703838258E+03  0.81573881121E+03  0.00000000000E+00 0. -1.
        -11    1    3    3    0    0 -0.36130868010E+03 -0.32214517352E+02  0.11798399581E+04  0.12343435762E+04  0.00000000000E+00 0.  1.
         22    1    1    2    0    0  0.53146545824E+03  0.66946284774E+02 -0.70521432187E+03  0.88558713751E+03  0.00000000000E+00 0. -1.
<mgrwt>
<rscale>  0 0.26459452E+04</rscale>
<asrwt>0</asrwt>
<pdfrwt beam="1">  1        2 0.32364104E+00 0.26459452E+04</pdfrwt>
<pdfrwt beam="2">  1       -2 0.12800042E+00 0.26459452E+04</pdfrwt>
<totfact> 0.23276297E+00</totfact>
</mgrwt>
</event>
<event>
 6    1  0.2325157E-005  0.1190091E+04  0.7818608E-02  0.9121575E-01
          2   -1    0    0  501    0  0.00000000000E+00  0.00000000000E+00  0.11241333003E+04  0.11241333003E+04  0.00000000000E+00 0.  1.
         -2   -1    0    0    0  501 -0.00000000000E+00 -0.00000000000E+00 -0.31497949803E+03  0.31497949803E+03  0.00000000000E+00 0. -1.
         23    2    1    2    0    0  0.37730832961E+02  0.29051558798E+03  0.10284656169E+04  0.10731611695E+04  0.90058025479E+02 0.  0.
         13    1    3    3    0    0  0.27484021754E+02  0.22842519404E+03  0.91426694402E+03  0.94277117353E+03  0.00000000000E+00 0. -1.
        -13    1    3    3    0    0  0.10246811207E+02  0.62090393943E+02  0.11419867293E+03  0.13038999600E+03  0.00000000000E+00 0.  1.
         22    1    1    2    0    0 -0.37730832961E+02 -0.29051558798E+03 -0.21931181463E+03  0.36595162884E+03  0.00000000000E+00 0. -1.
<mgrwt>
<rscale>  0 0.11900907E+04</rscale>
<asrwt>0</asrwt>
<pdfrwt beam="1">  1        2 0.17294358E+00 0.11900907E+04</pdfrwt>
<pdfrwt beam="2">  1       -2 0.48458385E-01 0.11900907E+04</pdfrwt>
<totfact> 0.83822780E+01</totfact>
</mgrwt>
</event>
<event>
 6    1  0.2325157E-005  0.5183939E+04  0.7818608E-02  0.7800743E-01
          2   -1    0    0  501    0  0.00000000000E+00  0.00000000000E+00  0.23941215563E+04  0.23941215563E+04  0.00000000000E+00 0.  1.
         -2   -1    0    0    0  501 -0.00000000000E+00 -0.00000000000E+00 -0.28061673677E+04  0.28061673677E+04  0.00000000000E+00 0. -1.
         23    2    1    2    0    0 -0.20668146938E+04  0.15544449506E+04 -0.43554287456E+02  0.25880469586E+04  0.89822051335E+02 0.  0.
         11    1    3    3    0    0 -0.14531631194E+04  0.11368547681E+04 -0.51490665619E+02  0.18457445934E+04  0.00000000000E+00 0.  1.
        -11    1    3    3    0    0 -0.61365157440E+03  0.41759018247E+03  0.79363781623E+01  0.74230236519E+03  0.00000000000E+00 0. -1.
         22    1    1    2    0    0  0.20668146938E+04 -0.15544449506E+04 -0.36849152398E+03  0.26122419655E+04  0.00000000000E+00 0. -1.
<mgrwt>
<rscale>  0 0.51839390E+04</rscale>
<asrwt>0</asrwt>
<pdfrwt beam="1">  1        2 0.36832639E+00 0.51839390E+04</pdfrwt>
<pdfrwt beam="2">  1       -2 0.43171806E+00 0.51839390E+04</pdfrwt>
<totfact> 0.13213101E-02</totfact>
</mgrwt>
</event>
<event>
 6    1  0.2325157E-005  0.2550380E+04  0.7818608E-02  0.8385254E-01
         -2   -1    0    0    0  501 -0.00000000000E+00  0.00000000000E+00  0.13973239672E+04  0.13973239672E+04  0.00000000000E+00 0. -1.
          2   -1    0    0  501    0  0.00000000000E+00 -0.00000000000E+00 -0.11637310486E+04  0.11637310486E+04  0.00000000000E+00 0.  1.
         23    2    1    2    0    0 -0.61671454520E+03 -0.24782301617E+03  0.12078844982E+04  0.13816495894E+04  0.90650699869E+02 0.  0.
         13    1    3    3    0    0 -0.14760708649E+03 -0.54214531022E+02  0.21243886512E+03  0.26430538922E+03  0.00000000000E+00 0. -1.
        -13    1    3    3    0    0 -0.46910745871E+03 -0.19360848514E+03  0.99544563308E+03  0.11173442002E+04  0.00000000000E+00 0.  1.
         22    1    1    2    0    0  0.61671454520E+03  0.24782301617E+03 -0.97429157966E+03  0.11794054264E+04  0.00000000000E+00 0.  1.
<mgrwt>
<rscale>  0 0.25503798E+04</rscale>
<asrwt>0</asrwt>
<pdfrwt beam="1">  1        2 0.17903555E+00 0.25503798E+04</pdfrwt>
<pdfrwt beam="2">  1       -2 0.21497292E+00 0.25503798E+04</pdfrwt>
<totfact> 0.18819813E+00</totfact>
</mgrwt>
</event>
<event>
 6    1  0.2325157E-005  0.2826568E+04  0.7818608E-02  0.8295067E-01
         -2   -1    0    0    0  501 -0.00000000000E+00  0.00000000000E+00  0.21263437876E+04  0.21263437876E+04  0.00000000000E+00 0. -1.
          2   -1    0    0  501    0  0.00000000000E+00 -0.00000000000E+00 -0.93934528190E+03  0.93934528190E+03  0.00000000000E+00 0.  1.
         23    2    1    2    0    0 -0.26096229265E+03  0.13830977431E+04  0.71476478125E+03  0.15810795668E+04  0.88674792544E+02 0.  0.
         13    1    3    3    0    0 -0.15402588443E+03  0.70334180254E+03  0.32165888610E+03  0.78859248239E+03  0.00000000000E+00 0.  1.
        -13    1    3    3    0    0 -0.10693640823E+03  0.67975594054E+03  0.39310589515E+03  0.79248708438E+03  0.00000000000E+00 0. -1.
         22    1    1    2    0    0  0.26096229265E+03 -0.13830977431E+04  0.47223372445E+03  0.14846095027E+04  0.00000000000E+00 0.  1.
<mgrwt>
<rscale>  0 0.28265675E+04</rscale>
<asrwt>0</asrwt>
<pdfrwt beam="1">  1        2 0.14451466E+00 0.28265675E+04</pdfrwt>
<pdfrwt beam="2">  1       -2 0.32712981E+00 0.28265675E+04</pdfrwt>
<totfact> 0.51818723E-01</totfact>
</mgrwt>
</event>
<event>
 6    1  0.2325157E-005  0.1515048E+04  0.7818608E-02  0.8874507E-01
          2   -1    0    0  501    0  0.00000000000E+00  0.00000000000E+00  0.10994082133E+04  0.10994082133E+04  0.00000000000E+00 0.  1.
         -2   -1    0    0    0  501 -0.00000000000E+00 -0.00000000000E+00 -0.52195612483E+03  0.52195612483E+03  0.00000000000E+00 0. -1.
         23    2    1    2    0    0 -0.46890749719E+03 -0.59007228079E+03  0.24872963512E+03  0.79910039701E+03  0.92927259950E+02 0.  0.
         11    1    3    3    0    0 -0.26950836618E+03 -0.27036465072E+03  0.10613290646E+03  0.39622720456E+03  0.00000000000E+00 0.  1.
        -11    1    3    3    0    0 -0.19939913101E+03 -0.31970763007E+03  0.14259672866E+03  0.40287319245E+03  0.00000000000E+00 0. -1.
         22    1    1    2    0    0  0.46890749719E+03  0.59007228079E+03  0.32872245330E+03  0.82226394107E+03  0.00000000000E+00 0.  1.
<mgrwt>
<rscale>  0 0.15150483E+04</rscale>
<asrwt>0</asrwt>
<pdfrwt beam="1">  1        2 0.16913972E+00 0.15150483E+04</pdfrwt>
<pdfrwt beam="2">  1       -2 0.80300942E-01 0.15150483E+04</pdfrwt>
<totfact> 0.28849169E+01</totfact>
</mgrwt>
</event>
<event>
 6    1  0.2325157E-005  0.1830472E+04  0.7818608E-02  0.8690260E-01
          2   -1    0    0  501    0  0.00000000000E+00  0.00000000000E+00  0.17558674859E+04  0.17558674859E+04  0.00000000000E+00 0.  1.
         -2   -1    0    0    0  501 -0.00000000000E+00 -0.00000000000E+00 -0.47706184237E+03  0.47706184237E+03  0.00000000000E+00 0. -1.
         23    2    1    2    0    0 -0.24294602334E+03 -0.45821822936E+03  0.15575097793E+04  0.16441486295E+04  0.91658536033E+02 0.  0.
         11    1    3    3    0    0 -0.15565385387E+03 -0.23523139785E+03  0.95538434791E+03  0.99615319353E+03  0.00000000000E+00 0. -1.
        -11    1    3    3    0    0 -0.87292169473E+02 -0.22298683151E+03  0.60212543142E+03  0.64799543598E+03  0.00000000000E+00 0.  1.
         22    1    1    2    0    0  0.24294602334E+03  0.45821822936E+03 -0.27870413576E+03  0.58878069879E+03  0.00000000000E+00 0. -1.
<mgrwt>
<rscale>  0 0.18304725E+04</rscale>
<asrwt>0</asrwt>
<pdfrwt beam="1">  1        2 0.27013345E+00 0.18304725E+04</pdfrwt>
<pdfrwt beam="2">  1       -2 0.73394131E-01 0.18304725E+04</pdfrwt>
<totfact> 0.14402248E+01</totfact>
</mgrwt>
</event>
<event>
 6    1  0.2325157E-005  0.8687937E+03  0.7818608E-02  0.9465454E-01
         -2   -1    0    0    0  501 -0.00000000000E+00  0.00000000000E+00  0.58455166410E+03  0.58455166410E+03  0.00000000000E+00 0. -1.
          2   -1    0    0  501    0  0.00000000000E+00 -0.00000000000E+00 -0.32281260308E+03  0.32281260308E+03  0.00000000000E+00 0.  1.
         23    2    1    2    0    0  0.13468658609E+03 -0.37352457572E+03 -0.38327938717E+02  0.40966828621E+03  0.93263008223E+02 0.  0.
         13    1    3    3    0    0  0.36721967294E+02 -0.21484586933E+03  0.57858886042E+01  0.21803836121E+03  0.00000000000E+00 0.  1.
        -13    1    3    3    0    0  0.97964618793E+02 -0.15867870639E+03 -0.44113827321E+02  0.19162992500E+03  0.00000000000E+00 0. -1.
         22    1    1    2    0    0 -0.13468658609E+03  0.37352457572E+03  0.30006699974E+03  0.49769598097E+03  0.00000000000E+00 0. -1.
<mgrwt>
<rscale>  0 0.86879375E+03</rscale>
<asrwt>0</asrwt>
<pdfrwt beam="1">  1        2 0.49663478E-01 0.86879375E+03</pdfrwt>
<pdfrwt beam="2">  1       -2 0.89931025E-01 0.86879375E+03</pdfrwt>
<totfact> 0.10763285E+02</totfact>
</mgrwt>
</event>
<event>
 6    1  0.2325157E-005  0.2637708E+04  0.7818608E-02  0.8355504E-01
         -2   -1    0    0    0  501 -0.00000000000E+00  0.00000000000E+00  0.44622923950E+03  0.44622923950E+03  0.00000000000E+00 0. -1.
          2   -1    0    0  501    0  0.00000000000E+00 -0.00000000000E+00 -0.38979427437E+04  0.38979427437E+04  0.00000000000E+00 0.  1.
         23    2    1    2    0    0  0.13081143421E+04  0.80523585576E+02 -0.15184810907E+04  0.20085704024E+04  0.10451343806E+03 0.  0.
         13    1    3    3    0    0  0.98205558120E+03  0.39236687269E+02 -0.11972908206E+04  0.15490248517E+04  0.00000000000E+00 0. -1.
        -13    1    3    3    0    0  0.32605876087E+03  0.41286898308E+02 -0.32119027011E+03  0.45954555065E+03  0.00000000000E+00 0.  1.
         22    1    1    2    0    0 -0.13081143421E+04 -0.80523585576E+02 -0.19332324135E+04  0.23356015808E+04  0.00000000000E+00 0.  1.
<mgrwt>
<rscale>  0 0.26377081E+04</rscale>
<asrwt>0</asrwt>
<pdfrwt beam="1">  1        2 0.59968351E+00 0.26377081E+04</pdfrwt>
<pdfrwt beam="2">  1       -2 0.68650651E-01 0.26377081E+04</pdfrwt>
<totfact> 0.70685768E-01</totfact>
</mgrwt>
</event>
<event>
 6    1  0.2325157E-005  0.2508293E+04  0.7818608E-02  0.8400037E-01
         -2   -1    0    0    0  501 -0.00000000000E+00  0.00000000000E+00  0.63493002421E+03  0.63493002421E+03  0.00000000000E+00 0. -1.
          2   -1    0    0  501    0  0.00000000000E+00 -0.00000000000E+00 -0.24772555930E+04  0.24772555930E+04  0.00000000000E+00 0.  1.
         23    2    1    2    0    0 -0.21278793594E+03 -0.82730558127E+03  0.21397763927E+03  0.88550734813E+03  0.92863356606E+02 0.  0.
         11    1    3    3    0    0 -0.76254690227E+02 -0.36816038491E+03  0.13801735910E+03  0.40050672680E+03  0.00000000000E+00 0. -1.
        -11    1    3    3    0    0 -0.13653324571E+03 -0.45914519637E+03  0.75960280166E+02  0.48500062134E+03  0.00000000000E+00 0.  1.
         22    1    1    2    0    0  0.21278793594E+03  0.82730558127E+03 -0.20563032081E+04  0.22266782691E+04  0.00000000000E+00 0.  1.
<mgrwt>
<rscale>  0 0.25082934E+04</rscale>
<asrwt>0</asrwt>
<pdfrwt beam="1">  1        2 0.38111623E+00 0.25082934E+04</pdfrwt>
<pdfrwt beam="2">  1       -2 0.97681545E-01 0.25082934E+04</pdfrwt>
<totfact> 0.27917435E+00</totfact>
</mgrwt>
</event>
<event>
 6    1  0.2325157E-005  0.1539132E+03  0.7818608E-02  0.1195745E+00
          2   -1    0    0  501    0  0.00000000000E+00  0.00000000000E+00  0.99625362433E+03  0.99625362433E+03  0.00000000000E+00 0.  1.
         -2   -1    0    0    0  501 -0.00000000000E+00 -0.00000000000E+00 -0.59445873148E+01  0.59445873148E+01  0.00000000000E+00 0. -1.
         23    2    1    2    0    0 -0.96101335686E+01  0.18547462233E+02  0.96429225272E+03  0.96883301889E+03  0.91331849955E+02 0.  0.
         13    1    3    3    0    0  0.10727421622E+01  0.38720980984E+02  0.17608559247E+03  0.18029587078E+03  0.00000000000E+00 0. -1.
        -13    1    3    3    0    0 -0.10682875731E+02 -0.20173518751E+02  0.78820666024E+03  0.78853714811E+03  0.00000000000E+00 0.  1.
         22    1    1    2    0    0  0.96101335686E+01 -0.18547462233E+02  0.26016784303E+02  0.33365192761E+02  0.00000000000E+00 0. -1.
<mgrwt>
<rscale>  0 0.15391318E+03</rscale>
<asrwt>0</asrwt>
<pdfrwt beam="1">  1        2 0.15326966E+00 0.15391318E+03</pdfrwt>
<pdfrwt beam="2">  1       -2 0.91455269E-03 0.15391318E+03</pdfrwt>
<totfact> 0.60779921E+04</totfact>
</mgrwt>
</event>
<event>
 6    1  0.2325157E-005  0.1589277E+03  0.7818608E-02  0.1189913E+00
         -2   -1    0    0    0  501 -0.00000000000E+00  0.00000000000E+00  0.17928975392E+02  0.17928975392E+02  0.00000000000E+00 0. -1.
          2   -1    0    0  501    0  0.00000000000E+00 -0.00000000000E+00 -0.35219544151E+03  0.35219544151E+03  0.00000000000E+00 0.  1.
         23    2    1    2    0    0 -0.30427002799E+02  0.15760979869E+02 -0.14377218532E+03  0.17657266155E+03  0.96608760199E+02 0.  0.
         11    1    3    3    0    0  0.10885672428E+02 -0.35016193956E+02 -0.44515295577E+02  0.57673592256E+02  0.00000000000E+00 0. -1.
        -11    1    3    3    0    0 -0.41312675227E+02  0.50777173825E+02 -0.99256889746E+02  0.11889906929E+03  0.00000000000E+00 0.  1.
         22    1    1    2    0    0  0.30427002799E+02 -0.15760979869E+02 -0.19049428079E+03  0.19355175535E+03  0.00000000000E+00 0.  1.
<mgrwt>
<rscale>  0 0.15892770E+03</rscale>
<asrwt>0</asrwt>
<pdfrwt beam="1">  1        2 0.54183915E-01 0.15892770E+03</pdfrwt>
<pdfrwt beam="2">  1       -2 0.27583038E-02 0.15892770E+03</pdfrwt>
<totfact> 0.41446504E+04</totfact>
</mgrwt>
</event>
<event>
 6    1  0.2325157E-005  0.1690046E+04  0.7818608E-02  0.8767062E-01
         -2   -1    0    0    0  501 -0.00000000000E+00  0.00000000000E+00  0.56348308490E+03  0.56348308490E+03  0.00000000000E+00 0. -1.
          2   -1    0    0  501    0  0.00000000000E+00 -0.00000000000E+00 -0.12672314032E+04  0.12672314032E+04  0.00000000000E+00 0.  1.
         23    2    1    2    0    0 -0.56042965237E+03 -0.60348842739E+03 -0.54618670516E+03  0.99220072008E+03  0.88671724832E+02 0.  0.
         13    1    3    3    0    0 -0.31679965861E+03 -0.33971457369E+03 -0.25499340375E+03  0.52989588716E+03  0.00000000000E+00 0. -1.
        -13    1    3    3    0    0 -0.24362999375E+03 -0.26377385371E+03 -0.29119330141E+03  0.46230483292E+03  0.00000000000E+00 0.  1.
         22    1    1    2    0    0  0.56042965237E+03  0.60348842739E+03 -0.15756161316E+03  0.83851376804E+03  0.00000000000E+00 0.  1.
<mgrwt>
<rscale>  0 0.16900455E+04</rscale>
<asrwt>0</asrwt>
<pdfrwt beam="1">  1        2 0.19495868E+00 0.16900455E+04</pdfrwt>
<pdfrwt beam="2">  1       -2 0.86689706E-01 0.16900455E+04</pdfrwt>
<totfact> 0.18956594E+01</totfact>
</mgrwt>
</event>
<event>
 6    1  0.2325157E-005  0.6975891E+04  0.7818608E-02  0.7579927E-01
         -2   -1    0    0    0  501 -0.00000000000E+00  0.00000000000E+00  0.47107186767E+04  0.47107186767E+04  0.00000000000E+00 0. -1.
          2   -1    0    0  501    0  0.00000000000E+00 -0.00000000000E+00 -0.25825705872E+04  0.25825705872E+04  0.00000000000E+00 0.  1.
         23    2    1    2    0    0  0.34167704232E+04 -0.33286003247E+03  0.42273104407E+03  0.34600708740E+04  0.90955986774E+02 0.  0.
         11    1    3    3    0    0  0.89063535641E+03 -0.86882124642E+02  0.70028855163E+02  0.89759895401E+03  0.00000000000E+00 0.  1.
        -11    1    3    3    0    0  0.25261350667E+04 -0.24597790783E+03  0.35270218891E+03  0.25624719200E+04  0.00000000000E+00 0. -1.
         22    1    1    2    0    0 -0.34167704232E+04  0.33286003247E+03  0.17054170455E+04  0.38332183899E+04  0.00000000000E+00 0.  1.
<mgrwt>
<rscale>  0 0.69758909E+04</rscale>
<asrwt>0</asrwt>
<pdfrwt beam="1">  1        2 0.39731855E+00 0.69758909E+04</pdfrwt>
<pdfrwt beam="2">  1       -2 0.72472595E+00 0.69758909E+04</pdfrwt>
<totfact> 0.36543694E-04</totfact>
</mgrwt>
</event>
<event>
 6    1  0.2325157E-005  0.1738852E+04  0.7818608E-02  0.8739511E-01
         -2   -1    0    0    0  501 -0.00000000000E+00  0.00000000000E+00  0.12922040079E+04  0.12922040079E+04  0.00000000000E+00 0. -1.
          2   -1    0    0  501    0  0.00000000000E+00 -0.00000000000E+00 -0.58497066663E+03  0.58497066663E+03  0.00000000000E+00 0.  1.
         23    2    1    2    0    0 -0.68757246152E+03  0.52184817494E+01 -0.21550992963E+03  0.72641915472E+03  0.91962689045E+02 0.  0.
         13    1    3    3    0    0 -0.55985144560E+03  0.40188986822E+02 -0.17478206325E+03  0.58787546763E+03  0.00000000000E+00 0. -1.
        -13    1    3    3    0    0 -0.12772101592E+03 -0.34970505072E+02 -0.40727866376E+02  0.13854368709E+03  0.00000000000E+00 0.  1.
         22    1    1    2    0    0  0.68757246152E+03 -0.52184817494E+01  0.92274327091E+03  0.11507555198E+04  0.00000000000E+00 0. -1.
<mgrwt>
<rscale>  0 0.17388519E+04</rscale>
<asrwt>0</asrwt>
<pdfrwt beam="1">  1        2 0.89995487E-01 0.17388519E+04</pdfrwt>
<pdfrwt beam="2">  1       -2 0.19880062E+00 0.17388519E+04</pdfrwt>
<totfact> 0.65649342E+00</totfact>
</mgrwt>
</event>
<event>
 6    1  0.2325157E-005  0.2855040E+03  0.7818608E-02  0.1092720E+00
         -1   -1    0    0    0  501 -0.00000000000E+00  0.00000000000E+00  0.69117506372E+02  0.69117506372E+02  0.00000000000E+00 0. -1.
          1   -1    0    0  501    0  0.00000000000E+00 -0.00000000000E+00 -0.29483312524E+03  0.29483312524E+03  0.00000000000E+00 0.  1.
         23    2    1    2    0    0  0.49847437708E+02  0.81093759975E+02 -0.23546415633E+03  0.26826364746E+03  0.86377373660E+02 0.  0.
         11    1    3    3    0    0  0.21264497079E+02 -0.93051936772E+01 -0.13387778422E+02  0.26795486121E+02  0.00000000000E+00 0. -1.
        -11    1    3    3    0    0  0.28582940629E+02  0.90398953653E+02 -0.22207637791E+03  0.24146816134E+03  0.00000000000E+00 0.  1.
         22    1    1    2    0    0 -0.49847437708E+02 -0.81093759975E+02  0.97485374632E+01  0.95686984150E+02  0.00000000000E+00 0. -1.
<mgrwt>
<rscale>  0 0.28550398E+03</rscale>
<asrwt>0</asrwt>
<pdfrwt beam="1">  1        1 0.45358942E-01 0.28550398E+03</pdfrwt>
<pdfrwt beam="2">  1       -1 0.10633463E-01 0.28550398E+03</pdfrwt>
<totfact> 0.49379563E+03</totfact>
</mgrwt>
</event>
<event>
 6    1  0.2325157E-005  0.2488575E+04  0.7818608E-02  0.8407067E-01
          2   -1    0    0  501    0  0.00000000000E+00  0.00000000000E+00  0.34197492312E+04  0.34197492312E+04  0.00000000000E+00 0.  1.
         -2   -1    0    0    0  501 -0.00000000000E+00 -0.00000000000E+00 -0.45273820511E+03  0.45273820511E+03  0.00000000000E+00 0. -1.
         23    2    1    2    0    0  0.10348421455E+04  0.42164524283E+03  0.63974102937E+03  0.12908467536E+04  0.91289539006E+02 0.  0.
         13    1    3    3    0    0  0.26094628795E+03  0.76152936067E+02  0.12432844069E+03  0.29891436237E+03  0.00000000000E+00 0. -1.
        -13    1    3    3    0    0  0.77389585750E+03  0.34549230676E+03  0.51541258868E+03  0.99193239127E+03  0.00000000000E+00 0.  1.
         22    1    1    2    0    0 -0.10348421455E+04 -0.42164524283E+03  0.23272699968E+04  0.25816406827E+04  0.00000000000E+00 0.  1.
<mgrwt>
<rscale>  0 0.24885748E+04</rscale>
<asrwt>0</asrwt>
<pdfrwt beam="1">  1        2 0.52611525E+00 0.24885748E+04</pdfrwt>
<pdfrwt beam="2">  1       -2 0.69652034E-01 0.24885748E+04</pdfrwt>
<totfact> 0.15521614E+00</totfact>
</mgrwt>
</event>
<event>
 6    1  0.2325157E-005  0.2982626E+04  0.7818608E-02  0.8248710E-01
          2   -1    0    0  501    0  0.00000000000E+00  0.00000000000E+00  0.13242032968E+04  0.13242032968E+04  0.00000000000E+00 0.  1.
         -2   -1    0    0    0  501 -0.00000000000E+00 -0.00000000000E+00 -0.16795113419E+04  0.16795113419E+04  0.00000000000E+00 0. -1.
         23    2    1    2    0    0 -0.68983073213E+03 -0.84040939552E+03  0.84802456817E+03  0.13819366732E+04  0.91917949261E+02 0.  0.
         11    1    3    3    0    0 -0.44011413261E+03 -0.52213970869E+03  0.58694283771E+03  0.90046222566E+03  0.00000000000E+00 0.  1.
        -11    1    3    3    0    0 -0.24971659952E+03 -0.31826968683E+03  0.26108173047E+03  0.48147444752E+03  0.00000000000E+00 0. -1.
         22    1    1    2    0    0  0.68983073213E+03  0.84040939552E+03 -0.12033326133E+04  0.16217779655E+04  0.00000000000E+00 0. -1.
<mgrwt>
<rscale>  0 0.29826260E+04</rscale>
<asrwt>0</asrwt>
<pdfrwt beam="1">  1        2 0.20372359E+00 0.29826260E+04</pdfrwt>
<pdfrwt beam="2">  1       -2 0.25838636E+00 0.29826260E+04</pdfrwt>
<totfact> 0.78302021E-01</totfact>
</mgrwt>
</event>
<event>
 6    1  0.3755551E-005  0.3461628E+04  0.7818608E-02  0.8122944E-01
          1   -1    0    0  501    0  0.00000000000E+00  0.00000000000E+00  0.26791724485E+04  0.26791724485E+04  0.00000000000E+00 0.  1.
         -1   -1    0    0    0  501 -0.00000000000E+00 -0.00000000000E+00 -0.11181504656E+04  0.11181504656E+04  0.00000000000E+00 0. -1.
         23    2    1    2    0    0 -0.45134156546E+03  0.24270298111E+02  0.26124684603E+04  0.26528413936E+04  0.90982126719E+02 0.  0.
         11    1    3    3    0    0 -0.12611576144E+03  0.43326923040E+02  0.87336720086E+03  0.88348892188E+03  0.00000000000E+00 0. -1.
        -11    1    3    3    0    0 -0.32522580402E+03 -0.19056624929E+02  0.17391012595E+04  0.17693524717E+04  0.00000000000E+00 0.  1.
         22    1    1    2    0    0  0.45134156546E+03 -0.24270298111E+02 -0.10514464774E+04  0.11444815206E+04  0.00000000000E+00 0. -1.
<mgrwt>
<rscale>  0 0.34616285E+04</rscale>
<asrwt>0</asrwt>
<pdfrwt beam="1">  1        1 0.41218037E+00 0.34616285E+04</pdfrwt>
<pdfrwt beam="2">  1       -1 0.17202315E+00 0.34616285E+04</pdfrwt>
<totfact> 0.19750359E-01</totfact>
</mgrwt>
</event>
<event>
 6    1  0.2325157E-005  0.4516288E+04  0.7818608E-02  0.7907791E-01
         -2   -1    0    0    0  501 -0.00000000000E+00  0.00000000000E+00  0.16281012238E+04  0.16281012238E+04  0.00000000000E+00 0. -1.
          2   -1    0    0  501    0  0.00000000000E+00 -0.00000000000E+00 -0.31320012964E+04  0.31320012964E+04  0.00000000000E+00 0.  1.
         23    2    1    2    0    0 -0.81456549114E+03 -0.18108335719E+03  0.14583300821E+04  0.16825847524E+04  0.89759117070E+02 0.  0.
         11    1    3    3    0    0 -0.53543372921E+03 -0.75256794359E+02  0.93090428870E+03  0.10765387398E+04  0.00000000000E+00 0. -1.
        -11    1    3    3    0    0 -0.27913176193E+03 -0.10582656283E+03  0.52742579337E+03  0.60604601264E+03  0.00000000000E+00 0.  1.
         22    1    1    2    0    0  0.81456549114E+03  0.18108335719E+03 -0.29622301547E+04  0.30775177678E+04  0.00000000000E+00 0.  1.
<mgrwt>
<rscale>  0 0.45162884E+04</rscale>
<asrwt>0</asrwt>
<pdfrwt beam="1">  1        2 0.48184636E+00 0.45162884E+04</pdfrwt>
<pdfrwt beam="2">  1       -2 0.25047711E+00 0.45162884E+04</pdfrwt>
<totfact> 0.69270712E-02</totfact>
</mgrwt>
</event>
<event>
 6    1  0.2325157E-005  0.4408544E+04  0.7818608E-02  0.7926847E-01
         -2   -1    0    0    0  501 -0.00000000000E+00  0.00000000000E+00  0.25456831099E+04  0.25456831099E+04  0.00000000000E+00 0. -1.
          2   -1    0    0  501    0  0.00000000000E+00 -0.00000000000E+00 -0.19086485734E+04  0.19086485734E+04  0.00000000000E+00 0.  1.
         23    2    1    2    0    0  0.17964024011E+04  0.49953294414E+03  0.15047130286E+04  0.23977664122E+04  0.92345658147E+02 0.  0.
         11    1    3    3    0    0  0.79043905545E+03  0.19685408378E+03  0.70888579760E+03  0.10798446669E+04  0.00000000000E+00 0.  1.
        -11    1    3    3    0    0  0.10059633456E+04  0.30267886036E+03  0.79582723095E+03  0.13179217453E+04  0.00000000000E+00 0. -1.
         22    1    1    2    0    0 -0.17964024011E+04 -0.49953294414E+03 -0.86767849201E+03  0.20565652711E+04  0.00000000000E+00 0.  1.
<mgrwt>
<rscale>  0 0.44085437E+04</rscale>
<asrwt>0</asrwt>
<pdfrwt beam="1">  1        2 0.29363824E+00 0.44085437E+04</pdfrwt>
<pdfrwt beam="2">  1       -2 0.39164356E+00 0.44085437E+04</pdfrwt>
<totfact> 0.48238694E-02</totfact>
</mgrwt>
</event>
<event>
 6    1  0.2325157E-005  0.2383729E+04  0.7818608E-02  0.8445620E-01
         -2   -1    0    0    0  501 -0.00000000000E+00  0.00000000000E+00  0.78502005986E+03  0.78502005986E+03  0.00000000000E+00 0. -1.
          2   -1    0    0  501    0  0.00000000000E+00 -0.00000000000E+00 -0.18095598834E+04  0.18095598834E+04  0.00000000000E+00 0.  1.
         23    2    1    2    0    0 -0.59754925594E+03 -0.92366106692E+03 -0.10072159637E+04  0.14943458791E+04  0.91491687572E+02 0.  0.
         13    1    3    3    0    0 -0.18616226344E+03 -0.26155347077E+03 -0.24215797316E+03  0.40212820141E+03  0.00000000000E+00 0.  1.
        -13    1    3    3    0    0 -0.41138699250E+03 -0.66210759615E+03 -0.76505799055E+03  0.10922176777E+04  0.00000000000E+00 0. -1.
         22    1    1    2    0    0  0.59754925594E+03  0.92366106692E+03 -0.17323859797E+02  0.11002340642E+04  0.00000000000E+00 0. -1.
<mgrwt>
<rscale>  0 0.23837289E+04</rscale>
<asrwt>0</asrwt>
<pdfrwt beam="1">  1        2 0.27839383E+00 0.23837289E+04</pdfrwt>
<pdfrwt beam="2">  1       -2 0.12077232E+00 0.23837289E+04</pdfrwt>
<totfact> 0.40113106E+00</totfact>
</mgrwt>
</event>
<event>
 6    1  0.2325157E-005  0.5879175E+04  0.7818608E-02  0.7705566E-01
         -2   -1    0    0    0  501 -0.00000000000E+00  0.00000000000E+00  0.38073276088E+04  0.38073276088E+04  0.00000000000E+00 0. -1.
          2   -1    0    0  501    0  0.00000000000E+00 -0.00000000000E+00 -0.22696164859E+04  0.22696164859E+04  0.00000000000E+00 0.  1.
         23    2    1    2    0    0 -0.68075745453E+03 -0.27005522038E+04 -0.20087983079E+03  0.27937883838E+04  0.92129854821E+02 0.  0.
         11    1    3    3    0    0 -0.16958721009E+02 -0.12682911271E+03  0.34033857699E+01  0.12800314482E+03  0.00000000000E+00 0. -1.
        -11    1    3    3    0    0 -0.66379873352E+03 -0.25737230910E+04 -0.20428321656E+03  0.26657852390E+04  0.00000000000E+00 0.  1.
         22    1    1    2    0    0  0.68075745453E+03  0.27005522038E+04  0.17385909537E+04  0.32831557108E+04  0.00000000000E+00 0.  1.
<mgrwt>
<rscale>  0 0.58791746E+04</rscale>
<asrwt>0</asrwt>
<pdfrwt beam="1">  1        2 0.34917177E+00 0.58791746E+04</pdfrwt>
<pdfrwt beam="2">  1       -2 0.58574271E+00 0.58791746E+04</pdfrwt>
<totfact> 0.18970915E-03</totfact>
</mgrwt>
</event>
<event>
 6    1  0.2325157E-005  0.8451687E+03  0.7818608E-02  0.9496844E-01
          2   -1    0    0  501    0  0.00000000000E+00  0.00000000000E+00  0.70916476530E+03  0.70916476530E+03  0.00000000000E+00 0.  1.
         -2   -1    0    0    0  501 -0.00000000000E+00 -0.00000000000E+00 -0.25181386365E+03  0.25181386365E+03  0.00000000000E+00 0. -1.
         23    2    1    2    0    0 -0.63723889979E+02  0.15339012683E+03 -0.20440284974E+03  0.27869768048E+03  0.91118642213E+02 0.  0.
         13    1    3    3    0    0 -0.31361568197E+02  0.14152707974E+03 -0.12232318836E+03  0.18967452299E+03  0.00000000000E+00 0.  1.
        -13    1    3    3    0    0 -0.32362321782E+02  0.11863047091E+02 -0.82079661381E+02  0.89023157492E+02  0.00000000000E+00 0. -1.
         22    1    1    2    0    0  0.63723889979E+02 -0.15339012683E+03  0.66175375139E+03  0.68228094847E+03  0.00000000000E+00 0.  1.
<mgrwt>
<rscale>  0 0.84516867E+03</rscale>
<asrwt>0</asrwt>
<pdfrwt beam="1">  1        2 0.10910227E+00 0.84516867E+03</pdfrwt>
<pdfrwt beam="2">  1       -2 0.38740595E-01 0.84516867E+03</pdfrwt>
<totfact> 0.25481574E+02</totfact>
</mgrwt>
</event>
<event>
 6    1  0.2325157E-005  0.2281839E+04  0.7818608E-02  0.8485116E-01
         -2   -1    0    0    0  501 -0.00000000000E+00  0.00000000000E+00  0.71249863802E+03  0.71249863802E+03  0.00000000000E+00 0. -1.
          2   -1    0    0  501    0  0.00000000000E+00 -0.00000000000E+00 -0.18269475764E+04  0.18269475764E+04  0.00000000000E+00 0.  1.
         23    2    1    2    0    0 -0.11077692765E+04 -0.16046490612E+03 -0.32338067396E+03  0.11687928100E+04  0.92735194614E+02 0.  0.
         11    1    3    3    0    0 -0.96844699886E+03 -0.15711933886E+03 -0.25579607720E+03  0.10139071503E+04  0.00000000000E+00 0.  1.
        -11    1    3    3    0    0 -0.13932227766E+03 -0.33455672635E+01 -0.67584596768E+02  0.15488565974E+03  0.00000000000E+00 0. -1.
         22    1    1    2    0    0  0.11077692765E+04  0.16046490612E+03 -0.79106826445E+03  0.13706534045E+04  0.00000000000E+00 0.  1.
<mgrwt>
<rscale>  0 0.22818393E+04</rscale>
<asrwt>0</asrwt>
<pdfrwt beam="1">  1        2 0.28106885E+00 0.22818393E+04</pdfrwt>
<pdfrwt beam="2">  1       -2 0.10961518E+00 0.22818393E+04</pdfrwt>
<totfact> 0.50157317E+00</totfact>
</mgrwt>
</event>
<event>
 6    1  0.2325157E-005  0.2059089E+04  0.7818608E-02  0.8579482E-01
         -2   -1    0    0    0  501 -0.00000000000E+00  0.00000000000E+00  0.94514827667E+03  0.94514827667E+03  0.00000000000E+00 0. -1.
          2   -1    0    0  501    0  0.00000000000E+00 -0.00000000000E+00 -0.11214764897E+04  0.11214764897E+04  0.00000000000E+00 0.  1.
         23    2    1    2    0    0 -0.44347450331E+03  0.55924425745E+03  0.65353268031E+03  0.97205047612E+03  0.91396878027E+02 0.  0.
         11    1    3    3    0    0 -0.17165920804E+03  0.27738495772E+03  0.26302299983E+03  0.41903507838E+03  0.00000000000E+00 0.  1.
        -11    1    3    3    0    0 -0.27181529527E+03  0.28185929973E+03  0.39050968048E+03  0.55301539774E+03  0.00000000000E+00 0. -1.
         22    1    1    2    0    0  0.44347450331E+03 -0.55924425745E+03 -0.82986089334E+03  0.10945742903E+04  0.00000000000E+00 0.  1.
<mgrwt>
<rscale>  0 0.20590887E+04</rscale>
<asrwt>0</asrwt>
<pdfrwt beam="1">  1        2 0.17253484E+00 0.20590887E+04</pdfrwt>
<pdfrwt beam="2">  1       -2 0.14540743E+00 0.20590887E+04</pdfrwt>
<totfact> 0.63559758E+00</totfact>
</mgrwt>
</event>
<event>
 6    1  0.2325157E-005  0.8992781E+03  0.7818608E-02  0.9426484E-01
          2   -1    0    0  501    0  0.00000000000E+00  0.00000000000E+00  0.94569849451E+03  0.94569849451E+03  0.00000000000E+00 0.  1.
         -2   -1    0    0    0  501 -0.00000000000E+00 -0.00000000000E+00 -0.21378407412E+03  0.21378407412E+03  0.00000000000E+00 0. -1.
         23    2    1    2    0    0  0.20365452448E+03 -0.58158849867E+02  0.87446344432E+03  0.90418305554E+03  0.89459853082E+02 0.  0.
         11    1    3    3    0    0  0.90357199354E+02 -0.71557172231E+02  0.40770513394E+03  0.42368423220E+03  0.00000000000E+00 0.  1.
        -11    1    3    3    0    0  0.11329732513E+03  0.13398322364E+02  0.46675831038E+03  0.48049882334E+03  0.00000000000E+00 0. -1.
         22    1    1    2    0    0 -0.20365452448E+03  0.58158849867E+02 -0.14254902393E+03  0.25529951309E+03  0.00000000000E+00 0. -1.
<mgrwt>
<rscale>  0 0.89927810E+03</rscale>
<asrwt>0</asrwt>
<pdfrwt beam="1">  1        2 0.14549207E+00 0.89927810E+03</pdfrwt>
<pdfrwt beam="2">  1       -2 0.32889858E-01 0.89927810E+03</pdfrwt>
<totfact> 0.23602789E+02</totfact>
</mgrwt>
</event>
<event>
 6    1  0.2325157E-005  0.2166396E+04  0.7818608E-02  0.8532547E-01
          2   -1    0    0  501    0  0.00000000000E+00  0.00000000000E+00  0.35553119676E+04  0.35553119676E+04  0.00000000000E+00 0.  1.
         -2   -1    0    0    0  501 -0.00000000000E+00 -0.00000000000E+00 -0.33001816055E+03  0.33001816055E+03  0.00000000000E+00 0. -1.
         23    2    1    2    0    0  0.18016649756E+03 -0.14269607874E+03  0.35104383885E+04  0.35190930874E+04  0.89534020224E+02 0.  0.
         13    1    3    3    0    0  0.15769856096E+03 -0.12402799562E+03  0.24327508506E+04  0.24410097257E+04  0.00000000000E+00 0. -1.
        -13    1    3    3    0    0  0.22467936605E+02 -0.18668083128E+02  0.10776875378E+04  0.10780833617E+04  0.00000000000E+00 0.  1.
         22    1    1    2    0    0 -0.18016649756E+03  0.14269607874E+03 -0.28514458140E+03  0.36623704078E+03  0.00000000000E+00 0. -1.
<mgrwt>
<rscale>  0 0.21663956E+04</rscale>
<asrwt>0</asrwt>
<pdfrwt beam="1">  1        2 0.54697105E+00 0.21663956E+04</pdfrwt>
<pdfrwt beam="2">  1       -2 0.50772027E-01 0.21663956E+04</pdfrwt>
<totfact> 0.25084189E+00</totfact>
</mgrwt>
</event>
<event>
 6    1  0.2325157E-005  0.1707577E+04  0.7818608E-02  0.8757055E-01
          2   -1    0    0  501    0  0.00000000000E+00  0.00000000000E+00  0.15868434610E+04  0.15868434610E+04  0.00000000000E+00 0.  1.
         -2   -1    0    0    0  501 -0.00000000000E+00 -0.00000000000E+00 -0.45937408519E+03  0.45937408519E+03  0.00000000000E+00 0. -1.
         23    2    1    2    0    0 -0.29652416657E+03 -0.30609020082E+03  0.14485350613E+04  0.15126437773E+04  0.90661902890E+02 0.  0.
         11    1    3    3    0    0 -0.22208286336E+03 -0.16697504769E+03  0.93702514738E+03  0.97735233748E+03  0.00000000000E+00 0. -1.
        -11    1    3    3    0    0 -0.74441303209E+02 -0.13911515314E+03  0.51150991395E+03  0.53529143980E+03  0.00000000000E+00 0.  1.
         22    1    1    2    0    0  0.29652416657E+03  0.30609020082E+03 -0.32106568555E+03  0.53357376888E+03  0.00000000000E+00 0. -1.
<mgrwt>
<rscale>  0 0.17075770E+04</rscale>
<asrwt>0</asrwt>
<pdfrwt beam="1">  1        2 0.24412976E+00 0.17075770E+04</pdfrwt>
<pdfrwt beam="2">  1       -2 0.70672937E-01 0.17075770E+04</pdfrwt>
<totfact> 0.19634650E+01</totfact>
</mgrwt>
</event>
<event>
 6    1  0.2325157E-005  0.7829947E+03  0.7818608E-02  0.9584963E-01
         -2   -1    0    0    0  501 -0.00000000000E+00  0.00000000000E+00  0.57771328015E+02  0.57771328015E+02  0.00000000000E+00 0. -1.
          2   -1    0    0  501    0  0.00000000000E+00 -0.00000000000E+00 -0.26530492670E+04  0.26530492670E+04  0.00000000000E+00 0.  1.
         23    2    1    2    0    0 -0.22178628513E+03 -0.27809105200E+03 -0.18312610400E+04  0.18680598867E+04  0.98015072056E+02 0.  0.
         11    1    3    3    0    0 -0.13453078319E+03 -0.92637246051E+02 -0.86815815724E+03  0.88339050083E+03  0.00000000000E+00 0. -1.
        -11    1    3    3    0    0 -0.87255501948E+02 -0.18545380595E+03 -0.96310288275E+03  0.98466938590E+03  0.00000000000E+00 0.  1.
         22    1    1    2    0    0  0.22178628513E+03  0.27809105200E+03 -0.76401689898E+03  0.84276070827E+03  0.00000000000E+00 0. -1.
<mgrwt>
<rscale>  0 0.78299471E+03</rscale>
<asrwt>0</asrwt>
<pdfrwt beam="1">  1        2 0.40816145E+00 0.78299471E+03</pdfrwt>
<pdfrwt beam="2">  1       -2 0.88878961E-02 0.78299471E+03</pdfrwt>
<totfact> 0.24458379E+02</totfact>
</mgrwt>
</event>
<event>
 6    1  0.2325157E-005  0.2514083E+04  0.7818608E-02  0.8397986E-01
          2   -1    0    0  501    0  0.00000000000E+00  0.00000000000E+00  0.22882652787E+04  0.22882652787E+04  0.00000000000E+00 0.  1.
         -2   -1    0    0    0  501 -0.00000000000E+00 -0.00000000000E+00 -0.69054631173E+03  0.69054631173E+03  0.00000000000E+00 0. -1.
         23    2    1    2    0    0 -0.67341401765E+03 -0.10166258182E+04  0.11507895626E+04  0.16800581936E+04  0.10613398624E+03 0.  0.
         11    1    3    3    0    0 -0.89436935585E+02 -0.78493314909E+02  0.11271418456E+03  0.16390440303E+03  0.00000000000E+00 0. -1.
        -11    1    3    3    0    0 -0.58397708206E+03 -0.93813250325E+03  0.10380753781E+04  0.15161537906E+04  0.00000000000E+00 0.  1.
         22    1    1    2    0    0  0.67341401765E+03  0.10166258182E+04  0.44692940429E+03  0.12987533968E+04  0.00000000000E+00 0. -1.
<mgrwt>
<rscale>  0 0.25140829E+04</rscale>
<asrwt>0</asrwt>
<pdfrwt beam="1">  1        2 0.35204081E+00 0.25140829E+04</pdfrwt>
<pdfrwt beam="2">  1       -2 0.10623790E+00 0.25140829E+04</pdfrwt>
<totfact> 0.29304285E+00</totfact>
</mgrwt>
</event>
<event>
 6    1  0.2325157E-005  0.3418742E+04  0.7818608E-02  0.8133322E-01
         -2   -1    0    0    0  501 -0.00000000000E+00  0.00000000000E+00  0.10283363186E+04  0.10283363186E+04  0.00000000000E+00 0. -1.
          2   -1    0    0  501    0  0.00000000000E+00 -0.00000000000E+00 -0.28414334778E+04  0.28414334778E+04  0.00000000000E+00 0.  1.
         23    2    1    2    0    0  0.56780588622E+03 -0.40900624145E+03 -0.26710145750E+04  0.27626510484E+04  0.90732161287E+02 0.  0.
         11    1    3    3    0    0  0.41726396562E+03 -0.33005439038E+03 -0.18971146029E+04  0.19703017369E+04  0.00000000000E+00 0.  1.
        -11    1    3    3    0    0  0.15054192059E+03 -0.78951851069E+02 -0.77389997207E+03  0.79234931149E+03  0.00000000000E+00 0. -1.
         22    1    1    2    0    0 -0.56780588622E+03  0.40900624145E+03  0.85791741575E+03  0.11071187480E+04  0.00000000000E+00 0. -1.
<mgrwt>
<rscale>  0 0.34187420E+04</rscale>
<asrwt>0</asrwt>
<pdfrwt beam="1">  1        2 0.43714361E+00 0.34187420E+04</pdfrwt>
<pdfrwt beam="2">  1       -2 0.15820559E+00 0.34187420E+04</pdfrwt>
<totfact> 0.46860250E-01</totfact>
</mgrwt>
</event>
<event>
 6    1  0.2325157E-005  0.2452917E+04  0.7818608E-02  0.8419954E-01
          1   -1    0    0  501    0  0.00000000000E+00  0.00000000000E+00  0.11845567681E+04  0.11845567681E+04  0.00000000000E+00 0.  1.
         -1   -1    0    0    0  501 -0.00000000000E+00 -0.00000000000E+00 -0.12698422271E+04  0.12698422271E+04  0.00000000000E+00 0. -1.
         23    2    1    2    0    0  0.20377440164E+03  0.55756841034E+03 -0.11142227901E+04  0.12664938767E+04  0.10053742977E+03 0.  0.
         11    1    3    3    0    0  0.16848830977E+03  0.45484890721E+03 -0.81815256206E+03  0.95113061865E+03  0.00000000000E+00 0.  1.
        -11    1    3    3    0    0  0.35286091864E+02  0.10271950313E+03 -0.29607022806E+03  0.31536325807E+03  0.00000000000E+00 0. -1.
         22    1    1    2    0    0 -0.20377440164E+03 -0.55756841034E+03  0.10289373312E+04  0.11879051184E+04  0.00000000000E+00 0.  1.
<mgrwt>
<rscale>  0 0.24529168E+04</rscale>
<asrwt>0</asrwt>
<pdfrwt beam="1">  1        1 0.18223950E+00 0.24529168E+04</pdfrwt>
<pdfrwt beam="2">  1       -1 0.19536034E+00 0.24529168E+04</pdfrwt>
<totfact> 0.15858043E+00</totfact>
</mgrwt>
</event>
<event>
 6    1  0.2325157E-005  0.1060356E+04  0.7818608E-02  0.9244717E-01
         -2   -1    0    0    0  501 -0.00000000000E+00  0.00000000000E+00  0.15483663795E+03  0.15483663795E+03  0.00000000000E+00 0. -1.
          2   -1    0    0  501    0  0.00000000000E+00 -0.00000000000E+00 -0.18153883765E+04  0.18153883765E+04  0.00000000000E+00 0.  1.
         23    2    1    2    0    0 -0.32695144029E+03 -0.31109239449E+03 -0.13393824434E+04  0.14163067548E+04  0.91125034050E+02 0.  0.
         11    1    3    3    0    0 -0.10069571577E+02 -0.44665697255E+02 -0.15695837646E+03  0.16350031414E+03  0.00000000000E+00 0. -1.
        -11    1    3    3    0    0 -0.31688186871E+03 -0.26642669723E+03 -0.11824240669E+04  0.12528064407E+04  0.00000000000E+00 0.  1.
         22    1    1    2    0    0  0.32695144029E+03  0.31109239449E+03 -0.32116929516E+03  0.55391825965E+03  0.00000000000E+00 0. -1.
<mgrwt>
<rscale>  0 0.10603559E+04</rscale>
<asrwt>0</asrwt>
<pdfrwt beam="1">  1        2 0.27929052E+00 0.10603559E+04</pdfrwt>
<pdfrwt beam="2">  1       -2 0.23821021E-01 0.10603559E+04</pdfrwt>
<totfact> 0.13193986E+02</totfact>
</mgrwt>
</event>
<event>
 6    1  0.2325157E-005  0.1186402E+04  0.7818608E-02  0.9124843E-01
          2   -1    0    0  501    0  0.00000000000E+00  0.00000000000E+00  0.13256543790E+04  0.13256543790E+04  0.00000000000E+00 0.  1.
         -2   -1    0    0    0  501 -0.00000000000E+00 -0.00000000000E+00 -0.26544439304E+03  0.26544439304E+03  0.00000000000E+00 0. -1.
         23    2    1    2    0    0  0.18125354944E+03  0.55747362463E+03  0.61868007592E+03  0.85721979510E+03  0.91820746116E+02 0.  0.
         11    1    3    3    0    0  0.19438299818E+02  0.19509237618E+03  0.21990455232E+03  0.29461312746E+03  0.00000000000E+00 0.  1.
        -11    1    3    3    0    0  0.16181524962E+03  0.36238124845E+03  0.39877552361E+03  0.56260666764E+03  0.00000000000E+00 0. -1.
         22    1    1    2    0    0 -0.18125354944E+03 -0.55747362463E+03  0.44152991002E+03  0.73387897693E+03  0.00000000000E+00 0. -1.
<mgrwt>
<rscale>  0 0.11864022E+04</rscale>
<asrwt>0</asrwt>
<pdfrwt beam="1">  1        2 0.20394682E+00 0.11864022E+04</pdfrwt>
<pdfrwt beam="2">  1       -2 0.40837600E-01 0.11864022E+04</pdfrwt>
<totfact> 0.89516893E+01</totfact>
</mgrwt>
</event>
<event>
 6    1  0.2325157E-005  0.1289313E+04  0.7818608E-02  0.9038083E-01
         -2   -1    0    0    0  501 -0.00000000000E+00  0.00000000000E+00  0.51990295379E+03  0.51990295379E+03  0.00000000000E+00 0. -1.
          2   -1    0    0  501    0  0.00000000000E+00 -0.00000000000E+00 -0.79934568292E+03  0.79934568292E+03  0.00000000000E+00 0.  1.
         23    2    1    2    0    0  0.13692520561E+03  0.26693768020E+03 -0.72057326697E+03  0.78576912590E+03  0.90570685708E+02 0.  0.
         11    1    3    3    0    0  0.64247726148E+02  0.20652813119E+03 -0.45275317423E+03  0.50176396449E+03  0.00000000000E+00 0.  1.
        -11    1    3    3    0    0  0.72677479460E+02  0.60409549004E+02 -0.26782009274E+03  0.28400516141E+03  0.00000000000E+00 0. -1.
         22    1    1    2    0    0 -0.13692520561E+03 -0.26693768020E+03  0.44113053783E+03  0.53347951081E+03  0.00000000000E+00 0. -1.
<mgrwt>
<rscale>  0 0.12893133E+04</rscale>
<asrwt>0</asrwt>
<pdfrwt beam="1">  1        2 0.12297626E+00 0.12893133E+04</pdfrwt>
<pdfrwt beam="2">  1       -2 0.79985070E-01 0.12893133E+04</pdfrwt>
<totfact> 0.46795382E+01</totfact>
</mgrwt>
</event>
<event>
 6    1  0.2325157E-005  0.4166255E+04  0.7818608E-02  0.7971822E-01
          2   -1    0    0  501    0  0.00000000000E+00  0.00000000000E+00  0.25948545140E+04  0.25948545140E+04  0.00000000000E+00 0.  1.
         -2   -1    0    0    0  501 -0.00000000000E+00 -0.00000000000E+00 -0.16723172508E+04  0.16723172508E+04  0.00000000000E+00 0. -1.
         23    2    1    2    0    0  0.12518596716E+04  0.12500023982E+04  0.15861778219E+04  0.23777069136E+04  0.88721200056E+02 0.  0.
         13    1    3    3    0    0  0.15055477978E+03  0.13136985488E+03  0.21344382572E+03  0.29237484027E+03  0.00000000000E+00 0.  1.
        -13    1    3    3    0    0  0.11013048919E+04  0.11186325433E+04  0.13727339961E+04  0.20853320733E+04  0.00000000000E+00 0. -1.
         22    1    1    2    0    0 -0.12518596716E+04 -0.12500023982E+04 -0.66364055867E+03  0.18894648512E+04  0.00000000000E+00 0. -1.
<mgrwt>
<rscale>  0 0.41662549E+04</rscale>
<asrwt>0</asrwt>
<pdfrwt beam="1">  1        2 0.39920839E+00 0.41662549E+04</pdfrwt>
<pdfrwt beam="2">  1       -2 0.25727958E+00 0.41662549E+04</pdfrwt>
<totfact> 0.13828373E-01</totfact>
</mgrwt>
</event>
<event>
 6    1  0.2325157E-005  0.3068284E+04  0.7818608E-02  0.8224496E-01
         -4   -1    0    0    0  501 -0.00000000000E+00  0.00000000000E+00  0.22637736808E+04  0.22637736808E+04  0.00000000000E+00 0. -1.
          4   -1    0    0  501    0  0.00000000000E+00 -0.00000000000E+00 -0.10396762386E+04  0.10396762386E+04  0.00000000000E+00 0.  1.
         23    2    1    2    0    0  0.95249681102E+03 -0.56466481100E+03 -0.52844758109E+03  0.12304061229E+04  0.92443807023E+02 0.  0.
         13    1    3    3    0    0  0.50797697712E+03 -0.30886324965E+03 -0.23305917071E+03  0.63855594376E+03  0.00000000000E+00 0. -1.
        -13    1    3    3    0    0  0.44451983390E+03 -0.25580156135E+03 -0.29538841038E+03  0.59185017910E+03  0.00000000000E+00 0.  1.
         22    1    1    2    0    0 -0.95249681102E+03  0.56466481100E+03  0.17525450233E+04  0.20730437966E+04  0.00000000000E+00 0. -1.
<mgrwt>
<rscale>  0 0.30682840E+04</rscale>
<asrwt>0</asrwt>
<pdfrwt beam="1">  1        4 0.15995019E+00 0.30682840E+04</pdfrwt>
<pdfrwt beam="2">  1       -4 0.34827287E+00 0.30682840E+04</pdfrwt>
<totfact> 0.64309955E-03</totfact>
</mgrwt>
</event>
<event>
 6    1  0.2325157E-005  0.1115074E+04  0.7818608E-02  0.9190623E-01
         -1   -1    0    0    0  501 -0.00000000000E+00  0.00000000000E+00  0.10418631868E+04  0.10418631868E+04  0.00000000000E+00 0. -1.
          1   -1    0    0  501    0  0.00000000000E+00 -0.00000000000E+00 -0.29835742009E+03  0.29835742009E+03  0.00000000000E+00 0.  1.
         23    2    1    2    0    0  0.28896734626E+03 -0.39421307339E+03  0.57837009577E+02  0.49817089401E+03  0.76961324840E+02 0.  0.
         13    1    3    3    0    0  0.19395794793E+03 -0.21863614584E+03  0.60743194802E+02  0.29851496704E+03  0.00000000000E+00 0. -1.
        -13    1    3    3    0    0  0.95009398329E+02 -0.17557692755E+03 -0.29061852249E+01  0.19965592697E+03  0.00000000000E+00 0.  1.
         22    1    1    2    0    0 -0.28896734626E+03  0.39421307339E+03  0.68566875709E+03  0.84204971283E+03  0.00000000000E+00 0. -1.
<mgrwt>
<rscale>  0 0.11150742E+04</rscale>
<asrwt>0</asrwt>
<pdfrwt beam="1">  1        1 0.45901142E-01 0.11150742E+04</pdfrwt>
<pdfrwt beam="2">  1       -1 0.16028664E+00 0.11150742E+04</pdfrwt>
<totfact> 0.25564479E+01</totfact>
</mgrwt>
</event>
<event>
 6    1  0.2325157E-005  0.1765167E+04  0.7818608E-02  0.8725046E-01
          2   -1    0    0  501    0  0.00000000000E+00  0.00000000000E+00  0.96501645303E+03  0.96501645303E+03  0.00000000000E+00 0.  1.
         -2   -1    0    0    0  501 -0.00000000000E+00 -0.00000000000E+00 -0.80719167313E+03  0.80719167313E+03  0.00000000000E+00 0. -1.
         23    2    1    2    0    0  0.77901275982E+03  0.37653235492E+03  0.24199062380E+03  0.90288575584E+03  0.89474755291E+02 0.  0.
         13    1    3    3    0    0  0.29579411150E+03  0.15046848752E+03  0.48471027458E+02  0.33538688501E+03  0.00000000000E+00 0.  1.
        -13    1    3    3    0    0  0.48321864832E+03  0.22606386740E+03  0.19351959634E+03  0.56749887084E+03  0.00000000000E+00 0. -1.
         22    1    1    2    0    0 -0.77901275982E+03 -0.37653235492E+03 -0.84165843901E+02  0.86932237032E+03  0.00000000000E+00 0.  1.
<mgrwt>
<rscale>  0 0.17651666E+04</rscale>
<asrwt>0</asrwt>
<pdfrwt beam="1">  1        2 0.14846407E+00 0.17651666E+04</pdfrwt>
<pdfrwt beam="2">  1       -2 0.12418333E+00 0.17651666E+04</pdfrwt>
<totfact> 0.12247086E+01</totfact>
</mgrwt>
</event>
<event>
 6    1  0.2325157E-005  0.4939347E+04  0.7818608E-02  0.7837932E-01
         -2   -1    0    0    0  501 -0.00000000000E+00  0.00000000000E+00  0.38817918789E+04  0.38817918789E+04  0.00000000000E+00 0. -1.
          2   -1    0    0  501    0  0.00000000000E+00 -0.00000000000E+00 -0.15712557296E+04  0.15712557296E+04  0.00000000000E+00 0.  1.
         23    2    1    2    0    0  0.13633748127E+04 -0.93742791481E+03 -0.86726135139E+03  0.18703169556E+04  0.91549371739E+02 0.  0.
         13    1    3    3    0    0  0.38306992879E+03 -0.27619706049E+03 -0.29318039659E+03  0.55586161183E+03  0.00000000000E+00 0.  1.
        -13    1    3    3    0    0  0.98030488390E+03 -0.66123085432E+03 -0.57408095480E+03  0.13144553438E+04  0.00000000000E+00 0. -1.
         22    1    1    2    0    0 -0.13633748127E+04  0.93742791481E+03  0.31777975008E+04  0.35827306529E+04  0.00000000000E+00 0. -1.
<mgrwt>
<rscale>  0 0.49393472E+04</rscale>
<asrwt>0</asrwt>
<pdfrwt beam="1">  1        2 0.24173165E+00 0.49393472E+04</pdfrwt>
<pdfrwt beam="2">  1       -2 0.59719875E+00 0.49393472E+04</pdfrwt>
<totfact> 0.44529458E-03</totfact>
</mgrwt>
</event>
<event>
 6    1  0.2325157E-005  0.1873875E+04  0.7818608E-02  0.8667971E-01
          2   -1    0    0  501    0  0.00000000000E+00  0.00000000000E+00  0.23375623522E+04  0.23375623522E+04  0.00000000000E+00 0.  1.
         -2   -1    0    0    0  501 -0.00000000000E+00 -0.00000000000E+00 -0.37554142680E+03  0.37554142680E+03  0.00000000000E+00 0. -1.
         23    2    1    2    0    0  0.51125744246E+03  0.76430531815E+03  0.12268219107E+04  0.15357914232E+04  0.89534927499E+02 0.  0.
         11    1    3    3    0    0  0.60005016856E+02  0.11303980886E+03  0.12707963385E+03  0.18035474425E+03  0.00000000000E+00 0. -1.
        -11    1    3    3    0    0  0.45125242561E+03  0.65126550930E+03  0.10997422768E+04  0.13554366789E+04  0.00000000000E+00 0.  1.
         22    1    1    2    0    0 -0.51125744246E+03 -0.76430531815E+03  0.73519901472E+03  0.11773123558E+04  0.00000000000E+00 0.  1.
<mgrwt>
<rscale>  0 0.18738746E+04</rscale>
<asrwt>0</asrwt>
<pdfrwt beam="1">  1        2 0.35962497E+00 0.18738746E+04</pdfrwt>
<pdfrwt beam="2">  1       -2 0.57775606E-01 0.18738746E+04</pdfrwt>
<totfact> 0.11366084E+01</totfact>
</mgrwt>
</event>
<event>
 6    1  0.2325157E-005  0.2602956E+03  0.7818608E-02  0.1106966E+00
         -2   -1    0    0    0  501 -0.00000000000E+00  0.00000000000E+00  0.75631231622E+01  0.75631231622E+01  0.00000000000E+00 0. -1.
          2   -1    0    0  501    0  0.00000000000E+00 -0.00000000000E+00 -0.22396106081E+04  0.22396106081E+04  0.00000000000E+00 0.  1.
         23    2    1    2    0    0  0.83391354284E+02  0.29254844405E+02 -0.18797276253E+04  0.18839393065E+04  0.89673859588E+02 0.  0.
         13    1    3    3    0    0  0.27462915738E+02  0.28905997301E+02 -0.14548541566E+04  0.14554004210E+04  0.00000000000E+00 0.  1.
        -13    1    3    3    0    0  0.55928438546E+02  0.34884710393E+00 -0.42487346873E+03  0.42853888547E+03  0.00000000000E+00 0. -1.
         22    1    1    2    0    0 -0.83391354284E+02 -0.29254844405E+02 -0.35231985965E+03  0.36323442485E+03  0.00000000000E+00 0. -1.
<mgrwt>
<rscale>  0 0.26029561E+03</rscale>
<asrwt>0</asrwt>
<pdfrwt beam="1">  1        2 0.34455563E+00 0.26029561E+03</pdfrwt>
<pdfrwt beam="2">  1       -2 0.11635569E-02 0.26029561E+03</pdfrwt>
<totfact> 0.94788080E+03</totfact>
</mgrwt>
</event>
<event>
 6    1  0.3025093E-005  0.3138335E+04  0.7818608E-02  0.8205295E-01
         -2   -1    0    0    0  501 -0.00000000000E+00  0.00000000000E+00  0.20360442463E+04  0.20360442463E+04  0.00000000000E+00 0. -1.
          2   -1    0    0  501    0  0.00000000000E+00 -0.00000000000E+00 -0.12093483412E+04  0.12093483412E+04  0.00000000000E+00 0.  1.
         23    2    1    2    0    0 -0.14280394762E+04  0.44885571835E+03 -0.68353307885E+02  0.15012935951E+04  0.91880804865E+02 0.  0.
         13    1    3    3    0    0 -0.75299032286E+03  0.19277228553E+03 -0.16619222945E+02  0.77745210718E+03  0.00000000000E+00 0.  1.
        -13    1    3    3    0    0 -0.67504915337E+03  0.25608343282E+03 -0.51734084940E+02  0.72384148788E+03  0.00000000000E+00 0. -1.
         22    1    1    2    0    0  0.14280394762E+04 -0.44885571835E+03  0.89504921296E+03  0.17440989924E+04  0.00000000000E+00 0.  1.
<mgrwt>
<rscale>  0 0.31383351E+04</rscale>
<asrwt>0</asrwt>
<pdfrwt beam="1">  1        2 0.18605359E+00 0.31383351E+04</pdfrwt>
<pdfrwt beam="2">  1       -2 0.31323758E+00 0.31383351E+04</pdfrwt>
<totfact> 0.41706416E-01</totfact>
</mgrwt>
</event>
<event>
 6    1  0.2325157E-005  0.3509158E+04  0.7818608E-02  0.8111623E-01
         -2   -1    0    0    0  501 -0.00000000000E+00  0.00000000000E+00  0.16199027877E+04  0.16199027877E+04  0.00000000000E+00 0. -1.
          2   -1    0    0  501    0  0.00000000000E+00 -0.00000000000E+00 -0.19004521188E+04  0.19004521188E+04  0.00000000000E+00 0.  1.
         23    2    1    2    0    0 -0.59089062674E+03 -0.14235432538E+04 -0.97894395856E+03  0.18282017858E+04  0.91451448490E+02 0.  0.
         11    1    3    3    0    0 -0.15219678026E+03 -0.41175172073E+03 -0.23494879768E+03  0.49789986642E+03  0.00000000000E+00 0.  1.
        -11    1    3    3    0    0 -0.43869384647E+03 -0.10117915330E+04 -0.74399516087E+03  0.13303019194E+04  0.00000000000E+00 0. -1.
         22    1    1    2    0    0  0.59089062674E+03  0.14235432538E+04  0.69839462744E+03  0.16921531207E+04  0.00000000000E+00 0. -1.
<mgrwt>
<rscale>  0 0.35091581E+04</rscale>
<asrwt>0</asrwt>
<pdfrwt beam="1">  1        2 0.29237725E+00 0.35091581E+04</pdfrwt>
<pdfrwt beam="2">  1       -2 0.24921581E+00 0.35091581E+04</pdfrwt>
<totfact> 0.40493953E-01</totfact>
</mgrwt>
</event>
<event>
 6    1  0.2325157E-005  0.4501986E+04  0.7818608E-02  0.7910289E-01
          2   -1    0    0  501    0  0.00000000000E+00  0.00000000000E+00  0.28807441106E+04  0.28807441106E+04  0.00000000000E+00 0.  1.
         -2   -1    0    0    0  501 -0.00000000000E+00 -0.00000000000E+00 -0.17589099103E+04  0.17589099103E+04  0.00000000000E+00 0. -1.
         23    2    1    2    0    0  0.51405193800E+03 -0.50782189897E+03 -0.16347657819E+04  0.17899214127E+04  0.96057409763E+02 0.  0.
         13    1    3    3    0    0  0.10490049917E+03 -0.58807752027E+02 -0.23355347646E+03  0.26269695999E+03  0.00000000000E+00 0. -1.
        -13    1    3    3    0    0  0.40915143883E+03 -0.44901414694E+03 -0.14012123055E+04  0.15272244527E+04  0.00000000000E+00 0.  1.
         22    1    1    2    0    0 -0.51405193800E+03  0.50782189897E+03  0.27565999822E+04  0.28497326082E+04  0.00000000000E+00 0.  1.
<mgrwt>
<rscale>  0 0.45019859E+04</rscale>
<asrwt>0</asrwt>
<pdfrwt beam="1">  1        2 0.44319140E+00 0.45019859E+04</pdfrwt>
<pdfrwt beam="2">  1       -2 0.27060152E+00 0.45019859E+04</pdfrwt>
<totfact> 0.75144144E-02</totfact>
</mgrwt>
</event>
<event>
 6    1  0.2325157E-005  0.2089076E+04  0.7818608E-02  0.8566071E-01
         -2   -1    0    0    0  501 -0.00000000000E+00  0.00000000000E+00  0.35043322303E+03  0.35043322303E+03  0.00000000000E+00 0. -1.
          2   -1    0    0  501    0  0.00000000000E+00 -0.00000000000E+00 -0.31134593995E+04  0.31134593995E+04  0.00000000000E+00 0.  1.
         23    2    1    2    0    0  0.15761863755E+02  0.10369148983E+04 -0.12067124405E+04  0.15937179281E+04  0.91328954198E+02 0.  0.
         13    1    3    3    0    0 -0.34351922814E+02  0.45254914722E+03 -0.49781796409E+03  0.67364939740E+03  0.00000000000E+00 0. -1.
        -13    1    3    3    0    0  0.50113786569E+02  0.58436575107E+03 -0.70889447638E+03  0.92006853074E+03  0.00000000000E+00 0.  1.
         22    1    1    2    0    0 -0.15761863755E+02 -0.10369148983E+04 -0.15563137360E+04  0.18701746944E+04  0.00000000000E+00 0.  1.
<mgrwt>
<rscale>  0 0.20890760E+04</rscale>
<asrwt>0</asrwt>
<pdfrwt beam="1">  1        2 0.47899374E+00 0.20890760E+04</pdfrwt>
<pdfrwt beam="2">  1       -2 0.53912806E-01 0.20890760E+04</pdfrwt>
<totfact> 0.44201446E+00</totfact>
</mgrwt>
</event>
<event>
 6    1  0.2325157E-005  0.1526445E+04  0.7818608E-02  0.8867055E-01
          2   -1    0    0  501    0  0.00000000000E+00  0.00000000000E+00  0.13222506229E+04  0.13222506229E+04  0.00000000000E+00 0.  1.
         -2   -1    0    0    0  501 -0.00000000000E+00 -0.00000000000E+00 -0.44054341890E+03  0.44054341890E+03  0.00000000000E+00 0. -1.
         23    2    1    2    0    0 -0.40677132216E+03  0.60777726458E+03  0.68327924887E+03  0.10050145453E+04  0.91255643621E+02 0.  0.
         13    1    3    3    0    0 -0.23280548245E+03  0.30017770794E+03  0.30326832623E+03  0.48608304506E+03  0.00000000000E+00 0. -1.
        -13    1    3    3    0    0 -0.17396583971E+03  0.30759955663E+03  0.38001092265E+03  0.51893150026E+03  0.00000000000E+00 0.  1.
         22    1    1    2    0    0  0.40677132216E+03 -0.60777726458E+03  0.19842795509E+03  0.75777949644E+03  0.00000000000E+00 0.  1.
<mgrwt>
<rscale>  0 0.15264453E+04</rscale>
<asrwt>0</asrwt>
<pdfrwt beam="1">  1        2 0.20342317E+00 0.15264453E+04</pdfrwt>
<pdfrwt beam="2">  1       -2 0.67775911E-01 0.15264453E+04</pdfrwt>
<totfact> 0.30857737E+01</totfact>
</mgrwt>
</event>
<event>
 6    1  0.2325157E-005  0.1935977E+04  0.7818608E-02  0.8637153E-01
         -2   -1    0    0    0  501 -0.00000000000E+00  0.00000000000E+00  0.16640937249E+04  0.16640937249E+04  0.00000000000E+00 0. -1.
          2   -1    0    0  501    0  0.00000000000E+00 -0.00000000000E+00 -0.56307015890E+03  0.56307015890E+03  0.00000000000E+00 0.  1.
         23    2    1    2    0    0 -0.40831630275E+03  0.97628479110E+02  0.15524500037E+04  0.16106905659E+04  0.89272402953E+02 0.  0.
         13    1    3    3    0    0 -0.17841870701E+03  0.63303703673E+02  0.55093535005E+03  0.58255502216E+03  0.00000000000E+00 0.  1.
        -13    1    3    3    0    0 -0.22989759573E+03  0.34324775437E+02  0.10015146537E+04  0.10281355437E+04  0.00000000000E+00 0. -1.
         22    1    1    2    0    0  0.40831630275E+03 -0.97628479110E+02 -0.45142643772E+03  0.61647331791E+03  0.00000000000E+00 0.  1.
<mgrwt>
<rscale>  0 0.19359768E+04</rscale>
<asrwt>0</asrwt>
<pdfrwt beam="1">  1        2 0.86626179E-01 0.19359768E+04</pdfrwt>
<pdfrwt beam="2">  1       -2 0.25601442E+00 0.19359768E+04</pdfrwt>
<totfact> 0.29505120E+00</totfact>
</mgrwt>
</event>
<event>
 6    1  0.2325157E-005  0.3450669E+04  0.7818608E-02  0.8125581E-01
         -2   -1    0    0    0  501 -0.00000000000E+00  0.00000000000E+00  0.14330903202E+04  0.14330903202E+04  0.00000000000E+00 0. -1.
          2   -1    0    0  501    0  0.00000000000E+00 -0.00000000000E+00 -0.20771751489E+04  0.20771751489E+04  0.00000000000E+00 0.  1.
         23    2    1    2    0    0 -0.38570753727E+03  0.15290720762E+04 -0.10309729206E+04  0.18865308497E+04  0.96238065958E+02 0.  0.
         13    1    3    3    0    0 -0.65876506649E+02  0.16716757520E+03 -0.93952943134E+02  0.20276061710E+03  0.00000000000E+00 0.  1.
        -13    1    3    3    0    0 -0.31983103062E+03  0.13619045010E+04 -0.93701997750E+03  0.16837702326E+04  0.00000000000E+00 0. -1.
         22    1    1    2    0    0  0.38570753727E+03 -0.15290720762E+04  0.38688809196E+03  0.16237346194E+04  0.00000000000E+00 0. -1.
<mgrwt>
<rscale>  0 0.34506693E+04</rscale>
<asrwt>0</asrwt>
<pdfrwt beam="1">  1        2 0.31956541E+00 0.34506693E+04</pdfrwt>
<pdfrwt beam="2">  1       -2 0.22047543E+00 0.34506693E+04</pdfrwt>
<totfact> 0.49002525E-01</totfact>
</mgrwt>
</event>
<event>
 6    1  0.2325157E-005  0.3800547E+04  0.7818608E-02  0.8046038E-01
         -2   -1    0    0    0  501 -0.00000000000E+00  0.00000000000E+00  0.14310868092E+04  0.14310868092E+04  0.00000000000E+00 0. -1.
          2   -1    0    0  501    0  0.00000000000E+00 -0.00000000000E+00 -0.25232843468E+04  0.25232843468E+04  0.00000000000E+00 0.  1.
         23    2    1    2    0    0  0.12527319746E+04  0.27224781083E+01  0.93879703515E+03  0.15681013124E+04  0.90868260382E+02 0.  0.
         13    1    3    3    0    0  0.35333341618E+03  0.24821703929E+02  0.30722275174E+03  0.46887785100E+03  0.00000000000E+00 0. -1.
        -13    1    3    3    0    0  0.89939855844E+03 -0.22099225820E+02  0.63157428341E+03  0.10992234614E+04  0.00000000000E+00 0.  1.
         22    1    1    2    0    0 -0.12527319746E+04 -0.27224781083E+01 -0.20309945727E+04  0.23862698436E+04  0.00000000000E+00 0.  1.
<mgrwt>
<rscale>  0 0.38005468E+04</rscale>
<asrwt>0</asrwt>
<pdfrwt beam="1">  1        2 0.38819759E+00 0.38005468E+04</pdfrwt>
<pdfrwt beam="2">  1       -2 0.22016720E+00 0.38005468E+04</pdfrwt>
<totfact> 0.26673181E-01</totfact>
</mgrwt>
</event>
<event>
 6    1  0.2325157E-005  0.4648257E+04  0.7818608E-02  0.7885183E-01
         -2   -1    0    0    0  501 -0.00000000000E+00  0.00000000000E+00  0.29704624042E+04  0.29704624042E+04  0.00000000000E+00 0. -1.
          2   -1    0    0  501    0  0.00000000000E+00 -0.00000000000E+00 -0.18184280520E+04  0.18184280520E+04  0.00000000000E+00 0.  1.
         23    2    1    2    0    0  0.70208771525E+02 -0.50167903319E+03  0.29121950246E+04  0.29572854998E+04  0.89702520017E+02 0.  0.
         11    1    3    3    0    0  0.20812714463E+01 -0.25512891983E+03  0.16269873357E+04  0.16468706348E+04  0.00000000000E+00 0.  1.
        -11    1    3    3    0    0  0.68127500079E+02 -0.24655011336E+03  0.12852076889E+04  0.13104148649E+04  0.00000000000E+00 0. -1.
         22    1    1    2    0    0 -0.70208771525E+02  0.50167903319E+03 -0.17601606723E+04  0.18316049564E+04  0.00000000000E+00 0.  1.
<mgrwt>
<rscale>  0 0.46482565E+04</rscale>
<asrwt>0</asrwt>
<pdfrwt beam="1">  1        2 0.27975816E+00 0.46482565E+04</pdfrwt>
<pdfrwt beam="2">  1       -2 0.45699422E+00 0.46482565E+04</pdfrwt>
<totfact> 0.19732537E-02</totfact>
</mgrwt>
</event>
<event>
 6    1  0.2325157E-005  0.2184342E+04  0.7818608E-02  0.8524974E-01
          2   -1    0    0  501    0  0.00000000000E+00  0.00000000000E+00  0.19779073634E+04  0.19779073634E+04  0.00000000000E+00 0.  1.
         -2   -1    0    0    0  501 -0.00000000000E+00 -0.00000000000E+00 -0.60308074177E+03  0.60308074177E+03  0.00000000000E+00 0. -1.
         23    2    1    2    0    0 -0.96285960822E+03 -0.49074617938E+03  0.85836086500E+03  0.13832121180E+04  0.92530811418E+02 0.  0.
         11    1    3    3    0    0 -0.33704511324E+03 -0.22164959712E+03  0.31285699664E+03  0.51049726014E+03  0.00000000000E+00 0. -1.
        -11    1    3    3    0    0 -0.62581449498E+03 -0.26909658226E+03  0.54550386836E+03  0.87271485784E+03  0.00000000000E+00 0.  1.
         22    1    1    2    0    0  0.96285960822E+03  0.49074617938E+03  0.51646575663E+03  0.11977759872E+04  0.00000000000E+00 0. -1.
<mgrwt>
<rscale>  0 0.21843423E+04</rscale>
<asrwt>0</asrwt>
<pdfrwt beam="1">  1        2 0.30429344E+00 0.21843423E+04</pdfrwt>
<pdfrwt beam="2">  1       -2 0.92781654E-01 0.21843423E+04</pdfrwt>
<totfact> 0.61943127E+00</totfact>
</mgrwt>
</event>
<event>
 6    1  0.2325157E-005  0.2490160E+04  0.7818608E-02  0.8406499E-01
          2   -1    0    0  501    0  0.00000000000E+00  0.00000000000E+00  0.61488782195E+03  0.61488782195E+03  0.00000000000E+00 0.  1.
         -2   -1    0    0    0  501 -0.00000000000E+00 -0.00000000000E+00 -0.25211499409E+04  0.25211499409E+04  0.00000000000E+00 0. -1.
         23    2    1    2    0    0 -0.11630500008E+04 -0.82319419639E+02 -0.14982762527E+04  0.19007587425E+04  0.92683743847E+02 0.  0.
         13    1    3    3    0    0 -0.77490335147E+03 -0.11625254953E+02 -0.10053976701E+04  0.12694230287E+04  0.00000000000E+00 0.  1.
        -13    1    3    3    0    0 -0.38814664932E+03 -0.70694164686E+02 -0.49287858266E+03  0.63133571382E+03  0.00000000000E+00 0. -1.
         22    1    1    2    0    0  0.11630500008E+04  0.82319419639E+02 -0.40798586623E+03  0.12352790204E+04  0.00000000000E+00 0. -1.
<mgrwt>
<rscale>  0 0.24901602E+04</rscale>
<asrwt>0</asrwt>
<pdfrwt beam="1">  1        2 0.94598125E-01 0.24901602E+04</pdfrwt>
<pdfrwt beam="2">  1       -2 0.38786923E+00 0.24901602E+04</pdfrwt>
<totfact> 0.38279232E-01</totfact>
</mgrwt>
</event>
<event>
 6    1  0.2325157E-005  0.2642376E+04  0.7818608E-02  0.8353948E-01
          2   -1    0    0  501    0  0.00000000000E+00  0.00000000000E+00  0.28191611630E+04  0.28191611630E+04  0.00000000000E+00 0.  1.
         -2   -1    0    0    0  501 -0.00000000000E+00 -0.00000000000E+00 -0.61916920066E+03  0.61916920066E+03  0.00000000000E+00 0. -1.
         23    2    1    2    0    0 -0.24239249806E+03  0.97766568275E+03  0.22109006579E+04  0.24310055352E+04  0.84391247521E+02 0.  0.
         11    1    3    3    0    0 -0.22878928433E+03  0.87793043007E+03  0.20403595255E+04  0.22329741086E+04  0.00000000000E+00 0. -1.
        -11    1    3    3    0    0 -0.13603213730E+02  0.99735252679E+02  0.17054113246E+03  0.19803142657E+03  0.00000000000E+00 0.  1.
         22    1    1    2    0    0  0.24239249806E+03 -0.97766568275E+03 -0.10908695596E+02  0.10073248284E+04  0.00000000000E+00 0. -1.
<mgrwt>
<rscale>  0 0.26423760E+04</rscale>
<asrwt>0</asrwt>
<pdfrwt beam="1">  1        2 0.43371710E+00 0.26423760E+04</pdfrwt>
<pdfrwt beam="2">  1       -2 0.95256801E-01 0.26423760E+04</pdfrwt>
<totfact> 0.18374624E+00</totfact>
</mgrwt>
</event>
<event>
 6    1  0.2325157E-005  0.1795353E+04  0.7818608E-02  0.8708774E-01
         -2   -1    0    0    0  501 -0.00000000000E+00  0.00000000000E+00  0.46589979068E+03  0.46589979068E+03  0.00000000000E+00 0. -1.
          2   -1    0    0  501    0  0.00000000000E+00 -0.00000000000E+00 -0.17296068620E+04  0.17296068620E+04  0.00000000000E+00 0.  1.
         23    2    1    2    0    0  0.42912989706E+03 -0.60156448320E+03 -0.12516652984E+04  0.14564685615E+04  0.92748883568E+02 0.  0.
         13    1    3    3    0    0  0.34117408025E+03 -0.48297910658E+03 -0.10684339628E+04  0.12211550693E+04  0.00000000000E+00 0. -1.
        -13    1    3    3    0    0  0.87955816812E+02 -0.11858537662E+03 -0.18323133558E+03  0.23531349217E+03  0.00000000000E+00 0.  1.
         22    1    1    2    0    0 -0.42912989706E+03  0.60156448320E+03 -0.12041772975E+02  0.73903809124E+03  0.00000000000E+00 0. -1.
<mgrwt>
<rscale>  0 0.17953534E+04</rscale>
<asrwt>0</asrwt>
<pdfrwt beam="1">  1        2 0.26609336E+00 0.17953534E+04</pdfrwt>
<pdfrwt beam="2">  1       -2 0.71676891E-01 0.17953534E+04</pdfrwt>
<totfact> 0.15736236E+01</totfact>
</mgrwt>
</event>
<event>
 6    1  0.2325157E-005  0.3821437E+04  0.7818608E-02  0.8041570E-01
          2   -1    0    0  501    0  0.00000000000E+00  0.00000000000E+00  0.21394276271E+04  0.21394276271E+04  0.00000000000E+00 0.  1.
         -2   -1    0    0    0  501 -0.00000000000E+00 -0.00000000000E+00 -0.17064592818E+04  0.17064592818E+04  0.00000000000E+00 0. -1.
         23    2    1    2    0    0  0.12038273215E+04  0.14473433346E+03 -0.12678593675E+04  0.17571161805E+04  0.99205084867E+02 0.  0.
         11    1    3    3    0    0  0.25390502583E+03  0.64958757890E+02 -0.30621190327E+03  0.40305475072E+03  0.00000000000E+00 0.  1.
        -11    1    3    3    0    0  0.94992229562E+03  0.79775575569E+02 -0.96164746421E+03  0.13540614298E+04  0.00000000000E+00 0. -1.
         22    1    1    2    0    0 -0.12038273215E+04 -0.14473433346E+03  0.17008277128E+04  0.20887707284E+04  0.00000000000E+00 0.  1.
<mgrwt>
<rscale>  0 0.38214375E+04</rscale>
<asrwt>0</asrwt>
<pdfrwt beam="1">  1        2 0.32914271E+00 0.38214375E+04</pdfrwt>
<pdfrwt beam="2">  1       -2 0.26253220E+00 0.38214375E+04</pdfrwt>
<totfact> 0.24067321E-01</totfact>
</mgrwt>
</event>
<event>
 6    1  0.2325157E-005  0.1500606E+04  0.7818608E-02  0.8884050E-01
         -1   -1    0    0    0  501 -0.00000000000E+00  0.00000000000E+00  0.58965290132E+03  0.58965290132E+03  0.00000000000E+00 0.  1.
          1   -1    0    0  501    0  0.00000000000E+00 -0.00000000000E+00 -0.95472167623E+03  0.95472167623E+03  0.00000000000E+00 0. -1.
         23    2    1    2    0    0  0.28127937281E+03 -0.62892738192E+03 -0.48160886116E+03  0.84562617576E+03  0.92026065205E+02 0.  0.
         11    1    3    3    0    0  0.50410017094E+02 -0.18516622901E+03 -0.16932000461E+03  0.25592375066E+03  0.00000000000E+00 0. -1.
        -11    1    3    3    0    0  0.23086935572E+03 -0.44376115291E+03 -0.31228885655E+03  0.58970242510E+03  0.00000000000E+00 0.  1.
         22    1    1    2    0    0 -0.28127937281E+03  0.62892738192E+03  0.11654008625E+03  0.69874840179E+03  0.00000000000E+00 0.  1.
<mgrwt>
<rscale>  0 0.15006058E+04</rscale>
<asrwt>0</asrwt>
<pdfrwt beam="1">  1        1 0.14688026E+00 0.15006058E+04</pdfrwt>
<pdfrwt beam="2">  1       -1 0.90715833E-01 0.15006058E+04</pdfrwt>
<totfact> 0.18870714E+01</totfact>
</mgrwt>
</event>
<event>
 6    1  0.2325157E-005  0.1383288E+04  0.7818608E-02  0.8966005E-01
          2   -1    0    0  501    0  0.00000000000E+00  0.00000000000E+00  0.55904723718E+03  0.55904723718E+03  0.00000000000E+00 0.  1.
         -2   -1    0    0    0  501 -0.00000000000E+00 -0.00000000000E+00 -0.85569041769E+03  0.85569041769E+03  0.00000000000E+00 0. -1.
         23    2    1    2    0    0  0.51709205937E+02  0.68361024159E+03 -0.21341372651E+03  0.72414085036E+03  0.94009298043E+02 0.  0.
         13    1    3    3    0    0  0.14494933231E+02  0.34918739802E+03 -0.15627656150E+03  0.38283717910E+03  0.00000000000E+00 0. -1.
        -13    1    3    3    0    0  0.37214272706E+02  0.33442284357E+03 -0.57137165008E+02  0.34130367126E+03  0.00000000000E+00 0.  1.
         22    1    1    2    0    0 -0.51709205937E+02 -0.68361024159E+03 -0.83229454004E+02  0.69059680451E+03  0.00000000000E+00 0. -1.
<mgrwt>
<rscale>  0 0.13832879E+04</rscale>
<asrwt>0</asrwt>
<pdfrwt beam="1">  1        2 0.86007268E-01 0.13832879E+04</pdfrwt>
<pdfrwt beam="2">  1       -2 0.13164468E+00 0.13832879E+04</pdfrwt>
<totfact> 0.22122355E+01</totfact>
</mgrwt>
</event>
<event>
 6    1  0.2325157E-005  0.2478358E+04  0.7818608E-02  0.8410736E-01
          2   -1    0    0  501    0  0.00000000000E+00  0.00000000000E+00  0.99537567346E+03  0.99537567346E+03  0.00000000000E+00 0.  1.
         -2   -1    0    0    0  501 -0.00000000000E+00 -0.00000000000E+00 -0.15426990537E+04  0.15426990537E+04  0.00000000000E+00 0. -1.
         23    2    1    2    0    0  0.30770516381E+02 -0.11109196011E+04 -0.83152763013E+03  0.13909647759E+04  0.90860460678E+02 0.  0.
         13    1    3    3    0    0 -0.12394293372E+02 -0.29445255637E+03 -0.17829048314E+03  0.34444654569E+03  0.00000000000E+00 0. -1.
        -13    1    3    3    0    0  0.43164809753E+02 -0.81646704472E+03 -0.65323714699E+03  0.10465182302E+04  0.00000000000E+00 0.  1.
         22    1    1    2    0    0 -0.30770516381E+02  0.11109196011E+04  0.28420424986E+03  0.11471099513E+04  0.00000000000E+00 0. -1.
<mgrwt>
<rscale>  0 0.24783584E+04</rscale>
<asrwt>0</asrwt>
<pdfrwt beam="1">  1        2 0.15313472E+00 0.24783584E+04</pdfrwt>
<pdfrwt beam="2">  1       -2 0.23733832E+00 0.24783584E+04</pdfrwt>
<totfact> 0.17433363E+00</totfact>
</mgrwt>
</event>
<event>
 6    1  0.2325157E-005  0.8629975E+03  0.7818608E-02  0.9473056E-01
         -2   -1    0    0    0  501 -0.00000000000E+00  0.00000000000E+00  0.90751420179E+02  0.90751420179E+02  0.00000000000E+00 0. -1.
          2   -1    0    0  501    0  0.00000000000E+00 -0.00000000000E+00 -0.20516612184E+04  0.20516612184E+04  0.00000000000E+00 0.  1.
         23    2    1    2    0    0 -0.27951193786E+03 -0.29825882789E+03 -0.12945288672E+04  0.13606525750E+04  0.92115090623E+02 0.  0.
         13    1    3    3    0    0 -0.20690690843E+02 -0.67877566242E+02 -0.26720872545E+03  0.27647056198E+03  0.00000000000E+00 0. -1.
        -13    1    3    3    0    0 -0.25882124702E+03 -0.23038126165E+03 -0.10273201418E+04  0.10841820130E+04  0.00000000000E+00 0.  1.
         22    1    1    2    0    0  0.27951193786E+03  0.29825882789E+03 -0.66638093094E+03  0.78176006354E+03  0.00000000000E+00 0. -1.
<mgrwt>
<rscale>  0 0.86299750E+03</rscale>
<asrwt>0</asrwt>
<pdfrwt beam="1">  1        2 0.31564021E+00 0.86299750E+03</pdfrwt>
<pdfrwt beam="2">  1       -2 0.13961756E-01 0.86299750E+03</pdfrwt>
<totfact> 0.25114524E+02</totfact>
</mgrwt>
</event>
<event>
 6    1  0.2325157E-005  0.2250354E+04  0.7818608E-02  0.8497757E-01
         -2   -1    0    0    0  501 -0.00000000000E+00  0.00000000000E+00  0.66675423148E+03  0.66675423148E+03  0.00000000000E+00 0. -1.
          2   -1    0    0  501    0  0.00000000000E+00 -0.00000000000E+00 -0.18987862468E+04  0.18987862468E+04  0.00000000000E+00 0.  1.
         23    2    1    2    0    0 -0.72918318147E+03 -0.68059940949E+03 -0.28525275604E+02  0.10024179172E+04  0.95416566245E+02 0.  0.
         11    1    3    3    0    0 -0.29111340106E+03 -0.32909522316E+03 -0.34498482669E+02  0.44072760691E+03  0.00000000000E+00 0.  1.
        -11    1    3    3    0    0 -0.43806978041E+03 -0.35150418633E+03  0.59732070649E+01  0.56169031033E+03  0.00000000000E+00 0. -1.
         22    1    1    2    0    0  0.72918318147E+03  0.68059940949E+03 -0.12035067397E+04  0.15631225611E+04  0.00000000000E+00 0.  1.
<mgrwt>
<rscale>  0 0.22503544E+04</rscale>
<asrwt>0</asrwt>
<pdfrwt beam="1">  1        2 0.29212096E+00 0.22503544E+04</pdfrwt>
<pdfrwt beam="2">  1       -2 0.10257758E+00 0.22503544E+04</pdfrwt>
<totfact> 0.53816686E+00</totfact>
</mgrwt>
</event>
<event>
 6    1  0.2325157E-005  0.2032954E+04  0.7818608E-02  0.8591367E-01
         -2   -1    0    0    0  501 -0.00000000000E+00  0.00000000000E+00  0.11405534637E+04  0.11405534637E+04  0.00000000000E+00 0. -1.
          2   -1    0    0  501    0  0.00000000000E+00 -0.00000000000E+00 -0.90589833302E+03  0.90589833302E+03  0.00000000000E+00 0.  1.
         23    2    1    2    0    0 -0.40802826284E+03 -0.16850796715E+03  0.10368593923E+04  0.11308024776E+04  0.93567333101E+02 0.  0.
         11    1    3    3    0    0 -0.18210218549E+03 -0.94846122408E+02  0.58971294851E+03  0.62443442773E+03  0.00000000000E+00 0. -1.
        -11    1    3    3    0    0 -0.22592607736E+03 -0.73661844745E+02  0.44714644376E+03  0.50636804991E+03  0.00000000000E+00 0.  1.
         22    1    1    2    0    0  0.40802826284E+03  0.16850796715E+03 -0.80220426157E+03  0.91564931910E+03  0.00000000000E+00 0.  1.
<mgrwt>
<rscale>  0 0.20329540E+04</rscale>
<asrwt>0</asrwt>
<pdfrwt beam="1">  1        2 0.13936897E+00 0.20329540E+04</pdfrwt>
<pdfrwt beam="2">  1       -2 0.17546976E+00 0.20329540E+04</pdfrwt>
<totfact> 0.52475133E+00</totfact>
</mgrwt>
</event>
<event>
 6    1  0.2325157E-005  0.2494151E+04  0.7818608E-02  0.8405072E-01
          2   -1    0    0  501    0  0.00000000000E+00  0.00000000000E+00  0.26428777122E+04  0.26428777122E+04  0.00000000000E+00 0.  1.
         -2   -1    0    0    0  501 -0.00000000000E+00 -0.00000000000E+00 -0.58844845782E+03  0.58844845782E+03  0.00000000000E+00 0. -1.
         23    2    1    2    0    0 -0.21281596931E+03  0.65372964691E+03 -0.31682258459E+03  0.76242188433E+03  0.90870740871E+02 0.  0.
         13    1    3    3    0    0 -0.15017558593E+03  0.44822591172E+03 -0.26297029263E+03  0.54093673322E+03  0.00000000000E+00 0. -1.
        -13    1    3    3    0    0 -0.62640383382E+02  0.20550373520E+03 -0.53852291957E+02  0.22148515110E+03  0.00000000000E+00 0.  1.
         22    1    1    2    0    0  0.21281596931E+03 -0.65372964691E+03  0.23712518390E+04  0.24689042857E+04  0.00000000000E+00 0.  1.
<mgrwt>
<rscale>  0 0.24941510E+04</rscale>
<asrwt>0</asrwt>
<pdfrwt beam="1">  1        2 0.40659656E+00 0.24941510E+04</pdfrwt>
<pdfrwt beam="2">  1       -2 0.90530534E-01 0.24941510E+04</pdfrwt>
<totfact> 0.26706366E+00</totfact>
</mgrwt>
</event>
<event>
 6    1  0.2325157E-005  0.1972839E+04  0.7818608E-02  0.8619425E-01
         -2   -1    0    0    0  501 -0.00000000000E+00  0.00000000000E+00  0.67053525103E+03  0.67053525103E+03  0.00000000000E+00 0. -1.
          2   -1    0    0  501    0  0.00000000000E+00 -0.00000000000E+00 -0.14511150015E+04  0.14511150015E+04  0.00000000000E+00 0.  1.
         23    2    1    2    0    0  0.66426703946E+03  0.26587633943E+02 -0.11719491679E+04  0.13502051003E+04  0.87357648190E+02 0.  0.
         11    1    3    3    0    0  0.48307135925E+03  0.12434235857E+02 -0.92459275980E+03  0.10432565935E+04  0.00000000000E+00 0. -1.
        -11    1    3    3    0    0  0.18119568021E+03  0.14153398086E+02 -0.24735640807E+03  0.30694850679E+03  0.00000000000E+00 0.  1.
         22    1    1    2    0    0 -0.66426703946E+03 -0.26587633943E+02  0.39136941743E+03  0.77144515223E+03  0.00000000000E+00 0. -1.
<mgrwt>
<rscale>  0 0.19728393E+04</rscale>
<asrwt>0</asrwt>
<pdfrwt beam="1">  1        2 0.22324846E+00 0.19728393E+04</pdfrwt>
<pdfrwt beam="2">  1       -2 0.10315927E+00 0.19728393E+04</pdfrwt>
<totfact> 0.96632224E+00</totfact>
</mgrwt>
</event>
<event>
 6    1  0.2325157E-005  0.2446061E+04  0.7818608E-02  0.8422458E-01
          2   -1    0    0  501    0  0.00000000000E+00  0.00000000000E+00  0.26708271734E+04  0.26708271734E+04  0.00000000000E+00 0.  1.
         -2   -1    0    0    0  501 -0.00000000000E+00 -0.00000000000E+00 -0.56005238223E+03  0.56005238223E+03  0.00000000000E+00 0. -1.
         23    2    1    2    0    0  0.11976345080E+04  0.23920300367E+03  0.10665887229E+04  0.16240593924E+04  0.91711038556E+02 0.  0.
         11    1    3    3    0    0  0.70883932793E+03  0.10681378495E+03  0.66411662960E+03  0.97719664101E+03  0.00000000000E+00 0. -1.
        -11    1    3    3    0    0  0.48879518008E+03  0.13238921872E+03  0.40247209327E+03  0.64686275141E+03  0.00000000000E+00 0.  1.
         22    1    1    2    0    0 -0.11976345080E+04 -0.23920300367E+03  0.10441860683E+04  0.16068201632E+04  0.00000000000E+00 0. -1.
<mgrwt>
<rscale>  0 0.24460606E+04</rscale>
<asrwt>0</asrwt>
<pdfrwt beam="1">  1        2 0.41089648E+00 0.24460606E+04</pdfrwt>
<pdfrwt beam="2">  1       -2 0.86161906E-01 0.24460606E+04</pdfrwt>
<totfact> 0.28920008E+00</totfact>
</mgrwt>
</event>
<event>
 6    1  0.3316541E-005  0.3551489E+04  0.7818608E-02  0.8101695E-01
         -2   -1    0    0    0  501 -0.00000000000E+00  0.00000000000E+00  0.18489860008E+04  0.18489860008E+04  0.00000000000E+00 0. -1.
          2   -1    0    0  501    0  0.00000000000E+00 -0.00000000000E+00 -0.17054038715E+04  0.17054038715E+04  0.00000000000E+00 0.  1.
         23    2    1    2    0    0  0.68867824023E+03 -0.14438672816E+04 -0.69658330320E+03  0.17474841195E+04  0.97169974579E+02 0.  0.
         11    1    3    3    0    0  0.22565353915E+03 -0.39218612369E+03 -0.22585021870E+03  0.50570524679E+03  0.00000000000E+00 0.  1.
        -11    1    3    3    0    0  0.46302470108E+03 -0.10516811579E+04 -0.47073308450E+03  0.12417788727E+04  0.00000000000E+00 0. -1.
         22    1    1    2    0    0 -0.68867824023E+03  0.14438672816E+04  0.84016543247E+03  0.18069057528E+04  0.00000000000E+00 0. -1.
<mgrwt>
<rscale>  0 0.35514886E+04</rscale>
<asrwt>0</asrwt>
<pdfrwt beam="1">  1        2 0.26236983E+00 0.35514886E+04</pdfrwt>
<pdfrwt beam="2">  1       -2 0.28445938E+00 0.35514886E+04</pdfrwt>
<totfact> 0.31522037E-01</totfact>
</mgrwt>
</event>
<event>
 6    1  0.2325157E-005  0.4176176E+04  0.7818608E-02  0.7969920E-01
         -2   -1    0    0    0  501 -0.00000000000E+00  0.00000000000E+00  0.12279651854E+04  0.12279651854E+04  0.00000000000E+00 0.  1.
          2   -1    0    0  501    0  0.00000000000E+00 -0.00000000000E+00 -0.35506795184E+04  0.35506795184E+04  0.00000000000E+00 0. -1.
         23    2    1    2    0    0  0.16574724158E+04  0.10056856969E+04 -0.27751211356E+03  0.19605831983E+04  0.90856888578E+02 0.  0.
         11    1    3    3    0    0  0.11823138816E+04  0.72369356562E+03 -0.23937460496E+03  0.14067333411E+04  0.00000000000E+00 0. -1.
        -11    1    3    3    0    0  0.47515853422E+03  0.28199213132E+03 -0.38137508592E+02  0.55384985721E+03  0.00000000000E+00 0.  1.
         22    1    1    2    0    0 -0.16574724158E+04 -0.10056856969E+04 -0.20452022195E+04  0.28180615055E+04  0.00000000000E+00 0. -1.
<mgrwt>
<rscale>  0 0.41761757E+04</rscale>
<asrwt>0</asrwt>
<pdfrwt beam="1">  1        2 0.54625838E+00 0.41761757E+04</pdfrwt>
<pdfrwt beam="2">  1       -2 0.18891772E+00 0.41761757E+04</pdfrwt>
<totfact> 0.91605058E-02</totfact>
</mgrwt>
</event>
<event>
 6    1  0.2325157E-005  0.4877512E+04  0.7818608E-02  0.7847685E-01
         -2   -1    0    0    0  501 -0.00000000000E+00  0.00000000000E+00  0.31567280293E+04  0.31567280293E+04  0.00000000000E+00 0. -1.
          2   -1    0    0  501    0  0.00000000000E+00 -0.00000000000E+00 -0.18840806531E+04  0.18840806531E+04  0.00000000000E+00 0.  1.
         23    2    1    2    0    0  0.31732221526E+03 -0.15775290248E+04 -0.12561781012E+04  0.20434349140E+04  0.91387162631E+02 0.  0.
         11    1    3    3    0    0  0.22602712302E+03 -0.10027618198E+04 -0.84842478022E+03  0.13328331235E+04  0.00000000000E+00 0. -1.
        -11    1    3    3    0    0  0.91295092245E+02 -0.57476720504E+03 -0.40775332095E+03  0.71060179046E+03  0.00000000000E+00 0.  1.
         22    1    1    2    0    0 -0.31732221526E+03  0.15775290248E+04  0.25288254773E+04  0.29973737683E+04  0.00000000000E+00 0. -1.
<mgrwt>
<rscale>  0 0.48775117E+04</rscale>
<asrwt>0</asrwt>
<pdfrwt beam="1">  1        2 0.28985856E+00 0.48775117E+04</pdfrwt>
<pdfrwt beam="2">  1       -2 0.48565047E+00 0.48775117E+04</pdfrwt>
<totfact> 0.11629813E-02</totfact>
</mgrwt>
</event>
<event>
 6    1  0.2325157E-005  0.1922644E+04  0.7818608E-02  0.8643666E-01
          2   -1    0    0  501    0  0.00000000000E+00  0.00000000000E+00  0.14300457034E+04  0.14300457034E+04  0.00000000000E+00 0.  1.
         -2   -1    0    0    0  501 -0.00000000000E+00 -0.00000000000E+00 -0.64623097338E+03  0.64623097338E+03  0.00000000000E+00 0. -1.
         23    2    1    2    0    0 -0.61098055453E+03 -0.41370304615E+03 -0.26885000316E+03  0.79076102580E+03  0.92602523304E+02 0.  0.
         11    1    3    3    0    0 -0.40816994910E+03 -0.23138885711E+03 -0.14370821832E+03  0.49070924441E+03  0.00000000000E+00 0. -1.
        -11    1    3    3    0    0 -0.20281060543E+03 -0.18231418904E+03 -0.12514178485E+03  0.30005178139E+03  0.00000000000E+00 0.  1.
         22    1    1    2    0    0  0.61098055453E+03  0.41370304615E+03  0.10526647332E+04  0.12855156509E+04  0.00000000000E+00 0.  1.
<mgrwt>
<rscale>  0 0.19226438E+04</rscale>
<asrwt>0</asrwt>
<pdfrwt beam="1">  1        2 0.22000703E+00 0.19226438E+04</pdfrwt>
<pdfrwt beam="2">  1       -2 0.99420150E-01 0.19226438E+04</pdfrwt>
<totfact> 0.10891304E+01</totfact>
</mgrwt>
</event>
<event>
 6    1  0.2325157E-005  0.2433992E+04  0.7818608E-02  0.8426886E-01
          2   -1    0    0  501    0  0.00000000000E+00  0.00000000000E+00  0.12853772012E+04  0.12853772012E+04  0.00000000000E+00 0.  1.
         -2   -1    0    0    0  501 -0.00000000000E+00 -0.00000000000E+00 -0.11522526624E+04  0.11522526624E+04  0.00000000000E+00 0. -1.
         23    2    1    2    0    0 -0.89149181927E+03 -0.23600807066E+03  0.85932537588E+03  0.12638219028E+04  0.91368632984E+02 0.  0.
         13    1    3    3    0    0 -0.22470606101E+03 -0.91064662012E+02  0.26174897260E+03  0.35678860853E+03  0.00000000000E+00 0. -1.
        -13    1    3    3    0    0 -0.66678575827E+03 -0.14494340864E+03  0.59757640328E+03  0.90703329426E+03  0.00000000000E+00 0.  1.
         22    1    1    2    0    0  0.89149181927E+03  0.23600807066E+03 -0.72620083704E+03  0.11738079609E+04  0.00000000000E+00 0. -1.
<mgrwt>
<rscale>  0 0.24339920E+04</rscale>
<asrwt>0</asrwt>
<pdfrwt beam="1">  1        2 0.19775034E+00 0.24339920E+04</pdfrwt>
<pdfrwt beam="2">  1       -2 0.17726964E+00 0.24339920E+04</pdfrwt>
<totfact> 0.28640306E+00</totfact>
</mgrwt>
</event>
<event>
 6    1  0.2325157E-005  0.7442136E+03  0.7818608E-02  0.9644472E-01
          2   -1    0    0  501    0  0.00000000000E+00  0.00000000000E+00  0.19758705462E+04  0.19758705462E+04  0.00000000000E+00 0.  1.
         -2   -1    0    0    0  501 -0.00000000000E+00 -0.00000000000E+00 -0.70077201340E+02  0.70077201340E+02  0.00000000000E+00 0. -1.
         23    2    1    2    0    0  0.16827747462E+03  0.30713602641E+03  0.12645315111E+04  0.13152860019E+04  0.91035580466E+02 0.  0.
         11    1    3    3    0    0  0.61974078603E+02  0.17397299598E+03  0.78338635319E+03  0.80486121046E+03  0.00000000000E+00 0. -1.
        -11    1    3    3    0    0  0.10630339601E+03  0.13316303043E+03  0.48114515794E+03  0.51042479141E+03  0.00000000000E+00 0.  1.
         22    1    1    2    0    0 -0.16827747462E+03 -0.30713602641E+03  0.64126183377E+03  0.73066174570E+03  0.00000000000E+00 0. -1.
<mgrwt>
<rscale>  0 0.74421362E+03</rscale>
<asrwt>0</asrwt>
<pdfrwt beam="1">  1        2 0.30398004E+00 0.74421362E+03</pdfrwt>
<pdfrwt beam="2">  1       -2 0.10781109E-01 0.74421362E+03</pdfrwt>
<totfact> 0.42810576E+02</totfact>
</mgrwt>
</event>
<event>
 6    1  0.2325157E-005  0.3681840E+04  0.7818608E-02  0.8071998E-01
          2   -1    0    0  501    0  0.00000000000E+00  0.00000000000E+00  0.33429313388E+04  0.33429313388E+04  0.00000000000E+00 0.  1.
         -2   -1    0    0    0  501 -0.00000000000E+00 -0.00000000000E+00 -0.10137769451E+04  0.10137769451E+04  0.00000000000E+00 0. -1.
         23    2    1    2    0    0 -0.10616427726E+04  0.10414167212E+04  0.24473442536E+04  0.28648627802E+04  0.79439848626E+02 0.  0.
         11    1    3    3    0    0 -0.32628936077E+03  0.29657411833E+03  0.78840431536E+03  0.90332846689E+03  0.00000000000E+00 0. -1.
        -11    1    3    3    0    0 -0.73535341187E+03  0.74484260290E+03  0.16589399383E+04  0.19615343133E+04  0.00000000000E+00 0.  1.
         22    1    1    2    0    0  0.10616427726E+04 -0.10414167212E+04 -0.11818985987E+03  0.14918455037E+04  0.00000000000E+00 0. -1.
<mgrwt>
<rscale>  0 0.36818401E+04</rscale>
<asrwt>0</asrwt>
<pdfrwt beam="1">  1        2 0.51429712E+00 0.36818401E+04</pdfrwt>
<pdfrwt beam="2">  1       -2 0.15596569E+00 0.36818401E+04</pdfrwt>
<totfact> 0.22751611E-01</totfact>
</mgrwt>
</event>
<event>
 6    1  0.2325157E-005  0.3443754E+04  0.7818608E-02  0.8127250E-01
          2   -1    0    0  501    0  0.00000000000E+00  0.00000000000E+00  0.19225212298E+04  0.19225212298E+04  0.00000000000E+00 0.  1.
         -2   -1    0    0    0  501 -0.00000000000E+00 -0.00000000000E+00 -0.15421730283E+04  0.15421730283E+04  0.00000000000E+00 0. -1.
         23    2    1    2    0    0 -0.16218952829E+04 -0.52587067008E+03 -0.43569133849E+02  0.17077679142E+04  0.86537326324E+02 0.  0.
         13    1    3    3    0    0 -0.38209268818E+03 -0.92607328297E+02 -0.31079099396E+02  0.39438160458E+03  0.00000000000E+00 0.  1.
        -13    1    3    3    0    0 -0.12398025948E+04 -0.43326334179E+03 -0.12490034453E+02  0.13133863096E+04  0.00000000000E+00 0. -1.
         22    1    1    2    0    0  0.16218952829E+04  0.52587067008E+03  0.42391733536E+03  0.17569263439E+04  0.00000000000E+00 0.  1.
<mgrwt>
<rscale>  0 0.34437540E+04</rscale>
<asrwt>0</asrwt>
<pdfrwt beam="1">  1        2 0.29577250E+00 0.34437540E+04</pdfrwt>
<pdfrwt beam="2">  1       -2 0.23725739E+00 0.34437540E+04</pdfrwt>
<totfact> 0.46920519E-01</totfact>
</mgrwt>
</event>
<event>
 6    1  0.2325157E-005  0.1657190E+04  0.7818608E-02  0.8786164E-01
         -2   -1    0    0    0  501 -0.00000000000E+00  0.00000000000E+00  0.26412661622E+03  0.26412661622E+03  0.00000000000E+00 0. -1.
          2   -1    0    0  501    0  0.00000000000E+00 -0.00000000000E+00 -0.25993964196E+04  0.25993964196E+04  0.00000000000E+00 0.  1.
         23    2    1    2    0    0 -0.28304166169E+03 -0.77536855399E+03 -0.11097772314E+04  0.13859774288E+04  0.89548607541E+02 0.  0.
         13    1    3    3    0    0 -0.27543210303E+03 -0.68294132182E+03 -0.10072760541E+04  0.12477486692E+04  0.00000000000E+00 0. -1.
        -13    1    3    3    0    0 -0.76095586623E+01 -0.92427232168E+02 -0.10250117735E+03  0.13822875962E+03  0.00000000000E+00 0.  1.
         22    1    1    2    0    0  0.28304166169E+03  0.77536855399E+03 -0.12254925719E+04  0.14775456070E+04  0.00000000000E+00 0.  1.
<mgrwt>
<rscale>  0 0.16571901E+04</rscale>
<asrwt>0</asrwt>
<pdfrwt beam="1">  1        2 0.39990713E+00 0.16571901E+04</pdfrwt>
<pdfrwt beam="2">  1       -2 0.40634865E-01 0.16571901E+04</pdfrwt>
<totfact> 0.16713993E+01</totfact>
</mgrwt>
</event>
<event>
 6    1  0.2325157E-005  0.4930678E+04  0.7818608E-02  0.7839291E-01
          2   -1    0    0  501    0  0.00000000000E+00  0.00000000000E+00  0.44941017123E+04  0.44941017123E+04  0.00000000000E+00 0.  1.
         -2   -1    0    0    0  501 -0.00000000000E+00 -0.00000000000E+00 -0.13524163955E+04  0.13524163955E+04  0.00000000000E+00 0. -1.
         23    2    1    2    0    0 -0.17493011285E+04 -0.99420257654E+03 -0.11600792706E+03  0.20175419428E+04  0.92327949625E+02 0.  0.
         11    1    3    3    0    0 -0.60225212621E+03 -0.31715120666E+03 -0.13759537529E+01  0.68065733278E+03  0.00000000000E+00 0. -1.
        -11    1    3    3    0    0 -0.11470490023E+04 -0.67705136988E+03 -0.11463197330E+03  0.13368846100E+04  0.00000000000E+00 0.  1.
         22    1    1    2    0    0  0.17493011285E+04  0.99420257654E+03  0.32576932439E+04  0.38289761651E+04  0.00000000000E+00 0.  1.
<mgrwt>
<rscale>  0 0.49306782E+04</rscale>
<asrwt>0</asrwt>
<pdfrwt beam="1">  1        2 0.69140025E+00 0.49306782E+04</pdfrwt>
<pdfrwt beam="2">  1       -2 0.20806406E+00 0.49306782E+04</pdfrwt>
<totfact> 0.10657441E-02</totfact>
</mgrwt>
</event>
<event>
 6    1  0.2325157E-005  0.4021153E+04  0.7818608E-02  0.8000293E-01
         -2   -1    0    0    0  501 -0.00000000000E+00  0.00000000000E+00  0.22444876451E+04  0.22444876451E+04  0.00000000000E+00 0. -1.
          2   -1    0    0  501    0  0.00000000000E+00 -0.00000000000E+00 -0.18010423859E+04  0.18010423859E+04  0.00000000000E+00 0.  1.
         23    2    1    2    0    0  0.15854510391E+04 -0.57607995138E+03  0.13205903081E+04  0.21442392735E+04  0.90995562386E+02 0.  0.
         11    1    3    3    0    0  0.12105900224E+04 -0.40797227240E+03  0.10305795903E+04  0.16413603716E+04  0.00000000000E+00 0. -1.
        -11    1    3    3    0    0  0.37486101669E+03 -0.16810767899E+03  0.29001071787E+03  0.50287890197E+03  0.00000000000E+00 0.  1.
         22    1    1    2    0    0 -0.15854510391E+04  0.57607995138E+03 -0.87714504892E+03  0.19012907575E+04  0.00000000000E+00 0.  1.
<mgrwt>
<rscale>  0 0.40211528E+04</rscale>
<asrwt>0</asrwt>
<pdfrwt beam="1">  1        2 0.27708344E+00 0.40211528E+04</pdfrwt>
<pdfrwt beam="2">  1       -2 0.34530579E+00 0.40211528E+04</pdfrwt>
<totfact> 0.11299754E-01</totfact>
</mgrwt>
</event>
<event>
 6    1  0.2325157E-005  0.1908618E+04  0.7818608E-02  0.8650578E-01
          2   -1    0    0  501    0  0.00000000000E+00  0.00000000000E+00  0.22442972009E+04  0.22442972009E+04  0.00000000000E+00 0.  1.
         -2   -1    0    0    0  501 -0.00000000000E+00 -0.00000000000E+00 -0.40578676500E+03  0.40578676500E+03  0.00000000000E+00 0. -1.
         23    2    1    2    0    0  0.48359504920E+03  0.34799967701E+03 -0.11083843972E+03  0.61171967420E+03  0.83353783761E+02 0.  0.
         11    1    3    3    0    0  0.22023516267E+03  0.20941008983E+03 -0.50612629221E+02  0.30808724549E+03  0.00000000000E+00 0.  1.
        -11    1    3    3    0    0  0.26335988654E+03  0.13858958718E+03 -0.60225810494E+02  0.30363242871E+03  0.00000000000E+00 0. -1.
         22    1    1    2    0    0 -0.48359504920E+03 -0.34799967701E+03  0.19493488757E+04  0.20383642917E+04  0.00000000000E+00 0.  1.
<mgrwt>
<rscale>  0 0.19086185E+04</rscale>
<asrwt>0</asrwt>
<pdfrwt beam="1">  1        2 0.34527649E+00 0.19086185E+04</pdfrwt>
<pdfrwt beam="2">  1       -2 0.62428734E-01 0.19086185E+04</pdfrwt>
<totfact> 0.10863465E+01</totfact>
</mgrwt>
</event>
<event>
 6    1  0.2325157E-005  0.2688367E+04  0.7818608E-02  0.8338790E-01
         -2   -1    0    0    0  501 -0.00000000000E+00  0.00000000000E+00  0.16357636091E+04  0.16357636091E+04  0.00000000000E+00 0. -1.
          2   -1    0    0  501    0  0.00000000000E+00 -0.00000000000E+00 -0.11045780815E+04  0.11045780815E+04  0.00000000000E+00 0.  1.
         23    2    1    2    0    0 -0.11101347393E+04  0.69481146788E+03  0.56804772053E+03  0.14301810377E+04  0.87048677860E+02 0.  0.
         11    1    3    3    0    0 -0.60496778056E+03  0.34549668760E+03  0.26575122226E+03  0.74563911432E+03  0.00000000000E+00 0. -1.
        -11    1    3    3    0    0 -0.50516695877E+03  0.34931478028E+03  0.30229649827E+03  0.68454192335E+03  0.00000000000E+00 0.  1.
         22    1    1    2    0    0  0.11101347393E+04 -0.69481146788E+03 -0.36862192919E+02  0.13101606530E+04  0.00000000000E+00 0.  1.
<mgrwt>
<rscale>  0 0.26883665E+04</rscale>
<asrwt>0</asrwt>
<pdfrwt beam="1">  1        2 0.16993509E+00 0.26883665E+04</pdfrwt>
<pdfrwt beam="2">  1       -2 0.25165594E+00 0.26883665E+04</pdfrwt>
<totfact> 0.11930387E+00</totfact>
</mgrwt>
</event>
<event>
 6    1  0.2325157E-005  0.2568987E+04  0.7818608E-02  0.8378812E-01
         -2   -1    0    0    0  501 -0.00000000000E+00  0.00000000000E+00  0.74432902871E+03  0.74432902871E+03  0.00000000000E+00 0. -1.
          2   -1    0    0  501    0  0.00000000000E+00 -0.00000000000E+00 -0.22166591746E+04  0.22166591746E+04  0.00000000000E+00 0.  1.
         23    2    1    2    0    0 -0.68841232450E+03 -0.10646354342E+04 -0.96278202103E+03  0.15946063285E+04  0.91978185327E+02 0.  0.
         13    1    3    3    0    0 -0.48225437385E+03 -0.81845923852E+03 -0.72732412714E+03  0.11964301869E+04  0.00000000000E+00 0. -1.
        -13    1    3    3    0    0 -0.20615795065E+03 -0.24617619567E+03 -0.23545789389E+03  0.39817614158E+03  0.00000000000E+00 0.  1.
         22    1    1    2    0    0  0.68841232450E+03  0.10646354342E+04 -0.50954812482E+03  0.13663818748E+04  0.00000000000E+00 0. -1.
<mgrwt>
<rscale>  0 0.25689872E+04</rscale>
<asrwt>0</asrwt>
<pdfrwt beam="1">  1        2 0.34102448E+00 0.25689872E+04</pdfrwt>
<pdfrwt beam="2">  1       -2 0.11451216E+00 0.25689872E+04</pdfrwt>
<totfact> 0.26698032E+00</totfact>
</mgrwt>
</event>
<event>
 6    1  0.2325157E-005  0.5719281E+04  0.7818608E-02  0.7726216E-01
          2   -1    0    0  501    0  0.00000000000E+00  0.00000000000E+00  0.22125884764E+04  0.22125884764E+04  0.00000000000E+00 0.  1.
         -2   -1    0    0    0  501 -0.00000000000E+00 -0.00000000000E+00 -0.36959172780E+04  0.36959172780E+04  0.00000000000E+00 0. -1.
         23    2    1    2    0    0 -0.22303742572E+04 -0.17811103269E+04 -0.90960554059E+03  0.29971346506E+04  0.92252645081E+02 0.  0.
         13    1    3    3    0    0 -0.19181766352E+04 -0.15588757568E+04 -0.76289930611E+03  0.25867954268E+04  0.00000000000E+00 0. -1.
        -13    1    3    3    0    0 -0.31219762194E+03 -0.22223457015E+03 -0.14670623448E+03  0.41033922375E+03  0.00000000000E+00 0.  1.
         22    1    1    2    0    0  0.22303742572E+04  0.17811103269E+04 -0.57372326103E+03  0.29113711038E+04  0.00000000000E+00 0.  1.
<mgrwt>
<rscale>  0 0.57192811E+04</rscale>
<asrwt>0</asrwt>
<pdfrwt beam="1">  1        2 0.34039823E+00 0.57192811E+04</pdfrwt>
<pdfrwt beam="2">  1       -2 0.56860266E+00 0.57192811E+04</pdfrwt>
<totfact> 0.24602329E-03</totfact>
</mgrwt>
</event>
<event>
 6    1  0.2325157E-005  0.1318698E+04  0.7818608E-02  0.9014867E-01
         -2   -1    0    0    0  501 -0.00000000000E+00  0.00000000000E+00  0.17924132430E+03  0.17924132430E+03  0.00000000000E+00 0. -1.
          2   -1    0    0  501    0  0.00000000000E+00 -0.00000000000E+00 -0.24254526260E+04  0.24254526260E+04  0.00000000000E+00 0.  1.
         23    2    1    2    0    0 -0.47384794288E+02  0.49286395766E+03 -0.19791723293E+04  0.20421372756E+04  0.89673540073E+02 0.  0.
         11    1    3    3    0    0 -0.52746116496E+02  0.27213526908E+03 -0.95391101634E+03  0.99337102061E+03  0.00000000000E+00 0. -1.
        -11    1    3    3    0    0  0.53613222084E+01  0.22072868857E+03 -0.10252613130E+04  0.10487662550E+04  0.00000000000E+00 0.  1.
         22    1    1    2    0    0  0.47384794288E+02 -0.49286395766E+03 -0.26703897241E+03  0.56255667472E+03  0.00000000000E+00 0. -1.
<mgrwt>
<rscale>  0 0.13186984E+04</rscale>
<asrwt>0</asrwt>
<pdfrwt beam="1">  1        2 0.37314658E+00 0.13186984E+04</pdfrwt>
<pdfrwt beam="2">  1       -2 0.27575587E-01 0.13186984E+04</pdfrwt>
<totfact> 0.45291108E+01</totfact>
</mgrwt>
</event>
<event>
 6    1  0.2325157E-005  0.3628581E+04  0.7818608E-02  0.8083976E-01
         -2   -1    0    0    0  501 -0.00000000000E+00  0.00000000000E+00  0.11664899834E+04  0.11664899834E+04  0.00000000000E+00 0. -1.
          2   -1    0    0  501    0  0.00000000000E+00 -0.00000000000E+00 -0.28218413961E+04  0.28218413961E+04  0.00000000000E+00 0.  1.
         23    2    1    2    0    0 -0.13735397166E+04  0.68382795256E+03  0.23383918969E+03  0.15545538314E+04  0.87890990210E+02 0.  0.
         13    1    3    3    0    0 -0.10614486831E+04  0.56833687758E+03  0.18906916326E+03  0.12187810557E+04  0.00000000000E+00 0. -1.
        -13    1    3    3    0    0 -0.31209103356E+03  0.11549107497E+03  0.44770026435E+02  0.33577277568E+03  0.00000000000E+00 0.  1.
         22    1    1    2    0    0  0.13735397166E+04 -0.68382795256E+03 -0.18891906023E+04  0.24337775481E+04  0.00000000000E+00 0.  1.
<mgrwt>
<rscale>  0 0.36285808E+04</rscale>
<asrwt>0</asrwt>
<pdfrwt beam="1">  1        2 0.43412944E+00 0.36285808E+04</pdfrwt>
<pdfrwt beam="2">  1       -2 0.17946000E+00 0.36285808E+04</pdfrwt>
<totfact> 0.33342348E-01</totfact>
</mgrwt>
</event>
<event>
 6    1  0.2325157E-005  0.2173824E+04  0.7818608E-02  0.8529403E-01
          2   -1    0    0  501    0  0.00000000000E+00  0.00000000000E+00  0.19285461418E+04  0.19285461418E+04  0.00000000000E+00 0.  1.
         -2   -1    0    0    0  501 -0.00000000000E+00 -0.00000000000E+00 -0.61257430424E+03  0.61257430424E+03  0.00000000000E+00 0. -1.
         23    2    1    2    0    0  0.41140118955E+03 -0.48485561121E+03  0.16864842932E+04  0.18051752156E+04  0.10046086376E+03 0.  0.
         13    1    3    3    0    0  0.13889814994E+03 -0.95671507904E+02  0.44131363575E+03  0.47244413276E+03  0.00000000000E+00 0.  1.
        -13    1    3    3    0    0  0.27250303961E+03 -0.38918410331E+03  0.12451706575E+04  0.13327310828E+04  0.00000000000E+00 0. -1.
         22    1    1    2    0    0 -0.41140118955E+03  0.48485561121E+03 -0.37051245564E+03  0.73594523048E+03  0.00000000000E+00 0. -1.
<mgrwt>
<rscale>  0 0.21738241E+04</rscale>
<asrwt>0</asrwt>
<pdfrwt beam="1">  1        2 0.29669940E+00 0.21738241E+04</pdfrwt>
<pdfrwt beam="2">  1       -2 0.94242202E-01 0.21738241E+04</pdfrwt>
<totfact> 0.63680347E+00</totfact>
</mgrwt>
</event>
<event>
 6    1  0.2325157E-005  0.2211294E+04  0.7818608E-02  0.8513742E-01
          1   -1    0    0  501    0  0.00000000000E+00  0.00000000000E+00  0.96316504578E+03  0.96316504578E+03  0.00000000000E+00 0. -1.
         -1   -1    0    0    0  501 -0.00000000000E+00 -0.00000000000E+00 -0.12692060471E+04  0.12692060471E+04  0.00000000000E+00 0.  1.
         23    2    1    2    0    0  0.51416373840E+03 -0.48063794377E+03  0.70515131268E+03  0.10003454930E+04  0.89864056887E+02 0.  0.
         11    1    3    3    0    0  0.29874545489E+03 -0.26443002897E+03  0.45971490856E+03  0.60869523096E+03  0.00000000000E+00 0. -1.
        -11    1    3    3    0    0  0.21541828351E+03 -0.21620791480E+03  0.24543640412E+03  0.39165026204E+03  0.00000000000E+00 0.  1.
         22    1    1    2    0    0 -0.51416373840E+03  0.48063794377E+03 -0.10111923140E+04  0.12320255999E+04  0.00000000000E+00 0.  1.
<mgrwt>
<rscale>  0 0.22112936E+04</rscale>
<asrwt>0</asrwt>
<pdfrwt beam="1">  1        1 0.14817924E+00 0.22112936E+04</pdfrwt>
<pdfrwt beam="2">  1       -1 0.19526247E+00 0.22112936E+04</pdfrwt>
<totfact> 0.23920291E+00</totfact>
</mgrwt>
</event>
<event>
 6    1  0.2325157E-005  0.3488398E+04  0.7818608E-02  0.8116545E-01
         -2   -1    0    0    0  501 -0.00000000000E+00  0.00000000000E+00  0.23363350001E+04  0.23363350001E+04  0.00000000000E+00 0. -1.
          2   -1    0    0  501    0  0.00000000000E+00 -0.00000000000E+00 -0.13021379697E+04  0.13021379697E+04  0.00000000000E+00 0.  1.
         23    2    1    2    0    0  0.15632318933E+04  0.52646701840E+03  0.11048853892E+04  0.19874556114E+04  0.91359784784E+02 0.  0.
         13    1    3    3    0    0  0.94311247870E+03  0.34017867423E+03  0.62393944608E+03  0.11808823440E+04  0.00000000000E+00 0. -1.
        -13    1    3    3    0    0  0.62011941460E+03  0.18628834417E+03  0.48094594316E+03  0.80657326745E+03  0.00000000000E+00 0.  1.
         22    1    1    2    0    0 -0.15632318933E+04 -0.52646701840E+03 -0.70688358888E+02  0.16510173584E+04  0.00000000000E+00 0.  1.
<mgrwt>
<rscale>  0 0.34883982E+04</rscale>
<asrwt>0</asrwt>
<pdfrwt beam="1">  1        2 0.20032892E+00 0.34883982E+04</pdfrwt>
<pdfrwt beam="2">  1       -2 0.35943615E+00 0.34883982E+04</pdfrwt>
<totfact> 0.18373768E-01</totfact>
</mgrwt>
</event>
<event>
 6    1  0.2325157E-005  0.5967290E+03  0.7818608E-02  0.9912216E-01
          2   -1    0    0  501    0  0.00000000000E+00  0.00000000000E+00  0.49914770045E+03  0.49914770045E+03  0.00000000000E+00 0. -1.
         -2   -1    0    0    0  501 -0.00000000000E+00 -0.00000000000E+00 -0.17834673937E+03  0.17834673937E+03  0.00000000000E+00 0.  1.
         23    2    1    2    0    0  0.29142067854E+03 -0.75971187218E+01  0.14006403546E+03  0.33449361711E+03  0.85348214771E+02 0.  0.
         13    1    3    3    0    0  0.19030847885E+03  0.22008707269E+02  0.55666403452E+02  0.19950049822E+03  0.00000000000E+00 0. -1.
        -13    1    3    3    0    0  0.10111219969E+03 -0.29605825991E+02  0.84397632004E+02  0.13499311889E+03  0.00000000000E+00 0.  1.
         22    1    1    2    0    0 -0.29142067854E+03  0.75971187218E+01  0.18073692563E+03  0.34300082271E+03  0.00000000000E+00 0. -1.
<mgrwt>
<rscale>  0 0.59672897E+03</rscale>
<asrwt>0</asrwt>
<pdfrwt beam="1">  1        2 0.76791954E-01 0.59672897E+03</pdfrwt>
<pdfrwt beam="2">  1       -2 0.27437960E-01 0.59672897E+03</pdfrwt>
<totfact> 0.75007328E+02</totfact>
</mgrwt>
</event>
<event>
 6    1  0.2325157E-005  0.1980454E+04  0.7818608E-02  0.8615814E-01
         -2   -1    0    0    0  501 -0.00000000000E+00  0.00000000000E+00  0.93669834683E+03  0.93669834683E+03  0.00000000000E+00 0. -1.
          2   -1    0    0  501    0  0.00000000000E+00 -0.00000000000E+00 -0.10468144679E+04  0.10468144679E+04  0.00000000000E+00 0.  1.
         23    2    1    2    0    0 -0.72213237124E+03  0.47508555367E+03 -0.53532395846E+03  0.10201939943E+04  0.83920203761E+02 0.  0.
         13    1    3    3    0    0 -0.47930306716E+03  0.27707861707E+03 -0.37046266709E+03  0.66614306116E+03  0.00000000000E+00 0. -1.
        -13    1    3    3    0    0 -0.24282930408E+03  0.19800693660E+03 -0.16486129137E+03  0.35405093313E+03  0.00000000000E+00 0.  1.
         22    1    1    2    0    0  0.72213237124E+03 -0.47508555367E+03  0.42520783737E+03  0.96331882046E+03  0.00000000000E+00 0. -1.
<mgrwt>
<rscale>  0 0.19804539E+04</rscale>
<asrwt>0</asrwt>
<pdfrwt beam="1">  1        2 0.16104838E+00 0.19804539E+04</pdfrwt>
<pdfrwt beam="2">  1       -2 0.14410744E+00 0.19804539E+04</pdfrwt>
<totfact> 0.72875780E+00</totfact>
</mgrwt>
</event>
<event>
 6    1  0.2325157E-005  0.3943535E+04  0.7818608E-02  0.8016035E-01
         -2   -1    0    0    0  501 -0.00000000000E+00  0.00000000000E+00  0.12487609587E+04  0.12487609587E+04  0.00000000000E+00 0. -1.
          2   -1    0    0  501    0  0.00000000000E+00 -0.00000000000E+00 -0.31133795386E+04  0.31133795386E+04  0.00000000000E+00 0.  1.
         23    2    1    2    0    0 -0.58633072956E+03 -0.10273489266E+04 -0.26763883458E+04  0.29274977912E+04  0.89214339637E+02 0.  0.
         13    1    3    3    0    0 -0.77926183644E+02 -0.20277462776E+03 -0.51647903570E+03  0.56030405502E+03  0.00000000000E+00 0.  1.
        -13    1    3    3    0    0 -0.50840454592E+03 -0.82457429882E+03 -0.21599093101E+04  0.23671937362E+04  0.00000000000E+00 0. -1.
         22    1    1    2    0    0  0.58633072956E+03  0.10273489266E+04  0.81176976586E+03  0.14346427061E+04  0.00000000000E+00 0. -1.
<mgrwt>
<rscale>  0 0.39435349E+04</rscale>
<asrwt>0</asrwt>
<pdfrwt beam="1">  1        2 0.47898147E+00 0.39435349E+04</pdfrwt>
<pdfrwt beam="2">  1       -2 0.19211707E+00 0.39435349E+04</pdfrwt>
<totfact> 0.17526700E-01</totfact>
</mgrwt>
</event>
<event>
 6    1  0.2325157E-005  0.3376399E+04  0.7818608E-02  0.8143723E-01
          2   -1    0    0  501    0  0.00000000000E+00  0.00000000000E+00  0.17338817939E+04  0.17338817939E+04  0.00000000000E+00 0.  1.
         -2   -1    0    0    0  501 -0.00000000000E+00 -0.00000000000E+00 -0.16437205590E+04  0.16437205590E+04  0.00000000000E+00 0. -1.
         23    2    1    2    0    0 -0.81309694330E+03  0.11022417892E+04  0.10293044511E+04  0.17168634868E+04  0.10994988995E+03 0.  0.
         13    1    3    3    0    0 -0.21697836688E+03  0.23688235082E+03  0.20205829923E+03  0.37950021886E+03  0.00000000000E+00 0. -1.
        -13    1    3    3    0    0 -0.59611857642E+03  0.86535943834E+03  0.82724615190E+03  0.13373632680E+04  0.00000000000E+00 0.  1.
         22    1    1    2    0    0  0.81309694330E+03 -0.11022417892E+04 -0.93914321623E+03  0.16607388662E+04  0.00000000000E+00 0.  1.
<mgrwt>
<rscale>  0 0.33763988E+04</rscale>
<asrwt>0</asrwt>
<pdfrwt beam="1">  1        2 0.26675105E+00 0.33763988E+04</pdfrwt>
<pdfrwt beam="2">  1       -2 0.25288009E+00 0.33763988E+04</pdfrwt>
<totfact> 0.48087647E-01</totfact>
</mgrwt>
</event>
<event>
 6    1  0.2325157E-005  0.7425243E+03  0.7818608E-02  0.9647152E-01
         -2   -1    0    0    0  501 -0.00000000000E+00  0.00000000000E+00  0.81131525031E+02  0.81131525031E+02  0.00000000000E+00 0. -1.
          2   -1    0    0  501    0  0.00000000000E+00 -0.00000000000E+00 -0.16989152537E+04  0.16989152537E+04  0.00000000000E+00 0.  1.
         23    2    1    2    0    0  0.16774003626E+03  0.13010565457E+03 -0.15348322643E+04  0.15521319996E+04  0.91320662236E+02 0.  0.
         11    1    3    3    0    0 -0.65269442790E+00 -0.74458154454E+01 -0.16337016774E+03  0.16354105871E+03  0.00000000000E+00 0.  1.
        -11    1    3    3    0    0  0.16839273069E+03  0.13755147001E+03 -0.13714620966E+04  0.13885909409E+04  0.00000000000E+00 0. -1.
         22    1    1    2    0    0 -0.16774003626E+03 -0.13010565457E+03 -0.82951464307E+02  0.22791477913E+03  0.00000000000E+00 0.  1.
<mgrwt>
<rscale>  0 0.74252430E+03</rscale>
<asrwt>0</asrwt>
<pdfrwt beam="1">  1        2 0.26137158E+00 0.74252430E+03</pdfrwt>
<pdfrwt beam="2">  1       -2 0.12481773E-01 0.74252430E+03</pdfrwt>
<totfact> 0.47614722E+02</totfact>
</mgrwt>
</event>
<event>
 6    1  0.2325157E-005  0.1166934E+04  0.7818608E-02  0.9142302E-01
         -2   -1    0    0    0  501 -0.00000000000E+00  0.00000000000E+00  0.29660155082E+03  0.29660155082E+03  0.00000000000E+00 0. -1.
          2   -1    0    0  501    0  0.00000000000E+00 -0.00000000000E+00 -0.11477817682E+04  0.11477817682E+04  0.00000000000E+00 0.  1.
         23    2    1    2    0    0 -0.54263710927E+02  0.64135236657E+01 -0.11427197733E+04  0.11477674121E+04  0.92605983443E+02 0.  0.
         11    1    3    3    0    0 -0.62154420991E+02 -0.29810191044E+02 -0.64649068113E+03  0.65015538168E+03  0.00000000000E+00 0.  1.
        -11    1    3    3    0    0  0.78907100642E+01  0.36223714710E+02 -0.49622909222E+03  0.49761203038E+03  0.00000000000E+00 0. -1.
         22    1    1    2    0    0  0.54263710927E+02 -0.64135236657E+01  0.29153955594E+03  0.29661590700E+03  0.00000000000E+00 0. -1.
<mgrwt>
<rscale>  0 0.11669342E+04</rscale>
<asrwt>0</asrwt>
<pdfrwt beam="1">  1        2 0.17658181E+00 0.11669342E+04</pdfrwt>
<pdfrwt beam="2">  1       -2 0.45631008E-01 0.11669342E+04</pdfrwt>
<totfact> 0.91671111E+01</totfact>
</mgrwt>
</event>
<event>
 6    1  0.2325157E-005  0.6249741E+03  0.7818608E-02  0.9854906E-01
          2   -1    0    0  501    0  0.00000000000E+00  0.00000000000E+00  0.73112996060E+03  0.73112996060E+03  0.00000000000E+00 0.  1.
         -2   -1    0    0    0  501 -0.00000000000E+00 -0.00000000000E+00 -0.13355787126E+03  0.13355787126E+03  0.00000000000E+00 0. -1.
         23    2    1    2    0    0  0.32869176602E+01  0.29175636367E+03  0.17792644205E+03  0.35357625024E+03  0.90696010833E+02 0.  0.
         11    1    3    3    0    0  0.44124465063E+02  0.12773561181E+03  0.62486486038E+02  0.14888893807E+03  0.00000000000E+00 0. -1.
        -11    1    3    3    0    0 -0.40837547403E+02  0.16402075186E+03  0.11543995601E+03  0.20468731217E+03  0.00000000000E+00 0.  1.
         22    1    1    2    0    0 -0.32869176602E+01 -0.29175636367E+03  0.41964564729E+03  0.51111158161E+03  0.00000000000E+00 0.  1.
<mgrwt>
<rscale>  0 0.62497412E+03</rscale>
<asrwt>0</asrwt>
<pdfrwt beam="1">  1        2 0.11248153E+00 0.62497412E+03</pdfrwt>
<pdfrwt beam="2">  1       -2 0.20547365E-01 0.62497412E+03</pdfrwt>
<totfact> 0.79293525E+02</totfact>
</mgrwt>
</event>
<event>
 6    1  0.2325157E-005  0.5142986E+04  0.7818608E-02  0.7806821E-01
         -2   -1    0    0    0  501 -0.00000000000E+00  0.00000000000E+00  0.23322771084E+04  0.23322771084E+04  0.00000000000E+00 0. -1.
          2   -1    0    0  501    0  0.00000000000E+00 -0.00000000000E+00 -0.28352448746E+04  0.28352448746E+04  0.00000000000E+00 0.  1.
         23    2    1    2    0    0  0.13237048685E+04  0.21973678016E+04 -0.41954003684E+03  0.26008938408E+04  0.89527057939E+02 0.  0.
         13    1    3    3    0    0  0.56432027514E+03  0.96150178906E+03 -0.22542466298E+03  0.11374354232E+04  0.00000000000E+00 0. -1.
        -13    1    3    3    0    0  0.75938459335E+03  0.12358660125E+04 -0.19411537387E+03  0.14634584175E+04  0.00000000000E+00 0.  1.
         22    1    1    2    0    0 -0.13237048685E+04 -0.21973678016E+04 -0.83427729363E+02  0.25666281422E+04  0.00000000000E+00 0. -1.
<mgrwt>
<rscale>  0 0.51429862E+04</rscale>
<asrwt>0</asrwt>
<pdfrwt beam="1">  1        2 0.43619152E+00 0.51429862E+04</pdfrwt>
<pdfrwt beam="2">  1       -2 0.35881186E+00 0.51429862E+04</pdfrwt>
<totfact> 0.21679867E-02</totfact>
</mgrwt>
</event>
<event>
 6    1  0.2325157E-005  0.2178114E+04  0.7818608E-02  0.8527593E-01
         -2   -1    0    0    0  501 -0.00000000000E+00  0.00000000000E+00  0.12991117251E+04  0.12991117251E+04  0.00000000000E+00 0. -1.
          2   -1    0    0  501    0  0.00000000000E+00 -0.00000000000E+00 -0.91296644024E+03  0.91296644024E+03  0.00000000000E+00 0.  1.
         23    2    1    2    0    0  0.19250515090E+03 -0.59167305886E+03 -0.71160353255E+03  0.95025895965E+03  0.97351225766E+02 0.  0.
         13    1    3    3    0    0  0.50026757880E+02 -0.27320498221E+03 -0.26874527680E+03  0.38648112840E+03  0.00000000000E+00 0.  1.
        -13    1    3    3    0    0  0.14247839302E+03 -0.31846807665E+03 -0.44285825576E+03  0.56377783125E+03  0.00000000000E+00 0. -1.
         22    1    1    2    0    0 -0.19250515090E+03  0.59167305886E+03  0.10977488174E+04  0.12618192057E+04  0.00000000000E+00 0. -1.
<mgrwt>
<rscale>  0 0.21781142E+04</rscale>
<asrwt>0</asrwt>
<pdfrwt beam="1">  1        2 0.14045638E+00 0.21781142E+04</pdfrwt>
<pdfrwt beam="2">  1       -2 0.19986334E+00 0.21781142E+04</pdfrwt>
<totfact> 0.35057436E+00</totfact>
</mgrwt>
</event>
<event>
 6    1  0.2325157E-005  0.2487655E+04  0.7818608E-02  0.8407397E-01
         -2   -1    0    0    0  501 -0.00000000000E+00  0.00000000000E+00  0.79477572329E+03  0.79477572329E+03  0.00000000000E+00 0. -1.
          2   -1    0    0  501    0  0.00000000000E+00 -0.00000000000E+00 -0.19465948551E+04  0.19465948551E+04  0.00000000000E+00 0.  1.
         23    2    1    2    0    0  0.35187445554E+03 -0.91343530481E+02  0.73219474143E+03  0.82260338366E+03  0.91694680367E+02 0.  0.
         13    1    3    3    0    0  0.14592790642E+03 -0.49981179389E+02  0.21705472164E+03  0.26628147580E+03  0.00000000000E+00 0.  1.
        -13    1    3    3    0    0  0.20594654913E+03 -0.41362351093E+02  0.51514001979E+03  0.55632190787E+03  0.00000000000E+00 0. -1.
         22    1    1    2    0    0 -0.35187445554E+03  0.91343530481E+02 -0.18840138732E+04  0.19187671947E+04  0.00000000000E+00 0.  1.
<mgrwt>
<rscale>  0 0.24876546E+04</rscale>
<asrwt>0</asrwt>
<pdfrwt beam="1">  1        2 0.29947613E+00 0.24876546E+04</pdfrwt>
<pdfrwt beam="2">  1       -2 0.12227319E+00 0.24876546E+04</pdfrwt>
<totfact> 0.32366103E+00</totfact>
</mgrwt>
</event>
<event>
 6    1  0.2325157E-005  0.3382970E+04  0.7818608E-02  0.8142099E-01
         -2   -1    0    0    0  501 -0.00000000000E+00  0.00000000000E+00  0.13839450644E+04  0.13839450644E+04  0.00000000000E+00 0. -1.
          2   -1    0    0  501    0  0.00000000000E+00 -0.00000000000E+00 -0.20673659134E+04  0.20673659134E+04  0.00000000000E+00 0.  1.
         23    2    1    2    0    0 -0.29636707674E+02  0.83503254544E+03  0.11570596596E+04  0.14300425174E+04  0.89871347989E+02 0.  0.
         13    1    3    3    0    0  0.28098696318E+02  0.44581074906E+03  0.59952392133E+03  0.74764008250E+03  0.00000000000E+00 0. -1.
        -13    1    3    3    0    0 -0.57735403993E+02  0.38922179638E+03  0.55753573831E+03  0.68240243489E+03  0.00000000000E+00 0.  1.
         22    1    1    2    0    0  0.29636707674E+02 -0.83503254544E+03 -0.18404805087E+04  0.20212684605E+04  0.00000000000E+00 0.  1.
<mgrwt>
<rscale>  0 0.33829696E+04</rscale>
<asrwt>0</asrwt>
<pdfrwt beam="1">  1        2 0.31805629E+00 0.33829696E+04</pdfrwt>
<pdfrwt beam="2">  1       -2 0.21291463E+00 0.33829696E+04</pdfrwt>
<totfact> 0.55755704E-01</totfact>
</mgrwt>
</event>
<event>
 6    1  0.2325157E-005  0.6422224E+03  0.7818608E-02  0.9821484E-01
          2   -1    0    0  501    0  0.00000000000E+00  0.00000000000E+00  0.30106539287E+04  0.30106539287E+04  0.00000000000E+00 0.  1.
         -2   -1    0    0    0  501 -0.00000000000E+00 -0.00000000000E+00 -0.34249175364E+02  0.34249175364E+02  0.00000000000E+00 0. -1.
         23    2    1    2    0    0  0.55904720381E+01 -0.30398307723E+03  0.19029378665E+04  0.19292113358E+04  0.90812388127E+02 0.  0.
         11    1    3    3    0    0  0.40215827919E+02 -0.74251532406E+02  0.45910378394E+03  0.46680497781E+03  0.00000000000E+00 0.  1.
        -11    1    3    3    0    0 -0.34625355881E+02 -0.22973154482E+03  0.14438340826E+04  0.14624063580E+04  0.00000000000E+00 0. -1.
         22    1    1    2    0    0 -0.55904720381E+01  0.30398307723E+03  0.10734668868E+04  0.11156917682E+04  0.00000000000E+00 0. -1.
<mgrwt>
<rscale>  0 0.64222244E+03</rscale>
<asrwt>0</asrwt>
<pdfrwt beam="1">  1        2 0.46317732E+00 0.64222244E+03</pdfrwt>
<pdfrwt beam="2">  1       -2 0.52691063E-02 0.64222244E+03</pdfrwt>
<totfact> 0.34854687E+02</totfact>
</mgrwt>
</event>
<event>
 6    1  0.2325157E-005  0.3019309E+04  0.7818608E-02  0.8238238E-01
         -2   -1    0    0    0  501 -0.00000000000E+00  0.00000000000E+00  0.11815100936E+04  0.11815100936E+04  0.00000000000E+00 0.  1.
          2   -1    0    0  501    0  0.00000000000E+00 -0.00000000000E+00 -0.19289357021E+04  0.19289357021E+04  0.00000000000E+00 0. -1.
         23    2    1    2    0    0  0.12122669762E+02  0.13403844781E+04 -0.10864970980E+04  0.17277864076E+04  0.89400323976E+02 0.  0.
         11    1    3    3    0    0 -0.70915686069E+01  0.67053485040E+03 -0.48848567827E+03  0.82962975708E+03  0.00000000000E+00 0.  1.
        -11    1    3    3    0    0  0.19214238368E+02  0.66984962773E+03 -0.59801141972E+03  0.89815665050E+03  0.00000000000E+00 0. -1.
         22    1    1    2    0    0 -0.12122669762E+02 -0.13403844781E+04  0.33907148948E+03  0.13826593880E+04  0.00000000000E+00 0.  1.
<mgrwt>
<rscale>  0 0.30193092E+04</rscale>
<asrwt>0</asrwt>
<pdfrwt beam="1">  1        2 0.29675933E+00 0.30193092E+04</pdfrwt>
<pdfrwt beam="2">  1       -2 0.18177079E+00 0.30193092E+04</pdfrwt>
<totfact> 0.11027057E+00</totfact>
</mgrwt>
</event>
<event>
 6    1  0.2325157E-005  0.2605838E+04  0.7818608E-02  0.8366221E-01
          2   -1    0    0  501    0  0.00000000000E+00  0.00000000000E+00  0.11390801149E+04  0.11390801149E+04  0.00000000000E+00 0.  1.
         -2   -1    0    0    0  501 -0.00000000000E+00 -0.00000000000E+00 -0.14903236932E+04  0.14903236932E+04  0.00000000000E+00 0. -1.
         23    2    1    2    0    0  0.99566732400E+03  0.51326581660E+03 -0.84343004878E+03  0.14058668285E+04  0.10144985874E+03 0.  0.
         13    1    3    3    0    0  0.77565633547E+03  0.41921960675E+03 -0.61440619630E+03  0.10746547369E+04  0.00000000000E+00 0.  1.
        -13    1    3    3    0    0  0.22001098852E+03  0.94046209851E+02 -0.22902385247E+03  0.33121209166E+03  0.00000000000E+00 0. -1.
         22    1    1    2    0    0 -0.99566732400E+03 -0.51326581660E+03  0.49218647047E+03  0.12235369795E+04  0.00000000000E+00 0.  1.
<mgrwt>
<rscale>  0 0.26058381E+04</rscale>
<asrwt>0</asrwt>
<pdfrwt beam="1">  1        2 0.17524309E+00 0.26058381E+04</pdfrwt>
<pdfrwt beam="2">  1       -2 0.22928057E+00 0.26058381E+04</pdfrwt>
<totfact> 0.15745335E+00</totfact>
</mgrwt>
</event>
<event>
 6    1  0.2325157E-005  0.2175550E+04  0.7818608E-02  0.8528674E-01
         -2   -1    0    0    0  501 -0.00000000000E+00  0.00000000000E+00  0.16383223979E+04  0.16383223979E+04  0.00000000000E+00 0. -1.
          2   -1    0    0  501    0  0.00000000000E+00 -0.00000000000E+00 -0.72223517757E+03  0.72223517757E+03  0.00000000000E+00 0.  1.
         23    2    1    2    0    0  0.96208783363E+03 -0.50228801779E+03  0.49785790938E+03  0.11974488062E+04  0.90082702157E+02 0.  0.
         13    1    3    3    0    0  0.15216459936E+03 -0.54279296143E+02  0.49302885041E+02  0.16891146131E+03  0.00000000000E+00 0.  1.
        -13    1    3    3    0    0  0.80992323427E+03 -0.44800872165E+03  0.44855502434E+03  0.10285373449E+04  0.00000000000E+00 0. -1.
         22    1    1    2    0    0 -0.96208783363E+03  0.50228801779E+03  0.41822931091E+03  0.11631087692E+04  0.00000000000E+00 0.  1.
<mgrwt>
<rscale>  0 0.21755496E+04</rscale>
<asrwt>0</asrwt>
<pdfrwt beam="1">  1        2 0.11111310E+00 0.21755496E+04</pdfrwt>
<pdfrwt beam="2">  1       -2 0.25204960E+00 0.21755496E+04</pdfrwt>
<totfact> 0.22505058E+00</totfact>
</mgrwt>
</event>
<event>
 6    1  0.2325157E-005  0.4224589E+04  0.7818608E-02  0.7960711E-01
         -2   -1    0    0    0  501 -0.00000000000E+00  0.00000000000E+00  0.11246599793E+04  0.11246599793E+04  0.00000000000E+00 0. -1.
          2   -1    0    0  501    0  0.00000000000E+00 -0.00000000000E+00 -0.39672331990E+04  0.39672331990E+04  0.00000000000E+00 0.  1.
         23    2    1    2    0    0 -0.17062083119E+04 -0.10318643676E+04 -0.22584652494E+04  0.30141364558E+04  0.91991386258E+02 0.  0.
         13    1    3    3    0    0 -0.50358800212E+03 -0.25879920078E+03 -0.62021116894E+03  0.83978556565E+03  0.00000000000E+00 0.  1.
        -13    1    3    3    0    0 -0.12026203098E+04 -0.77306516679E+03 -0.16382540804E+04  0.21743508902E+04  0.00000000000E+00 0. -1.
         22    1    1    2    0    0  0.17062083119E+04  0.10318643676E+04 -0.58410797028E+03  0.20777567224E+04  0.00000000000E+00 0. -1.
<mgrwt>
<rscale>  0 0.42245892E+04</rscale>
<asrwt>0</asrwt>
<pdfrwt beam="1">  1        2 0.61034357E+00 0.42245892E+04</pdfrwt>
<pdfrwt beam="2">  1       -2 0.17302461E+00 0.42245892E+04</pdfrwt>
<totfact> 0.56929195E-02</totfact>
</mgrwt>
</event>
<event>
 6    1  0.2325157E-005  0.4107649E+04  0.7818608E-02  0.7983176E-01
          2   -1    0    0  501    0  0.00000000000E+00  0.00000000000E+00  0.29674101705E+04  0.29674101705E+04  0.00000000000E+00 0.  1.
         -2   -1    0    0    0  501 -0.00000000000E+00 -0.00000000000E+00 -0.14215075002E+04  0.14215075002E+04  0.00000000000E+00 0. -1.
         23    2    1    2    0    0 -0.46236372456E+03 -0.64639371573E+03 -0.12490043034E+04  0.14832146506E+04  0.91153169392E+02 0.  0.
         13    1    3    3    0    0 -0.15967403708E+03 -0.18668950945E+03 -0.32030703451E+03  0.40366491972E+03  0.00000000000E+00 0. -1.
        -13    1    3    3    0    0 -0.30268968748E+03 -0.45970420628E+03 -0.92869726887E+03  0.10795497309E+04  0.00000000000E+00 0.  1.
         22    1    1    2    0    0  0.46236372456E+03  0.64639371573E+03  0.27949069737E+04  0.29057030201E+04  0.00000000000E+00 0.  1.
<mgrwt>
<rscale>  0 0.41076494E+04</rscale>
<asrwt>0</asrwt>
<pdfrwt beam="1">  1        2 0.45652464E+00 0.41076494E+04</pdfrwt>
<pdfrwt beam="2">  1       -2 0.21869346E+00 0.41076494E+04</pdfrwt>
<totfact> 0.14369432E-01</totfact>
</mgrwt>
</event>
<event>
 6    1  0.2325157E-005  0.2313871E+04  0.7818608E-02  0.8472472E-01
          2   -1    0    0  501    0  0.00000000000E+00  0.00000000000E+00  0.17611584893E+04  0.17611584893E+04  0.00000000000E+00 0.  1.
         -2   -1    0    0    0  501 -0.00000000000E+00 -0.00000000000E+00 -0.76001100749E+03  0.76001100749E+03  0.00000000000E+00 0. -1.
         23    2    1    2    0    0  0.63229383622E+03 -0.65985434626E+03  0.12711560010E+04  0.15682225654E+04  0.91001000756E+02 0.  0.
         11    1    3    3    0    0  0.46026113463E+03 -0.43327270476E+03  0.83010009292E+03  0.10433751545E+04  0.00000000000E+00 0.  1.
        -11    1    3    3    0    0  0.17203270159E+03 -0.22658164151E+03  0.44105590812E+03  0.52484741094E+03  0.00000000000E+00 0. -1.
         22    1    1    2    0    0 -0.63229383622E+03  0.65985434626E+03 -0.27000851920E+03  0.95294693139E+03  0.00000000000E+00 0. -1.
<mgrwt>
<rscale>  0 0.23138711E+04</rscale>
<asrwt>0</asrwt>
<pdfrwt beam="1">  1        2 0.27094746E+00 0.23138711E+04</pdfrwt>
<pdfrwt beam="2">  1       -2 0.11692477E+00 0.23138711E+04</pdfrwt>
<totfact> 0.46498276E+00</totfact>
</mgrwt>
</event>
<event>
 6    1  0.2325157E-005  0.2302171E+04  0.7818608E-02  0.8477066E-01
          2   -1    0    0  501    0  0.00000000000E+00  0.00000000000E+00  0.12048160647E+04  0.12048160647E+04  0.00000000000E+00 0.  1.
         -2   -1    0    0    0  501 -0.00000000000E+00 -0.00000000000E+00 -0.10997511751E+04  0.10997511751E+04  0.00000000000E+00 0. -1.
         23    2    1    2    0    0  0.36195730172E+03  0.10868495255E+04  0.14522103256E+03  0.11583266476E+04  0.91523192740E+02 0.  0.
         13    1    3    3    0    0  0.16961608777E+03  0.58602833205E+03  0.11625978625E+03  0.62105970816E+03  0.00000000000E+00 0.  1.
        -13    1    3    3    0    0  0.19234121395E+03  0.50082119346E+03  0.28961246312E+02  0.53726693942E+03  0.00000000000E+00 0. -1.
         22    1    1    2    0    0 -0.36195730172E+03 -0.10868495255E+04 -0.40156143034E+02  0.11462405922E+04  0.00000000000E+00 0. -1.
<mgrwt>
<rscale>  0 0.23021710E+04</rscale>
<asrwt>0</asrwt>
<pdfrwt beam="1">  1        2 0.18535632E+00 0.23021710E+04</pdfrwt>
<pdfrwt beam="2">  1       -2 0.16919249E+00 0.23021710E+04</pdfrwt>
<totfact> 0.36837224E+00</totfact>
</mgrwt>
</event>
<event>
 6    1  0.2325157E-005  0.2319647E+04  0.7818608E-02  0.8470215E-01
         -2   -1    0    0    0  501 -0.00000000000E+00  0.00000000000E+00  0.14636973670E+04  0.14636973670E+04  0.00000000000E+00 0. -1.
          2   -1    0    0  501    0  0.00000000000E+00 -0.00000000000E+00 -0.91903605993E+03  0.91903605993E+03  0.00000000000E+00 0.  1.
         23    2    1    2    0    0  0.84651180940E+03  0.12925244302E+03  0.10713623144E+04  0.13773964742E+04  0.12694644888E+03 0.  0.
         11    1    3    3    0    0  0.23571449460E+03  0.87730208106E+02  0.35512586164E+03  0.43516926590E+03  0.00000000000E+00 0. -1.
        -11    1    3    3    0    0  0.61079731480E+03  0.41522234915E+02  0.71623645278E+03  0.94222720829E+03  0.00000000000E+00 0.  1.
         22    1    1    2    0    0 -0.84651180940E+03 -0.12925244302E+03 -0.52670100732E+03  0.10053369528E+04  0.00000000000E+00 0.  1.
<mgrwt>
<rscale>  0 0.23196471E+04</rscale>
<asrwt>0</asrwt>
<pdfrwt beam="1">  1        2 0.14139016E+00 0.23196471E+04</pdfrwt>
<pdfrwt beam="2">  1       -2 0.22518421E+00 0.23196471E+04</pdfrwt>
<totfact> 0.23612532E+00</totfact>
</mgrwt>
</event>
<event>
 6    1  0.2325157E-005  0.9684687E+03  0.7818608E-02  0.9343820E-01
         -2   -1    0    0    0  501 -0.00000000000E+00  0.00000000000E+00  0.54004542536E+03  0.54004542536E+03  0.00000000000E+00 0. -1.
          2   -1    0    0  501    0  0.00000000000E+00 -0.00000000000E+00 -0.43419109277E+03  0.43419109277E+03  0.00000000000E+00 0.  1.
         23    2    1    2    0    0  0.28038313880E+03 -0.12050171930E+03  0.42595453868E+03  0.53197018342E+03  0.91758586231E+02 0.  0.
         13    1    3    3    0    0  0.62245580914E+02 -0.68963602551E+02  0.10120643970E+03  0.13737989029E+03  0.00000000000E+00 0.  1.
        -13    1    3    3    0    0  0.21813755789E+03 -0.51538116751E+02  0.32474809897E+03  0.39459029312E+03  0.00000000000E+00 0. -1.
         22    1    1    2    0    0 -0.28038313880E+03  0.12050171930E+03 -0.32010020609E+03  0.44226633471E+03  0.00000000000E+00 0.  1.
<mgrwt>
<rscale>  0 0.96846872E+03</rscale>
<asrwt>0</asrwt>
<pdfrwt beam="1">  1        2 0.66798630E-01 0.96846872E+03</pdfrwt>
<pdfrwt beam="2">  1       -2 0.83083911E-01 0.96846872E+03</pdfrwt>
<totfact> 0.92004030E+01</totfact>
</mgrwt>
</event>
<event>
 6    1  0.2325157E-005  0.1574027E+04  0.7818608E-02  0.8836665E-01
         -2   -1    0    0    0  501 -0.00000000000E+00  0.00000000000E+00  0.53011257311E+03  0.53011257311E+03  0.00000000000E+00 0. -1.
          2   -1    0    0  501    0  0.00000000000E+00 -0.00000000000E+00 -0.11684133206E+04  0.11684133206E+04  0.00000000000E+00 0.  1.
         23    2    1    2    0    0 -0.41004102754E+03 -0.23948580925E+03 -0.99357379202E+03  0.11054778070E+04  0.96980433265E+02 0.  0.
         13    1    3    3    0    0 -0.17453598132E+03 -0.53710816262E+02 -0.42671666878E+03  0.46414951898E+03  0.00000000000E+00 0. -1.
        -13    1    3    3    0    0 -0.23550504623E+03 -0.18577499298E+03 -0.56685712324E+03  0.64132828800E+03  0.00000000000E+00 0.  1.
         22    1    1    2    0    0  0.41004102754E+03  0.23948580925E+03  0.35527304448E+03  0.59304808678E+03  0.00000000000E+00 0. -1.
<mgrwt>
<rscale>  0 0.15740274E+04</rscale>
<asrwt>0</asrwt>
<pdfrwt beam="1">  1        2 0.17975589E+00 0.15740274E+04</pdfrwt>
<pdfrwt beam="2">  1       -2 0.81555782E-01 0.15740274E+04</pdfrwt>
<totfact> 0.25167276E+01</totfact>
</mgrwt>
</event>
<event>
 6    1  0.2325157E-005  0.3140045E+04  0.7818608E-02  0.8204833E-01
         -2   -1    0    0    0  501 -0.00000000000E+00  0.00000000000E+00  0.15647902472E+04  0.15647902472E+04  0.00000000000E+00 0. -1.
          2   -1    0    0  501    0  0.00000000000E+00 -0.00000000000E+00 -0.15752722590E+04  0.15752722590E+04  0.00000000000E+00 0.  1.
         23    2    1    2    0    0 -0.44159004488E+03 -0.93739927879E+03  0.11723218655E+04  0.15675663415E+04  0.95950524064E+02 0.  0.
         11    1    3    3    0    0 -0.19568833031E+03 -0.43677157479E+03  0.47101823617E+03  0.67150689496E+03  0.00000000000E+00 0. -1.
        -11    1    3    3    0    0 -0.24590171457E+03 -0.50062770400E+03  0.70130362931E+03  0.89605944654E+03  0.00000000000E+00 0.  1.
         22    1    1    2    0    0  0.44159004488E+03  0.93739927879E+03 -0.11828038773E+04  0.15724961646E+04  0.00000000000E+00 0.  1.
<mgrwt>
<rscale>  0 0.31400450E+04</rscale>
<asrwt>0</asrwt>
<pdfrwt beam="1">  1        2 0.24234958E+00 0.31400450E+04</pdfrwt>
<pdfrwt beam="2">  1       -2 0.24073696E+00 0.31400450E+04</pdfrwt>
<totfact> 0.71421034E-01</totfact>
</mgrwt>
</event>
<event>
 6    1  0.2325157E-005  0.1162815E+04  0.7818608E-02  0.9146042E-01
         -2   -1    0    0    0  501 -0.00000000000E+00  0.00000000000E+00  0.32869258080E+03  0.32869258080E+03  0.00000000000E+00 0. -1.
          2   -1    0    0  501    0  0.00000000000E+00 -0.00000000000E+00 -0.10284211451E+04  0.10284211451E+04  0.00000000000E+00 0.  1.
         23    2    1    2    0    0  0.20935684531E+03 -0.43121760259E+03 -0.72875267649E+03  0.87688325147E+03  0.89804586549E+02 0.  0.
         13    1    3    3    0    0  0.10382043927E+03 -0.20978523329E+03 -0.27548038373E+03  0.36149407953E+03  0.00000000000E+00 0. -1.
        -13    1    3    3    0    0  0.10553640604E+03 -0.22143236931E+03 -0.45327229275E+03  0.51538917194E+03  0.00000000000E+00 0.  1.
         22    1    1    2    0    0 -0.20935684531E+03  0.43121760259E+03  0.29024112198E+02  0.48023047441E+03  0.00000000000E+00 0. -1.
<mgrwt>
<rscale>  0 0.11628145E+04</rscale>
<asrwt>0</asrwt>
<pdfrwt beam="1">  1        2 0.15821864E+00 0.11628145E+04</pdfrwt>
<pdfrwt beam="2">  1       -2 0.50568089E-01 0.11628145E+04</pdfrwt>
<totfact> 0.88332434E+01</totfact>
</mgrwt>
</event>
<event>
 6    1  0.2325157E-005  0.3430120E+04  0.7818608E-02  0.8130553E-01
         -2   -1    0    0    0  501 -0.00000000000E+00  0.00000000000E+00  0.92195472548E+03  0.92195472548E+03  0.00000000000E+00 0. -1.
          2   -1    0    0  501    0  0.00000000000E+00 -0.00000000000E+00 -0.31904293565E+04  0.31904293565E+04  0.00000000000E+00 0.  1.
         23    2    1    2    0    0 -0.78226411697E+03  0.15231754073E+04 -0.10505732631E+04  0.20111263129E+04  0.94469017268E+02 0.  0.
         13    1    3    3    0    0 -0.71050737202E+03  0.13946549632E+04 -0.98956235258E+03  0.18517874721E+04  0.00000000000E+00 0. -1.
        -13    1    3    3    0    0 -0.71756744949E+02  0.12852044408E+03 -0.61010910530E+02  0.15933884083E+03  0.00000000000E+00 0.  1.
         22    1    1    2    0    0  0.78226411697E+03 -0.15231754073E+04 -0.12179013679E+04  0.21012577691E+04  0.00000000000E+00 0.  1.
<mgrwt>
<rscale>  0 0.34301204E+04</rscale>
<asrwt>0</asrwt>
<pdfrwt beam="1">  1        2 0.49083529E+00 0.34301204E+04</pdfrwt>
<pdfrwt beam="2">  1       -2 0.14183919E+00 0.34301204E+04</pdfrwt>
<totfact> 0.37702904E-01</totfact>
</mgrwt>
</event>
<event>
 6    1  0.2325157E-005  0.2181759E+04  0.7818608E-02  0.8526059E-01
         -2   -1    0    0    0  501 -0.00000000000E+00  0.00000000000E+00  0.35612862816E+03  0.35612862816E+03  0.00000000000E+00 0. -1.
          2   -1    0    0  501    0  0.00000000000E+00 -0.00000000000E+00 -0.33415396260E+04  0.33415396260E+04  0.00000000000E+00 0.  1.
         23    2    1    2    0    0 -0.13545648308E+03 -0.68488409606E+03 -0.29117209993E+04  0.29956391239E+04  0.91213483154E+02 0.  0.
         11    1    3    3    0    0 -0.14207383431E+03 -0.58057571507E+03 -0.23953103373E+04  0.24687577336E+04  0.00000000000E+00 0. -1.
        -11    1    3    3    0    0  0.66173512318E+01 -0.10430838099E+03 -0.51641066197E+03  0.52688139033E+03  0.00000000000E+00 0.  1.
         22    1    1    2    0    0  0.13545648308E+03  0.68488409606E+03 -0.73689998623E+02  0.70202913027E+03  0.00000000000E+00 0. -1.
<mgrwt>
<rscale>  0 0.21817589E+04</rscale>
<asrwt>0</asrwt>
<pdfrwt beam="1">  1        2 0.51408304E+00 0.21817589E+04</pdfrwt>
<pdfrwt beam="2">  1       -2 0.54789017E-01 0.21817589E+04</pdfrwt>
<totfact> 0.30052824E+00</totfact>
</mgrwt>
</event>
<event>
 6    1  0.2325157E-005  0.1243482E+04  0.7818608E-02  0.9075626E-01
          2   -1    0    0  501    0  0.00000000000E+00  0.00000000000E+00  0.36869137592E+03  0.36869137592E+03  0.00000000000E+00 0.  1.
         -2   -1    0    0    0  501 -0.00000000000E+00 -0.00000000000E+00 -0.10484697897E+04  0.10484697897E+04  0.00000000000E+00 0. -1.
         23    2    1    2    0    0  0.16449506302E+03 -0.57172413417E+03 -0.14954977098E+03  0.62024867041E+03  0.91739674066E+02 0.  0.
         11    1    3    3    0    0  0.10295381347E+03 -0.48345843891E+03 -0.11978490650E+03  0.50860591197E+03  0.00000000000E+00 0.  1.
        -11    1    3    3    0    0  0.61541249553E+02 -0.88265695260E+02 -0.29764864476E+02  0.11164275845E+03  0.00000000000E+00 0. -1.
         22    1    1    2    0    0 -0.16449506302E+03  0.57172413417E+03 -0.53022864279E+03  0.79691249519E+03  0.00000000000E+00 0. -1.
<mgrwt>
<rscale>  0 0.12434818E+04</rscale>
<asrwt>0</asrwt>
<pdfrwt beam="1">  1        2 0.56721750E-01 0.12434818E+04</pdfrwt>
<pdfrwt beam="2">  1       -2 0.16130304E+00 0.12434818E+04</pdfrwt>
<totfact> 0.21105640E+01</totfact>
</mgrwt>
</event>
<event>
 6    1  0.2325157E-005  0.2336717E+04  0.7818608E-02  0.8463583E-01
         -1   -1    0    0    0  501 -0.00000000000E+00  0.00000000000E+00  0.73541591603E+03  0.73541591603E+03  0.00000000000E+00 0. -1.
          1   -1    0    0  501    0  0.00000000000E+00 -0.00000000000E+00 -0.18561770206E+04  0.18561770206E+04  0.00000000000E+00 0.  1.
         23    2    1    2    0    0 -0.25464988748E+03  0.66958038045E+03  0.46002050506E+03  0.85606565409E+03  0.89694414331E+02 0.  0.
         13    1    3    3    0    0 -0.22778144048E+03  0.60127216211E+03  0.37740281165E+03  0.74555045423E+03  0.00000000000E+00 0. -1.
        -13    1    3    3    0    0 -0.26868447006E+02  0.68308218338E+02  0.82617693408E+02  0.11051519986E+03  0.00000000000E+00 0.  1.
         22    1    1    2    0    0  0.25464988748E+03 -0.66958038045E+03 -0.15807816096E+04  0.17355272825E+04  0.00000000000E+00 0.  1.
<mgrwt>
<rscale>  0 0.23367175E+04</rscale>
<asrwt>0</asrwt>
<pdfrwt beam="1">  1        1 0.28556569E+00 0.23367175E+04</pdfrwt>
<pdfrwt beam="2">  1       -1 0.11314091E+00 0.23367175E+04</pdfrwt>
<totfact> 0.23991974E+00</totfact>
</mgrwt>
</event>
<event>
 6    1  0.2325157E-005  0.9502514E+03  0.7818608E-02  0.9364857E-01
          2   -1    0    0  501    0  0.00000000000E+00  0.00000000000E+00  0.21362102441E+04  0.21362102441E+04  0.00000000000E+00 0.  1.
         -2   -1    0    0    0  501 -0.00000000000E+00 -0.00000000000E+00 -0.10567518431E+03  0.10567518431E+03  0.00000000000E+00 0. -1.
         23    2    1    2    0    0  0.79885448418E+02  0.11159347697E+03  0.20869302790E+04  0.20935101955E+04  0.93124433325E+02 0.  0.
         11    1    3    3    0    0  0.88877336495E+02  0.11429203623E+03  0.16124244504E+04  0.16189115043E+04  0.00000000000E+00 0. -1.
        -11    1    3    3    0    0 -0.89918880768E+01 -0.26985592563E+01  0.47450582864E+03  0.47459869120E+03  0.00000000000E+00 0.  1.
         22    1    1    2    0    0 -0.79885448418E+02 -0.11159347697E+03 -0.56395219295E+02  0.14837523288E+03  0.00000000000E+00 0. -1.
<mgrwt>
<rscale>  0 0.95025136E+03</rscale>
<asrwt>0</asrwt>
<pdfrwt beam="1">  1        2 0.32864770E+00 0.95025136E+03</pdfrwt>
<pdfrwt beam="2">  1       -2 0.16257722E-01 0.95025136E+03</pdfrwt>
<totfact> 0.17307181E+02</totfact>
</mgrwt>
</event>
<event>
 6    1  0.2325157E-005  0.4913394E+04  0.7818608E-02  0.7842008E-01
          2   -1    0    0  501    0  0.00000000000E+00  0.00000000000E+00  0.30184504232E+04  0.30184504232E+04  0.00000000000E+00 0.  1.
         -2   -1    0    0    0  501 -0.00000000000E+00 -0.00000000000E+00 -0.19994892146E+04  0.19994892146E+04  0.00000000000E+00 0. -1.
         23    2    1    2    0    0 -0.55286282905E+03 -0.15661522853E+04 -0.13379273519E+04  0.21346404900E+04  0.90278093508E+02 0.  0.
         13    1    3    3    0    0 -0.17536340865E+02 -0.27036917287E+02 -0.39945212847E+02  0.51323855825E+02  0.00000000000E+00 0.  1.
        -13    1    3    3    0    0 -0.53532648818E+03 -0.15391153680E+04 -0.12979821391E+04  0.20833166342E+04  0.00000000000E+00 0. -1.
         22    1    1    2    0    0  0.55286282905E+03  0.15661522853E+04  0.23568885605E+04  0.28832991477E+04  0.00000000000E+00 0.  1.
<mgrwt>
<rscale>  0 0.49133936E+04</rscale>
<asrwt>0</asrwt>
<pdfrwt beam="1">  1        2 0.46437699E+00 0.49133936E+04</pdfrwt>
<pdfrwt beam="2">  1       -2 0.30761372E+00 0.49133936E+04</pdfrwt>
<totfact> 0.35451832E-02</totfact>
</mgrwt>
</event>
<event>
 6    1  0.2325157E-005  0.1288039E+04  0.7818608E-02  0.9039105E-01
          4   -1    0    0  501    0  0.00000000000E+00  0.00000000000E+00  0.34071444698E+03  0.34071444698E+03  0.00000000000E+00 0.  1.
         -4   -1    0    0    0  501 -0.00000000000E+00 -0.00000000000E+00 -0.12173271126E+04  0.12173271126E+04  0.00000000000E+00 0. -1.
         23    2    1    2    0    0 -0.14665298112E+03  0.61402427729E+03 -0.56891993090E+03  0.85575406221E+03  0.10055952089E+03 0.  0.
         13    1    3    3    0    0 -0.14758952196E+03  0.42339217710E+03 -0.40984532192E+03  0.60746752219E+03  0.00000000000E+00 0. -1.
        -13    1    3    3    0    0  0.93654083695E+00  0.19063210018E+03 -0.15907460899E+03  0.24828654002E+03  0.00000000000E+00 0.  1.
         22    1    1    2    0    0  0.14665298112E+03 -0.61402427729E+03 -0.30769273470E+03  0.70228749737E+03  0.00000000000E+00 0.  1.
<mgrwt>
<rscale>  0 0.12880387E+04</rscale>
<asrwt>0</asrwt>
<pdfrwt beam="1">  1        4 0.52417608E-01 0.12880387E+04</pdfrwt>
<pdfrwt beam="2">  1       -4 0.18728109E+00 0.12880387E+04</pdfrwt>
<totfact> 0.10972169E+00</totfact>
</mgrwt>
</event>
<event>
 6    1  0.2325157E-005  0.6306916E+03  0.7818608E-02  0.9843700E-01
         -2   -1    0    0    0  501 -0.00000000000E+00  0.00000000000E+00  0.51962475074E+02  0.51962475074E+02  0.00000000000E+00 0. -1.
          2   -1    0    0  501    0  0.00000000000E+00 -0.00000000000E+00 -0.19137456713E+04  0.19137456713E+04  0.00000000000E+00 0.  1.
         23    2    1    2    0    0  0.54317900985E+02 -0.24095078606E+03 -0.15273275799E+04  0.15499338387E+04  0.92507579098E+02 0.  0.
         11    1    3    3    0    0  0.18412891038E+02 -0.83401402818E+02 -0.29689164402E+03  0.30893280311E+03  0.00000000000E+00 0. -1.
        -11    1    3    3    0    0  0.35905009947E+02 -0.15754938324E+03 -0.12304359359E+04  0.12410010356E+04  0.00000000000E+00 0.  1.
         22    1    1    2    0    0 -0.54317900985E+02  0.24095078606E+03 -0.33445561631E+03  0.41577430771E+03  0.00000000000E+00 0. -1.
<mgrwt>
<rscale>  0 0.63069156E+03</rscale>
<asrwt>0</asrwt>
<pdfrwt beam="1">  1        2 0.29442242E+00 0.63069156E+03</pdfrwt>
<pdfrwt beam="2">  1       -2 0.79942268E-02 0.63069156E+03</pdfrwt>
<totfact> 0.75627727E+02</totfact>
</mgrwt>
</event>
<event>
 6    1  0.2325157E-005  0.2915574E+04  0.7818608E-02  0.8268259E-01
          2   -1    0    0  501    0  0.00000000000E+00  0.00000000000E+00  0.31036499926E+04  0.31036499926E+04  0.00000000000E+00 0.  1.
         -2   -1    0    0    0  501 -0.00000000000E+00 -0.00000000000E+00 -0.68472385830E+03  0.68472385830E+03  0.00000000000E+00 0. -1.
         23    2    1    2    0    0  0.18886992065E+03 -0.56617554005E+03  0.29365604389E+04  0.29983283697E+04  0.10178021323E+03 0.  0.
         13    1    3    3    0    0  0.10726045190E+03 -0.20866026919E+03  0.13208744837E+04  0.13415488490E+04  0.00000000000E+00 0. -1.
        -13    1    3    3    0    0  0.81609468748E+02 -0.35751527086E+03  0.16156859552E+04  0.16567795207E+04  0.00000000000E+00 0.  1.
         22    1    1    2    0    0 -0.18886992065E+03  0.56617554005E+03 -0.51763430463E+03  0.79004548123E+03  0.00000000000E+00 0. -1.
<mgrwt>
<rscale>  0 0.29155742E+04</rscale>
<asrwt>0</asrwt>
<pdfrwt beam="1">  1        2 0.47748460E+00 0.29155742E+04</pdfrwt>
<pdfrwt beam="2">  1       -2 0.10534213E+00 0.29155742E+04</pdfrwt>
<totfact> 0.94045680E-01</totfact>
</mgrwt>
</event>
<event>
 6    1  0.2325157E-005  0.3897252E+04  0.7818608E-02  0.8025601E-01
          2   -1    0    0  501    0  0.00000000000E+00  0.00000000000E+00  0.17890053231E+04  0.17890053231E+04  0.00000000000E+00 0.  1.
         -2   -1    0    0    0  501 -0.00000000000E+00 -0.00000000000E+00 -0.21224881623E+04  0.21224881623E+04  0.00000000000E+00 0. -1.
         23    2    1    2    0    0  0.33191170150E+03  0.28780052381E+03 -0.20710574978E+04  0.21192434434E+04  0.94440956858E+02 0.  0.
         13    1    3    3    0    0  0.23384259931E+03  0.17617648916E+03 -0.11736025265E+04  0.12095715799E+04  0.00000000000E+00 0.  1.
        -13    1    3    3    0    0  0.98069102196E+02  0.11162403465E+03 -0.89745497124E+03  0.90967186354E+03  0.00000000000E+00 0. -1.
         22    1    1    2    0    0 -0.33191170150E+03 -0.28780052381E+03  0.17375746585E+04  0.17922500420E+04  0.00000000000E+00 0.  1.
<mgrwt>
<rscale>  0 0.38972517E+04</rscale>
<asrwt>0</asrwt>
<pdfrwt beam="1">  1        2 0.27523159E+00 0.38972517E+04</pdfrwt>
<pdfrwt beam="2">  1       -2 0.32653664E+00 0.38972517E+04</pdfrwt>
<totfact> 0.15181807E-01</totfact>
</mgrwt>
</event>
<event>
 6    1  0.2325157E-005  0.1216835E+04  0.7818608E-02  0.9098247E-01
         -2   -1    0    0    0  501 -0.00000000000E+00  0.00000000000E+00  0.30113605591E+03  0.30113605591E+03  0.00000000000E+00 0. -1.
          2   -1    0    0  501    0  0.00000000000E+00 -0.00000000000E+00 -0.12292506732E+04  0.12292506732E+04  0.00000000000E+00 0.  1.
         23    2    1    2    0    0  0.19316065876E+03 -0.48197303185E+03 -0.76211695760E+02  0.53271562538E+03  0.91480442877E+02 0.  0.
         11    1    3    3    0    0  0.40692131705E+02 -0.69647604633E+02  0.19090161214E+02  0.82891933678E+02  0.00000000000E+00 0.  1.
        -11    1    3    3    0    0  0.15246852706E+03 -0.41232542722E+03 -0.95301856975E+02  0.44982369170E+03  0.00000000000E+00 0. -1.
         22    1    1    2    0    0 -0.19316065876E+03  0.48197303185E+03 -0.85190292155E+03  0.99767110375E+03  0.00000000000E+00 0.  1.
<mgrwt>
<rscale>  0 0.12168347E+04</rscale>
<asrwt>0</asrwt>
<pdfrwt beam="1">  1        2 0.18911549E+00 0.12168347E+04</pdfrwt>
<pdfrwt beam="2">  1       -2 0.46328624E-01 0.12168347E+04</pdfrwt>
<totfact> 0.79190526E+01</totfact>
</mgrwt>
</event>
<event>
 6    1  0.2325157E-005  0.2145718E+04  0.7818608E-02  0.8541367E-01
          2   -1    0    0  501    0  0.00000000000E+00  0.00000000000E+00  0.12335134247E+04  0.12335134247E+04  0.00000000000E+00 0.  1.
         -2   -1    0    0    0  501 -0.00000000000E+00 -0.00000000000E+00 -0.93312862131E+03  0.93312862131E+03  0.00000000000E+00 0. -1.
         23    2    1    2    0    0  0.48548965172E+03  0.56071076510E+03 -0.62956125931E+03  0.97714784950E+03  0.91508341374E+02 0.  0.
         11    1    3    3    0    0  0.23450780670E+03  0.28461833955E+03 -0.37161880164E+03  0.52354755691E+03  0.00000000000E+00 0. -1.
        -11    1    3    3    0    0  0.25098184501E+03  0.27609242555E+03 -0.25794245767E+03  0.45360029259E+03  0.00000000000E+00 0.  1.
         22    1    1    2    0    0 -0.48548965172E+03 -0.56071076510E+03  0.92994606271E+03  0.11894941965E+04  0.00000000000E+00 0.  1.
<mgrwt>
<rscale>  0 0.21457182E+04</rscale>
<asrwt>0</asrwt>
<pdfrwt beam="1">  1        2 0.18977130E+00 0.21457182E+04</pdfrwt>
<pdfrwt beam="2">  1       -2 0.14355825E+00 0.21457182E+04</pdfrwt>
<totfact> 0.55874405E+00</totfact>
</mgrwt>
</event>
<event>
 6    1  0.3345574E-005  0.3506448E+04  0.7818608E-02  0.8112264E-01
          2   -1    0    0  501    0  0.00000000000E+00  0.00000000000E+00  0.22725556309E+04  0.22725556309E+04  0.00000000000E+00 0.  1.
         -2   -1    0    0    0  501 -0.00000000000E+00 -0.00000000000E+00 -0.13525718121E+04  0.13525718121E+04  0.00000000000E+00 0. -1.
         23    2    1    2    0    0 -0.10345824974E+04  0.65303104527E+03 -0.83629118187E+03  0.14847273944E+04  0.90675271014E+02 0.  0.
         11    1    3    3    0    0 -0.60666671823E+03  0.37085159978E+03 -0.53833074522E+03  0.89183821813E+03  0.00000000000E+00 0.  1.
        -11    1    3    3    0    0 -0.42791577919E+03  0.28217944549E+03 -0.29796043664E+03  0.59288917627E+03  0.00000000000E+00 0. -1.
         22    1    1    2    0    0  0.10345824974E+04 -0.65303104527E+03  0.17562750006E+04  0.21404000486E+04  0.00000000000E+00 0.  1.
<mgrwt>
<rscale>  0 0.35064482E+04</rscale>
<asrwt>0</asrwt>
<pdfrwt beam="1">  1        2 0.34962394E+00 0.35064482E+04</pdfrwt>
<pdfrwt beam="2">  1       -2 0.20808797E+00 0.35064482E+04</pdfrwt>
<totfact> 0.45464105E-01</totfact>
</mgrwt>
</event>
<event>
 6    1  0.3247453E-005  0.3133121E+04  0.7818608E-02  0.8206706E-01
          2   -1    0    0  501    0  0.00000000000E+00  0.00000000000E+00  0.13675276880E+04  0.13675276880E+04  0.00000000000E+00 0.  1.
         -2   -1    0    0    0  501 -0.00000000000E+00 -0.00000000000E+00 -0.17945614680E+04  0.17945614680E+04  0.00000000000E+00 0. -1.
         23    2    1    2    0    0 -0.21129693876E+03 -0.26380533285E+03  0.13286562333E+04  0.13741610051E+04  0.93549087540E+02 0.  0.
         13    1    3    3    0    0 -0.86797274277E+02 -0.15819855025E+03  0.83264695605E+03  0.85197505923E+03  0.00000000000E+00 0.  1.
        -13    1    3    3    0    0 -0.12449966449E+03 -0.10560678260E+03  0.49600927724E+03  0.52218594590E+03  0.00000000000E+00 0. -1.
         22    1    1    2    0    0  0.21129693876E+03  0.26380533285E+03 -0.17556900133E+04  0.17879281509E+04  0.00000000000E+00 0. -1.
<mgrwt>
<rscale>  0 0.31331214E+04</rscale>
<asrwt>0</asrwt>
<pdfrwt beam="1">  1        2 0.21038888E+00 0.31331214E+04</pdfrwt>
<pdfrwt beam="2">  1       -2 0.27608638E+00 0.31331214E+04</pdfrwt>
<totfact> 0.56905409E-01</totfact>
</mgrwt>
</event>
<event>
 6    1  0.2325157E-005  0.1123094E+04  0.7818608E-02  0.9182971E-01
          2   -1    0    0  501    0  0.00000000000E+00  0.00000000000E+00  0.23338563078E+04  0.23338563078E+04  0.00000000000E+00 0.  1.
         -2   -1    0    0    0  501 -0.00000000000E+00 -0.00000000000E+00 -0.13511319445E+03  0.13511319445E+03  0.00000000000E+00 0. -1.
         23    2    1    2    0    0 -0.10468622344E+03 -0.25753432269E+03  0.21697243042E+04  0.21894606043E+04  0.93547040245E+02 0.  0.
         13    1    3    3    0    0 -0.15551654998E+02 -0.12208928744E+03  0.11975283361E+04  0.12038362695E+04  0.00000000000E+00 0.  1.
        -13    1    3    3    0    0 -0.89134568440E+02 -0.13544503525E+03  0.97219596811E+03  0.98562433476E+03  0.00000000000E+00 0. -1.
         22    1    1    2    0    0  0.10468622344E+03  0.25753432269E+03  0.29018809122E+02  0.27950889793E+03  0.00000000000E+00 0. -1.
<mgrwt>
<rscale>  0 0.11230936E+04</rscale>
<asrwt>0</asrwt>
<pdfrwt beam="1">  1        2 0.35905479E+00 0.11230936E+04</pdfrwt>
<pdfrwt beam="2">  1       -2 0.20786647E-01 0.11230936E+04</pdfrwt>
<totfact> 0.86361271E+01</totfact>
</mgrwt>
</event>
<event>
 6    1  0.2325157E-005  0.3398592E+04  0.7818608E-02  0.8138252E-01
          2   -1    0    0  501    0  0.00000000000E+00  0.00000000000E+00  0.36464472727E+04  0.36464472727E+04  0.00000000000E+00 0.  1.
         -2   -1    0    0    0  501 -0.00000000000E+00 -0.00000000000E+00 -0.79189604009E+03  0.79189604009E+03  0.00000000000E+00 0. -1.
         23    2    1    2    0    0  0.60364629324E+03  0.19658818603E+02  0.35008379337E+04  0.35537745949E+04  0.93125272931E+02 0.  0.
         11    1    3    3    0    0  0.38779980900E+03  0.55696026660E+02  0.23136676458E+04  0.23466036552E+04  0.00000000000E+00 0.  1.
        -11    1    3    3    0    0  0.21584648424E+03 -0.36037208057E+02  0.11871702879E+04  0.12071709397E+04  0.00000000000E+00 0. -1.
         22    1    1    2    0    0 -0.60364629324E+03 -0.19658818603E+02 -0.64628670118E+03  0.88456871786E+03  0.00000000000E+00 0. -1.
<mgrwt>
<rscale>  0 0.33985922E+04</rscale>
<asrwt>0</asrwt>
<pdfrwt beam="1">  1        2 0.56099188E+00 0.33985922E+04</pdfrwt>
<pdfrwt beam="2">  1       -2 0.12183016E+00 0.33985922E+04</pdfrwt>
<totfact> 0.27023162E-01</totfact>
</mgrwt>
</event>
<event>
 6    1  0.2325157E-005  0.2787739E+04  0.7818608E-02  0.8307085E-01
          2   -1    0    0  501    0  0.00000000000E+00  0.00000000000E+00  0.22889491069E+04  0.22889491069E+04  0.00000000000E+00 0.  1.
         -2   -1    0    0    0  501 -0.00000000000E+00 -0.00000000000E+00 -0.84880525191E+03  0.84880525191E+03  0.00000000000E+00 0. -1.
         23    2    1    2    0    0  0.39411377638E+03 -0.63266757187E+02 -0.78037437955E+03  0.88164496846E+03  0.94790964000E+02 0.  0.
         11    1    3    3    0    0  0.10620634057E+03 -0.37518930446E+02 -0.30680383503E+03  0.32682724812E+03  0.00000000000E+00 0. -1.
        -11    1    3    3    0    0  0.28790743581E+03 -0.25747826742E+02 -0.47357054452E+03  0.55481772034E+03  0.00000000000E+00 0.  1.
         22    1    1    2    0    0 -0.39411377638E+03  0.63266757187E+02  0.22205182345E+04  0.22561093903E+04  0.00000000000E+00 0.  1.
<mgrwt>
<rscale>  0 0.27877389E+04</rscale>
<asrwt>0</asrwt>
<pdfrwt beam="1">  1        2 0.35214601E+00 0.27877389E+04</pdfrwt>
<pdfrwt beam="2">  1       -2 0.13058542E+00 0.27877389E+04</pdfrwt>
<totfact> 0.17200580E+00</totfact>
</mgrwt>
</event>
<event>
 6    1  0.2325157E-005  0.1065499E+04  0.7818608E-02  0.9239487E-01
         -2   -1    0    0    0  501 -0.00000000000E+00  0.00000000000E+00  0.11997411050E+03  0.11997411050E+03  0.00000000000E+00 0. -1.
          2   -1    0    0  501    0  0.00000000000E+00 -0.00000000000E+00 -0.23656926353E+04  0.23656926353E+04  0.00000000000E+00 0.  1.
         23    2    1    2    0    0 -0.18516940805E+03  0.33564678122E+03 -0.28235092901E+03  0.48522709722E+03  0.93684669724E+02 0.  0.
         13    1    3    3    0    0 -0.39374945887E+02  0.42851254463E+02 -0.88554546053E+01  0.58864551717E+02  0.00000000000E+00 0. -1.
        -13    1    3    3    0    0 -0.14579446216E+03  0.29279552676E+03 -0.27349547440E+03  0.42636254550E+03  0.00000000000E+00 0.  1.
         22    1    1    2    0    0  0.18516940805E+03 -0.33564678122E+03 -0.19633675958E+04  0.20004396486E+04  0.00000000000E+00 0.  1.
<mgrwt>
<rscale>  0 0.10654987E+04</rscale>
<asrwt>0</asrwt>
<pdfrwt beam="1">  1        2 0.36395268E+00 0.10654987E+04</pdfrwt>
<pdfrwt beam="2">  1       -2 0.18457557E-01 0.10654987E+04</pdfrwt>
<totfact> 0.10255132E+02</totfact>
</mgrwt>
</event>
<event>
 6    1  0.2325157E-005  0.2733661E+04  0.7818608E-02  0.8324165E-01
          2   -1    0    0  501    0  0.00000000000E+00  0.00000000000E+00  0.15209595253E+04  0.15209595253E+04  0.00000000000E+00 0.  1.
         -2   -1    0    0    0  501 -0.00000000000E+00 -0.00000000000E+00 -0.12283199737E+04  0.12283199737E+04  0.00000000000E+00 0. -1.
         23    2    1    2    0    0  0.69063583205E+03  0.96147222054E+03  0.83044710693E+03  0.14490319649E+04  0.92976096764E+02 0.  0.
         11    1    3    3    0    0  0.45093140625E+03  0.56330195018E+03  0.47393852021E+03  0.86328786691E+03  0.00000000000E+00 0.  1.
        -11    1    3    3    0    0  0.23970442581E+03  0.39817027036E+03  0.35650858671E+03  0.58574409801E+03  0.00000000000E+00 0. -1.
         22    1    1    2    0    0 -0.69063583205E+03 -0.96147222054E+03 -0.53780755535E+03  0.13002475341E+04  0.00000000000E+00 0. -1.
<mgrwt>
<rscale>  0 0.27336605E+04</rscale>
<asrwt>0</asrwt>
<pdfrwt beam="1">  1        2 0.23399377E+00 0.27336605E+04</pdfrwt>
<pdfrwt beam="2">  1       -2 0.18897230E+00 0.27336605E+04</pdfrwt>
<totfact> 0.17022118E+00</totfact>
</mgrwt>
</event>
<event>
 6    1  0.2325157E-005  0.4430750E+04  0.7818608E-02  0.7922874E-01
         -2   -1    0    0    0  501 -0.00000000000E+00  0.00000000000E+00  0.25824880766E+04  0.25824880766E+04  0.00000000000E+00 0. -1.
          2   -1    0    0  501    0  0.00000000000E+00 -0.00000000000E+00 -0.19004491164E+04  0.19004491164E+04  0.00000000000E+00 0.  1.
         23    2    1    2    0    0  0.17945054249E+04 -0.88327643913E+03 -0.62047454335E+03  0.20961048958E+04  0.90774926723E+02 0.  0.
         13    1    3    3    0    0  0.87570099025E+03 -0.47694866717E+03 -0.32901673541E+03  0.10500401267E+04  0.00000000000E+00 0. -1.
        -13    1    3    3    0    0  0.91880443463E+03 -0.40632777196E+03 -0.29145780795E+03  0.10460647691E+04  0.00000000000E+00 0.  1.
         22    1    1    2    0    0 -0.17945054249E+04  0.88327643913E+03  0.13025135036E+04  0.23868322972E+04  0.00000000000E+00 0. -1.
<mgrwt>
<rscale>  0 0.44307504E+04</rscale>
<asrwt>0</asrwt>
<pdfrwt beam="1">  1        2 0.29237679E+00 0.44307504E+04</pdfrwt>
<pdfrwt beam="2">  1       -2 0.39730586E+00 0.44307504E+04</pdfrwt>
<totfact> 0.44697291E-02</totfact>
</mgrwt>
</event>
<event>
 6    1  0.2325157E-005  0.2418939E+04  0.7818608E-02  0.8432447E-01
         -2   -1    0    0    0  501 -0.00000000000E+00  0.00000000000E+00  0.49119570151E+03  0.49119570151E+03  0.00000000000E+00 0. -1.
          2   -1    0    0  501    0  0.00000000000E+00 -0.00000000000E+00 -0.29780719260E+04  0.29780719260E+04  0.00000000000E+00 0.  1.
         23    2    1    2    0    0 -0.68881076353E+03 -0.98783180899E+03 -0.13763931368E+04  0.18311453369E+04  0.91450681144E+02 0.  0.
         11    1    3    3    0    0 -0.30862423419E+03 -0.51587204479E+03 -0.65767846506E+03  0.89101843299E+03  0.00000000000E+00 0.  1.
        -11    1    3    3    0    0 -0.38018652934E+03 -0.47195976421E+03 -0.71871467177E+03  0.94012690396E+03  0.00000000000E+00 0. -1.
         22    1    1    2    0    0  0.68881076353E+03  0.98783180899E+03 -0.11104830876E+04  0.16381222905E+04  0.00000000000E+00 0. -1.
<mgrwt>
<rscale>  0 0.24189387E+04</rscale>
<asrwt>0</asrwt>
<pdfrwt beam="1">  1        2 0.45816492E+00 0.24189387E+04</pdfrwt>
<pdfrwt beam="2">  1       -2 0.75568567E-01 0.24189387E+04</pdfrwt>
<totfact> 0.25344668E+00</totfact>
</mgrwt>
</event>
<event>
 6    1  0.2325157E-005  0.3322296E+04  0.7818608E-02  0.8157245E-01
          2   -1    0    0  501    0  0.00000000000E+00  0.00000000000E+00  0.29605815887E+04  0.29605815887E+04  0.00000000000E+00 0.  1.
         -2   -1    0    0    0  501 -0.00000000000E+00 -0.00000000000E+00 -0.93205108719E+03  0.93205108719E+03  0.00000000000E+00 0. -1.
         23    2    1    2    0    0 -0.21267790238E+03  0.15293935189E+04  0.17285638647E+04  0.23196557501E+04  0.92700262148E+02 0.  0.
         13    1    3    3    0    0 -0.10331341669E+03  0.53866230900E+03  0.56266845129E+03  0.78576493386E+03  0.00000000000E+00 0.  1.
        -13    1    3    3    0    0 -0.10936448569E+03  0.99073120993E+03  0.11658954134E+04  0.15338908162E+04  0.00000000000E+00 0. -1.
         22    1    1    2    0    0  0.21267790238E+03 -0.15293935189E+04  0.29996663679E+03  0.15729769258E+04  0.00000000000E+00 0. -1.
<mgrwt>
<rscale>  0 0.33222964E+04</rscale>
<asrwt>0</asrwt>
<pdfrwt beam="1">  1        2 0.45547409E+00 0.33222964E+04</pdfrwt>
<pdfrwt beam="2">  1       -2 0.14339248E+00 0.33222964E+04</pdfrwt>
<totfact> 0.51800636E-01</totfact>
</mgrwt>
</event>
<event>
 6    1  0.2325157E-005  0.1267712E+04  0.7818608E-02  0.9055569E-01
         -2   -1    0    0    0  501 -0.00000000000E+00  0.00000000000E+00  0.85145397524E+03  0.85145397524E+03  0.00000000000E+00 0. -1.
          2   -1    0    0  501    0  0.00000000000E+00 -0.00000000000E+00 -0.47186755713E+03  0.47186755713E+03  0.00000000000E+00 0.  1.
         23    2    1    2    0    0 -0.38319558592E+02 -0.42419143007E+03  0.67604809015E+03  0.80438388592E+03  0.92658824794E+02 0.  0.
         13    1    3    3    0    0  0.24271236010E+02 -0.21649487788E+03  0.36739221201E+03  0.42712546458E+03  0.00000000000E+00 0. -1.
        -13    1    3    3    0    0 -0.62590794603E+02 -0.20769655219E+03  0.30865587814E+03  0.37725842134E+03  0.00000000000E+00 0.  1.
         22    1    1    2    0    0  0.38319558592E+02  0.42419143007E+03 -0.29646167205E+03  0.51893764645E+03  0.00000000000E+00 0.  1.
<mgrwt>
<rscale>  0 0.12677121E+04</rscale>
<asrwt>0</asrwt>
<pdfrwt beam="1">  1        2 0.72595009E-01 0.12677121E+04</pdfrwt>
<pdfrwt beam="2">  1       -2 0.13099292E+00 0.12677121E+04</pdfrwt>
<totfact> 0.27542569E+01</totfact>
</mgrwt>
</event>
<event>
 6    1  0.2325157E-005  0.1751640E+04  0.7818608E-02  0.8732448E-01
         -2   -1    0    0    0  501 -0.00000000000E+00  0.00000000000E+00  0.77785791808E+03  0.77785791808E+03  0.00000000000E+00 0. -1.
          2   -1    0    0  501    0  0.00000000000E+00 -0.00000000000E+00 -0.98611888727E+03  0.98611888727E+03  0.00000000000E+00 0.  1.
         23    2    1    2    0    0 -0.61128611535E+03  0.61657192496E+03 -0.87667717892E+01  0.87311790054E+03  0.91795198634E+02 0.  0.
         13    1    3    3    0    0 -0.23476744387E+03  0.22505723606E+03 -0.46965361810E+02  0.32859132280E+03  0.00000000000E+00 0. -1.
        -13    1    3    3    0    0 -0.37651867148E+03  0.39151468889E+03  0.38198590021E+02  0.54452657775E+03  0.00000000000E+00 0.  1.
         22    1    1    2    0    0  0.61128611535E+03 -0.61657192496E+03 -0.19949419740E+03  0.89085890480E+03  0.00000000000E+00 0. -1.
<mgrwt>
<rscale>  0 0.17516397E+04</rscale>
<asrwt>0</asrwt>
<pdfrwt beam="1">  1        2 0.15171060E+00 0.17516397E+04</pdfrwt>
<pdfrwt beam="2">  1       -2 0.11967045E+00 0.17516397E+04</pdfrwt>
<totfact> 0.13029438E+01</totfact>
</mgrwt>
</event>
<event>
 6    1  0.2325157E-005  0.2420472E+04  0.7818608E-02  0.8431879E-01
         -2   -1    0    0    0  501 -0.00000000000E+00  0.00000000000E+00  0.36453504414E+03  0.36453504414E+03  0.00000000000E+00 0. -1.
          2   -1    0    0  501    0  0.00000000000E+00 -0.00000000000E+00 -0.40179158566E+04  0.40179158566E+04  0.00000000000E+00 0.  1.
         23    2    1    2    0    0 -0.54542697895E+03 -0.93253460621E+03 -0.28102164804E+04  0.30120358279E+04  0.89060543491E+02 0.  0.
         11    1    3    3    0    0 -0.41660205872E+03 -0.63362368457E+03 -0.19400018484E+04  0.20829410507E+04  0.00000000000E+00 0. -1.
        -11    1    3    3    0    0 -0.12882492023E+03 -0.29891092165E+03 -0.87021463200E+03  0.92909477714E+03  0.00000000000E+00 0.  1.
         22    1    1    2    0    0  0.54542697895E+03  0.93253460621E+03 -0.84316433210E+03  0.13704150729E+04  0.00000000000E+00 0. -1.
<mgrwt>
<rscale>  0 0.24204720E+04</rscale>
<asrwt>0</asrwt>
<pdfrwt beam="1">  1        2 0.61814091E+00 0.24204720E+04</pdfrwt>
<pdfrwt beam="2">  1       -2 0.56082314E-01 0.24204720E+04</pdfrwt>
<totfact> 0.89055947E-01</totfact>
</mgrwt>
</event>
<event>
 6    1  0.2325157E-005  0.2617122E+04  0.7818608E-02  0.8362409E-01
          2   -1    0    0  501    0  0.00000000000E+00  0.00000000000E+00  0.23814137084E+04  0.23814137084E+04  0.00000000000E+00 0.  1.
         -2   -1    0    0    0  501 -0.00000000000E+00 -0.00000000000E+00 -0.71903989453E+03  0.71903989453E+03  0.00000000000E+00 0. -1.
         23    2    1    2    0    0  0.88655627362E+03  0.26627533937E+03 -0.26083203890E+03  0.96606719584E+03  0.91476181038E+02 0.  0.
         11    1    3    3    0    0  0.33403187573E+03  0.78031723775E+02 -0.13696207500E+03  0.36935735258E+03  0.00000000000E+00 0.  1.
        -11    1    3    3    0    0  0.55252439790E+03  0.18824361559E+03 -0.12386996391E+03  0.59670984326E+03  0.00000000000E+00 0. -1.
         22    1    1    2    0    0 -0.88655627362E+03 -0.26627533937E+03  0.19232058528E+04  0.21343864071E+04  0.00000000000E+00 0.  1.
<mgrwt>
<rscale>  0 0.26171217E+04</rscale>
<asrwt>0</asrwt>
<pdfrwt beam="1">  1        2 0.36637134E+00 0.26171217E+04</pdfrwt>
<pdfrwt beam="2">  1       -2 0.11062152E+00 0.26171217E+04</pdfrwt>
<totfact> 0.23319274E+00</totfact>
</mgrwt>
</event>
<event>
 6    1  0.2325157E-005  0.3207012E+04  0.7818608E-02  0.8186968E-01
          2   -1    0    0  501    0  0.00000000000E+00  0.00000000000E+00  0.15183752514E+04  0.15183752514E+04  0.00000000000E+00 0.  1.
         -2   -1    0    0    0  501 -0.00000000000E+00 -0.00000000000E+00 -0.16934092589E+04  0.16934092589E+04  0.00000000000E+00 0. -1.
         23    2    1    2    0    0 -0.68723052228E+03  0.14425146166E+04 -0.20673225924E+03  0.16136171258E+04  0.88813241822E+02 0.  0.
         11    1    3    3    0    0 -0.25929879627E+03  0.45406034941E+03 -0.52307273183E+02  0.52549283295E+03  0.00000000000E+00 0. -1.
        -11    1    3    3    0    0 -0.42793172601E+03  0.98845426715E+03 -0.15442498606E+03  0.10881242928E+04  0.00000000000E+00 0.  1.
         22    1    1    2    0    0  0.68723052228E+03 -0.14425146166E+04  0.31698251792E+02  0.15981673845E+04  0.00000000000E+00 0.  1.
<mgrwt>
<rscale>  0 0.32070115E+04</rscale>
<asrwt>0</asrwt>
<pdfrwt beam="1">  1        2 0.23359619E+00 0.32070115E+04</pdfrwt>
<pdfrwt beam="2">  1       -2 0.26052450E+00 0.32070115E+04</pdfrwt>
<totfact> 0.57767123E-01</totfact>
</mgrwt>
</event>
<event>
 6    1  0.2325157E-005  0.2020507E+04  0.7818608E-02  0.8597093E-01
          2   -1    0    0  501    0  0.00000000000E+00  0.00000000000E+00  0.21117344272E+04  0.21117344272E+04  0.00000000000E+00 0.  1.
         -2   -1    0    0    0  501 -0.00000000000E+00 -0.00000000000E+00 -0.48330511005E+03  0.48330511005E+03  0.00000000000E+00 0. -1.
         23    2    1    2    0    0 -0.54062136715E+03  0.60380412612E+03  0.45651595380E+02  0.81682801949E+03  0.90956362774E+02 0.  0.
         11    1    3    3    0    0 -0.23953799375E+03  0.20239408506E+03  0.92515299627E+01  0.31373142483E+03  0.00000000000E+00 0. -1.
        -11    1    3    3    0    0 -0.30108337339E+03  0.40141004106E+03  0.36400065418E+02  0.50309659466E+03  0.00000000000E+00 0.  1.
         22    1    1    2    0    0  0.54062136715E+03 -0.60380412612E+03  0.15827777218E+04  0.17782115178E+04  0.00000000000E+00 0.  1.
<mgrwt>
<rscale>  0 0.20205069E+04</rscale>
<asrwt>0</asrwt>
<pdfrwt beam="1">  1        2 0.32488221E+00 0.20205069E+04</pdfrwt>
<pdfrwt beam="2">  1       -2 0.74354634E-01 0.20205069E+04</pdfrwt>
<totfact> 0.87374170E+00</totfact>
</mgrwt>
</event>
<event>
 6    1  0.2325157E-005  0.1938470E+04  0.7818608E-02  0.8635941E-01
          2   -1    0    0  501    0  0.00000000000E+00  0.00000000000E+00  0.12338024428E+04  0.12338024428E+04  0.00000000000E+00 0.  1.
         -2   -1    0    0    0  501 -0.00000000000E+00 -0.00000000000E+00 -0.76139935219E+03  0.76139935219E+03  0.00000000000E+00 0. -1.
         23    2    1    2    0    0  0.56199765678E+03  0.25832502056E+03  0.10019109499E+04  0.11809833012E+04  0.91229511748E+02 0.  0.
         11    1    3    3    0    0  0.49452553056E+03  0.21767745600E+03  0.92279554749E+03  0.10693411980E+04  0.00000000000E+00 0. -1.
        -11    1    3    3    0    0  0.67472126222E+02  0.40647564566E+02  0.79115402362E+02  0.11164210323E+03  0.00000000000E+00 0.  1.
         22    1    1    2    0    0 -0.56199765678E+03 -0.25832502056E+03 -0.52950785930E+03  0.81421849373E+03  0.00000000000E+00 0. -1.
<mgrwt>
<rscale>  0 0.19384699E+04</rscale>
<asrwt>0</asrwt>
<pdfrwt beam="1">  1        2 0.18981576E+00 0.19384699E+04</pdfrwt>
<pdfrwt beam="2">  1       -2 0.11713836E+00 0.19384699E+04</pdfrwt>
<totfact> 0.95177630E+00</totfact>
</mgrwt>
</event>
<event>
 6    1  0.2325157E-005  0.4524274E+03  0.7818608E-02  0.1027001E+00
         -4   -1    0    0    0  501 -0.00000000000E+00  0.00000000000E+00  0.69186841982E+03  0.69186841982E+03  0.00000000000E+00 0. -1.
          4   -1    0    0  501    0  0.00000000000E+00 -0.00000000000E+00 -0.73962972955E+02  0.73962972955E+02  0.00000000000E+00 0.  1.
         23    2    1    2    0    0  0.99488980695E+02  0.74864355188E+02  0.62231845498E+03  0.64124325691E+03  0.91705649612E+02 0.  0.
         13    1    3    3    0    0  0.59636305377E+01  0.59527168283E+02  0.23397856573E+03  0.24150573052E+03  0.00000000000E+00 0.  1.
        -13    1    3    3    0    0  0.93525350158E+02  0.15337186904E+02  0.38833988924E+03  0.39973752639E+03  0.00000000000E+00 0. -1.
         22    1    1    2    0    0 -0.99488980695E+02 -0.74864355188E+02 -0.44130081125E+01  0.12458813586E+03  0.00000000000E+00 0.  1.
<mgrwt>
<rscale>  0 0.45242743E+03</rscale>
<asrwt>0</asrwt>
<pdfrwt beam="1">  1        4 0.11378919E-01 0.45242743E+03</pdfrwt>
<pdfrwt beam="2">  1       -4 0.10644129E+00 0.45242743E+03</pdfrwt>
<totfact> 0.87210991E+01</totfact>
</mgrwt>
</event>
<event>
 6    1  0.2325157E-005  0.2217691E+04  0.7818608E-02  0.8511101E-01
          2   -1    0    0  501    0  0.00000000000E+00  0.00000000000E+00  0.63473424260E+03  0.63473424260E+03  0.00000000000E+00 0.  1.
         -2   -1    0    0    0  501 -0.00000000000E+00 -0.00000000000E+00 -0.19370908438E+04  0.19370908438E+04  0.00000000000E+00 0. -1.
         23    2    1    2    0    0 -0.67689553187E+03  0.47216486165E+03 -0.15078547313E+04  0.17213212950E+04  0.90520120889E+02 0.  0.
         13    1    3    3    0    0 -0.85874316416E+02  0.77527603630E+02 -0.15810578855E+03  0.19591418509E+03  0.00000000000E+00 0.  1.
        -13    1    3    3    0    0 -0.59102121545E+03  0.39463725802E+03 -0.13497489428E+04  0.15254071099E+04  0.00000000000E+00 0. -1.
         22    1    1    2    0    0  0.67689553187E+03 -0.47216486165E+03  0.20549813013E+03  0.85050379137E+03  0.00000000000E+00 0.  1.
<mgrwt>
<rscale>  0 0.22176906E+04</rscale>
<asrwt>0</asrwt>
<pdfrwt beam="1">  1        2 0.97651422E-01 0.22176906E+04</pdfrwt>
<pdfrwt beam="2">  1       -2 0.29801397E+00 0.22176906E+04</pdfrwt>
<totfact> 0.13819870E+00</totfact>
</mgrwt>
</event>
<event>
 6    1  0.2325157E-005  0.8881632E+03  0.7818608E-02  0.9440500E-01
         -2   -1    0    0    0  501 -0.00000000000E+00  0.00000000000E+00  0.18903903667E+03  0.18903903667E+03  0.00000000000E+00 0. -1.
          2   -1    0    0  501    0  0.00000000000E+00 -0.00000000000E+00 -0.10432155672E+04  0.10432155672E+04  0.00000000000E+00 0.  1.
         23    2    1    2    0    0 -0.22581840301E+03  0.25389569321E+03 -0.81803308586E+03  0.89054811759E+03  0.91874076957E+02 0.  0.
         13    1    3    3    0    0 -0.10597042762E+03  0.17072774967E+03 -0.54716869673E+03  0.58289902961E+03  0.00000000000E+00 0.  1.
        -13    1    3    3    0    0 -0.11984797540E+03  0.83167943545E+02 -0.27086438913E+03  0.30764908798E+03  0.00000000000E+00 0. -1.
         22    1    1    2    0    0  0.22581840301E+03 -0.25389569321E+03 -0.36143444672E+02  0.34170648628E+03  0.00000000000E+00 0. -1.
<mgrwt>
<rscale>  0 0.88816320E+03</rscale>
<asrwt>0</asrwt>
<pdfrwt beam="1">  1        2 0.16049471E+00 0.88816320E+03</pdfrwt>
<pdfrwt beam="2">  1       -2 0.29082928E-01 0.88816320E+03</pdfrwt>
<totfact> 0.25723802E+02</totfact>
</mgrwt>
</event>
<event>
 6    1  0.2325157E-005  0.3155278E+04  0.7818608E-02  0.8200729E-01
         -2   -1    0    0    0  501 -0.00000000000E+00  0.00000000000E+00  0.74271252604E+03  0.74271252604E+03  0.00000000000E+00 0. -1.
          2   -1    0    0  501    0  0.00000000000E+00 -0.00000000000E+00 -0.33511549859E+04  0.33511549859E+04  0.00000000000E+00 0.  1.
         23    2    1    2    0    0 -0.15179439337E+04 -0.36014863837E+03 -0.10122382921E+04  0.18618888891E+04  0.90238836718E+02 0.  0.
         13    1    3    3    0    0 -0.86062391902E+03 -0.23709937863E+03 -0.61567543631E+03  0.10844103874E+04  0.00000000000E+00 0.  1.
        -13    1    3    3    0    0 -0.65732001472E+03 -0.12304925974E+03 -0.39656285581E+03  0.77747850175E+03  0.00000000000E+00 0. -1.
         22    1    1    2    0    0  0.15179439337E+04  0.36014863837E+03 -0.15962041678E+04  0.22319786229E+04  0.00000000000E+00 0. -1.
<mgrwt>
<rscale>  0 0.31552780E+04</rscale>
<asrwt>0</asrwt>
<pdfrwt beam="1">  1        2 0.51556231E+00 0.31552780E+04</pdfrwt>
<pdfrwt beam="2">  1       -2 0.11426346E+00 0.31552780E+04</pdfrwt>
<totfact> 0.52043127E-01</totfact>
</mgrwt>
</event>
<event>
 6    1  0.2747625E-005  0.5020146E+04  0.7818608E-02  0.7825407E-01
         -2   -1    0    0    0  501 -0.00000000000E+00  0.00000000000E+00  0.19064869414E+04  0.19064869414E+04  0.00000000000E+00 0. -1.
          2   -1    0    0  501    0  0.00000000000E+00 -0.00000000000E+00 -0.33047514985E+04  0.33047514985E+04  0.00000000000E+00 0.  1.
         23    2    1    2    0    0  0.50868033958E+03 -0.45845792105E+03  0.18065614748E+04  0.19340675186E+04  0.89517881612E+02 0.  0.
         13    1    3    3    0    0  0.27748020877E+03 -0.29834065571E+03  0.11393195227E+04  0.12099799122E+04  0.00000000000E+00 0. -1.
        -13    1    3    3    0    0  0.23120013081E+03 -0.16011726534E+03  0.66724195205E+03  0.72408760639E+03  0.00000000000E+00 0.  1.
         22    1    1    2    0    0 -0.50868033958E+03  0.45845792105E+03 -0.32048260318E+04  0.32771709213E+04  0.00000000000E+00 0.  1.
<mgrwt>
<rscale>  0 0.50201456E+04</rscale>
<asrwt>0</asrwt>
<pdfrwt beam="1">  1        2 0.50842330E+00 0.50201456E+04</pdfrwt>
<pdfrwt beam="2">  1       -2 0.29330569E+00 0.50201456E+04</pdfrwt>
<totfact> 0.28035552E-02</totfact>
</mgrwt>
</event>
<event>
 6    1  0.2325157E-005  0.2714303E+04  0.7818608E-02  0.8330379E-01
          2   -1    0    0  501    0  0.00000000000E+00  0.00000000000E+00  0.19773642870E+04  0.19773642870E+04  0.00000000000E+00 0.  1.
         -2   -1    0    0    0  501 -0.00000000000E+00 -0.00000000000E+00 -0.93147224624E+03  0.93147224624E+03  0.00000000000E+00 0. -1.
         23    2    1    2    0    0  0.32367257729E+03 -0.13926580535E+03  0.19267121032E+04  0.19601517150E+04  0.76264771191E+02 0.  0.
         11    1    3    3    0    0  0.13955963626E+03 -0.19843375528E+02  0.73057757357E+03  0.74405258055E+03  0.00000000000E+00 0. -1.
        -11    1    3    3    0    0  0.18411294103E+03 -0.11942242982E+03  0.11961345296E+04  0.12160991344E+04  0.00000000000E+00 0.  1.
         22    1    1    2    0    0 -0.32367257729E+03  0.13926580535E+03 -0.88082006248E+03  0.94868481821E+03  0.00000000000E+00 0. -1.
<mgrwt>
<rscale>  0 0.27143028E+04</rscale>
<asrwt>0</asrwt>
<pdfrwt beam="1">  1        2 0.30420989E+00 0.27143028E+04</pdfrwt>
<pdfrwt beam="2">  1       -2 0.14330342E+00 0.27143028E+04</pdfrwt>
<totfact> 0.20369221E+00</totfact>
</mgrwt>
</event>
<event>
 6    1  0.2325157E-005  0.2337218E+04  0.7818608E-02  0.8463389E-01
          2   -1    0    0  501    0  0.00000000000E+00  0.00000000000E+00  0.13384089380E+04  0.13384089380E+04  0.00000000000E+00 0.  1.
         -2   -1    0    0    0  501 -0.00000000000E+00 -0.00000000000E+00 -0.10203514711E+04  0.10203514711E+04  0.00000000000E+00 0. -1.
         23    2    1    2    0    0 -0.25607557163E+03 -0.96172480249E+03 -0.45546342116E+03  0.10982748445E+04  0.90947303553E+02 0.  0.
         11    1    3    3    0    0 -0.51531262069E+02 -0.20721248713E+03 -0.13970840088E+03  0.25516842099E+03  0.00000000000E+00 0.  1.
        -11    1    3    3    0    0 -0.20454430956E+03 -0.75451231536E+03 -0.31575502029E+03  0.84310642355E+03  0.00000000000E+00 0. -1.
         22    1    1    2    0    0  0.25607557163E+03  0.96172480249E+03  0.77352088803E+03  0.12604855645E+04  0.00000000000E+00 0.  1.
<mgrwt>
<rscale>  0 0.23372185E+04</rscale>
<asrwt>0</asrwt>
<pdfrwt beam="1">  1        2 0.20590907E+00 0.23372185E+04</pdfrwt>
<pdfrwt beam="2">  1       -2 0.15697715E+00 0.23372185E+04</pdfrwt>
<totfact> 0.37657062E+00</totfact>
</mgrwt>
</event>
<event>
 6    1  0.2325157E-005  0.2217228E+04  0.7818608E-02  0.8511292E-01
         -2   -1    0    0    0  501 -0.00000000000E+00  0.00000000000E+00  0.30960052421E+03  0.30960052421E+03  0.00000000000E+00 0. -1.
          2   -1    0    0  501    0  0.00000000000E+00 -0.00000000000E+00 -0.39697106032E+04  0.39697106032E+04  0.00000000000E+00 0.  1.
         23    2    1    2    0    0 -0.77425373581E+03 -0.34131922436E+01 -0.33595271553E+04  0.34487507194E+04  0.89321444326E+02 0.  0.
         13    1    3    3    0    0 -0.48349435142E+03 -0.13674476555E+02 -0.22771699073E+04  0.23279726300E+04  0.00000000000E+00 0.  1.
        -13    1    3    3    0    0 -0.29075938439E+03  0.10261284311E+02 -0.10823572480E+04  0.11207780894E+04  0.00000000000E+00 0. -1.
         22    1    1    2    0    0  0.77425373581E+03  0.34131922436E+01 -0.30058292373E+03  0.83056040800E+03  0.00000000000E+00 0. -1.
<mgrwt>
<rscale>  0 0.22172275E+04</rscale>
<asrwt>0</asrwt>
<pdfrwt beam="1">  1        2 0.61072467E+00 0.22172275E+04</pdfrwt>
<pdfrwt beam="2">  1       -2 0.47630853E-01 0.22172275E+04</pdfrwt>
<totfact> 0.13889924E+00</totfact>
</mgrwt>
</event>
<event>
 6    1  0.2325157E-005  0.1965626E+04  0.7818608E-02  0.8622862E-01
         -2   -1    0    0    0  501 -0.00000000000E+00  0.00000000000E+00  0.31401938238E+04  0.31401938238E+04  0.00000000000E+00 0. -1.
          2   -1    0    0  501    0  0.00000000000E+00 -0.00000000000E+00 -0.30759930594E+03  0.30759930594E+03  0.00000000000E+00 0.  1.
         23    2    1    2    0    0 -0.64889850162E+03  0.63497641051E+03  0.76812814971E+03  0.11925136144E+04  0.88337753647E+02 0.  0.
         13    1    3    3    0    0 -0.45785972337E+03  0.47810324991E+03  0.60118468694E+03  0.89422663329E+03  0.00000000000E+00 0.  1.
        -13    1    3    3    0    0 -0.19103877825E+03  0.15687316060E+03  0.16694346277E+03  0.29828698106E+03  0.00000000000E+00 0. -1.
         22    1    1    2    0    0  0.64889850162E+03 -0.63497641051E+03  0.20644663681E+04  0.22552795154E+04  0.00000000000E+00 0. -1.
<mgrwt>
<rscale>  0 0.19656260E+04</rscale>
<asrwt>0</asrwt>
<pdfrwt beam="1">  1        2 0.47322972E-01 0.19656260E+04</pdfrwt>
<pdfrwt beam="2">  1       -2 0.48310672E+00 0.19656260E+04</pdfrwt>
<totfact> 0.20959559E-01</totfact>
</mgrwt>
</event>
<event>
 6    1  0.2325157E-005  0.3204249E+04  0.7818608E-02  0.8187696E-01
         -2   -1    0    0    0  501 -0.00000000000E+00  0.00000000000E+00  0.14035712842E+04  0.14035712842E+04  0.00000000000E+00 0. -1.
          2   -1    0    0  501    0  0.00000000000E+00 -0.00000000000E+00 -0.18287658453E+04  0.18287658453E+04  0.00000000000E+00 0.  1.
         23    2    1    2    0    0  0.60617101266E+03  0.11797341988E+04  0.69164503598E+03  0.14983974645E+04  0.87212552864E+02 0.  0.
         13    1    3    3    0    0  0.51493503673E+03  0.99162315239E+03  0.61710744344E+03  0.12764388607E+04  0.00000000000E+00 0. -1.
        -13    1    3    3    0    0  0.91235975931E+02  0.18811104637E+03  0.74537592540E+02  0.22195860374E+03  0.00000000000E+00 0.  1.
         22    1    1    2    0    0 -0.60617101266E+03 -0.11797341988E+04 -0.11168395971E+04  0.17339396651E+04  0.00000000000E+00 0.  1.
<mgrwt>
<rscale>  0 0.32042492E+04</rscale>
<asrwt>0</asrwt>
<pdfrwt beam="1">  1        2 0.28134859E+00 0.32042492E+04</pdfrwt>
<pdfrwt beam="2">  1       -2 0.21593405E+00 0.32042492E+04</pdfrwt>
<totfact> 0.73448961E-01</totfact>
</mgrwt>
</event>
<event>
 6    1  0.2325157E-005  0.7127852E+03  0.7818608E-02  0.9695614E-01
         -2   -1    0    0    0  501 -0.00000000000E+00  0.00000000000E+00  0.20851909937E+03  0.20851909937E+03  0.00000000000E+00 0. -1.
          2   -1    0    0  501    0  0.00000000000E+00 -0.00000000000E+00 -0.60913222026E+03  0.60913222026E+03  0.00000000000E+00 0.  1.
         23    2    1    2    0    0 -0.20448279389E+03  0.26279394890E+03 -0.76366705814E+02  0.35288297919E+03  0.88434442812E+02 0.  0.
         13    1    3    3    0    0 -0.15916944656E+03  0.13458932278E+03 -0.50349093102E+02  0.21443933805E+03  0.00000000000E+00 0. -1.
        -13    1    3    3    0    0 -0.45313347328E+02  0.12820462611E+03 -0.26017612712E+02  0.13844364115E+03  0.00000000000E+00 0.  1.
         22    1    1    2    0    0  0.20448279389E+03 -0.26279394890E+03 -0.32424641508E+03  0.46476834043E+03  0.00000000000E+00 0.  1.
<mgrwt>
<rscale>  0 0.71278525E+03</rscale>
<asrwt>0</asrwt>
<pdfrwt beam="1">  1        2 0.93712649E-01 0.71278525E+03</pdfrwt>
<pdfrwt beam="2">  1       -2 0.32079861E-01 0.71278525E+03</pdfrwt>
<totfact> 0.44305375E+02</totfact>
</mgrwt>
</event>
<event>
 6    1  0.2325157E-005  0.4572708E+04  0.7818608E-02  0.7898030E-01
          2   -1    0    0  501    0  0.00000000000E+00  0.00000000000E+00  0.22548784443E+04  0.22548784443E+04  0.00000000000E+00 0.  1.
         -2   -1    0    0    0  501 -0.00000000000E+00 -0.00000000000E+00 -0.23182689332E+04  0.23182689332E+04  0.00000000000E+00 0. -1.
         23    2    1    2    0    0 -0.14875247124E+04 -0.10985585234E+04  0.13111377571E+04  0.22690448411E+04  0.99607596862E+02 0.  0.
         13    1    3    3    0    0 -0.90660262429E+02 -0.98898943306E+02  0.93678249035E+02  0.16363342725E+03  0.00000000000E+00 0.  1.
        -13    1    3    3    0    0 -0.13968644500E+04 -0.99965958007E+03  0.12174595081E+04  0.21054114139E+04  0.00000000000E+00 0. -1.
         22    1    1    2    0    0  0.14875247124E+04  0.10985585234E+04 -0.13745282460E+04  0.23041025364E+04  0.00000000000E+00 0. -1.
<mgrwt>
<rscale>  0 0.45727080E+04</rscale>
<asrwt>0</asrwt>
<pdfrwt beam="1">  1        2 0.34690438E+00 0.45727080E+04</pdfrwt>
<pdfrwt beam="2">  1       -2 0.35665676E+00 0.45727080E+04</pdfrwt>
<totfact> 0.51149142E-02</totfact>
</mgrwt>
</event>
<event>
 6    1  0.2325157E-005  0.8411913E+03  0.7818608E-02  0.9502237E-01
         -2   -1    0    0    0  501 -0.00000000000E+00  0.00000000000E+00  0.91322746045E+02  0.91322746045E+02  0.00000000000E+00 0. -1.
          2   -1    0    0  501    0  0.00000000000E+00 -0.00000000000E+00 -0.19370934593E+04  0.19370934593E+04  0.00000000000E+00 0.  1.
         23    2    1    2    0    0  0.28034999809E+03  0.10204037966E+02 -0.19467068312E+03  0.35365307185E+03  0.92052031682E+02 0.  0.
         11    1    3    3    0    0  0.87196620696E+02  0.46320097409E+02 -0.66801429809E+02  0.11921087664E+03  0.00000000000E+00 0. -1.
        -11    1    3    3    0    0  0.19315337740E+03 -0.36116059444E+02 -0.12786925331E+03  0.23444219521E+03  0.00000000000E+00 0.  1.
         22    1    1    2    0    0 -0.28034999809E+03 -0.10204037966E+02 -0.16511000302E+04  0.16747631335E+04  0.00000000000E+00 0.  1.
<mgrwt>
<rscale>  0 0.84119128E+03</rscale>
<asrwt>0</asrwt>
<pdfrwt beam="1">  1        2 0.29801437E+00 0.84119128E+03</pdfrwt>
<pdfrwt beam="2">  1       -2 0.14049654E-01 0.84119128E+03</pdfrwt>
<totfact> 0.28762109E+02</totfact>
</mgrwt>
</event>
<event>
 6    1  0.2325157E-005  0.2326132E+04  0.7818608E-02  0.8467688E-01
         -2   -1    0    0    0  501 -0.00000000000E+00  0.00000000000E+00  0.48093570938E+03  0.48093570938E+03  0.00000000000E+00 0. -1.
          2   -1    0    0  501    0  0.00000000000E+00 -0.00000000000E+00 -0.28126883961E+04  0.28126883961E+04  0.00000000000E+00 0.  1.
         23    2    1    2    0    0  0.34052448270E+03  0.87331388807E+03 -0.21382948133E+04  0.23365138614E+04  0.91423441423E+02 0.  0.
         11    1    3    3    0    0  0.28443744849E+03  0.78683022394E+03 -0.18516671622E+04  0.20319147972E+04  0.00000000000E+00 0. -1.
        -11    1    3    3    0    0  0.56087034212E+02  0.86483664132E+02 -0.28662765112E+03  0.30459906427E+03  0.00000000000E+00 0.  1.
         22    1    1    2    0    0 -0.34052448270E+03 -0.87331388807E+03 -0.19345787337E+03  0.95711024400E+03  0.00000000000E+00 0. -1.
<mgrwt>
<rscale>  0 0.23261318E+04</rscale>
<asrwt>0</asrwt>
<pdfrwt beam="1">  1        2 0.43272130E+00 0.23261318E+04</pdfrwt>
<pdfrwt beam="2">  1       -2 0.73990108E-01 0.23261318E+04</pdfrwt>
<totfact> 0.33830635E+00</totfact>
</mgrwt>
</event>
<event>
 6    1  0.2325157E-005  0.1764226E+04  0.7818608E-02  0.8725558E-01
          2   -1    0    0  501    0  0.00000000000E+00  0.00000000000E+00  0.24950693220E+04  0.24950693220E+04  0.00000000000E+00 0.  1.
         -2   -1    0    0    0  501 -0.00000000000E+00 -0.00000000000E+00 -0.31186453580E+03  0.31186453580E+03  0.00000000000E+00 0. -1.
         23    2    1    2    0    0 -0.39042454393E+03 -0.34984391535E+03 -0.30915767015E+02  0.53159829711E+03  0.82576481113E+02 0.  0.
         11    1    3    3    0    0 -0.10970199030E+03 -0.14971405386E+03 -0.17765408555E+01  0.18561244758E+03  0.00000000000E+00 0.  1.
        -11    1    3    3    0    0 -0.28072255363E+03 -0.20012986149E+03 -0.29139226159E+02  0.34598584953E+03  0.00000000000E+00 0. -1.
         22    1    1    2    0    0  0.39042454393E+03  0.34984391535E+03  0.22141205532E+04  0.22753355607E+04  0.00000000000E+00 0.  1.
<mgrwt>
<rscale>  0 0.17642263E+04</rscale>
<asrwt>0</asrwt>
<pdfrwt beam="1">  1        2 0.38385680E+00 0.17642263E+04</pdfrwt>
<pdfrwt beam="2">  1       -2 0.47979161E-01 0.17642263E+04</pdfrwt>
<totfact> 0.13671989E+01</totfact>
</mgrwt>
</event>
<event>
 6    1  0.2325157E-005  0.2718562E+04  0.7818608E-02  0.8329007E-01
         -2   -1    0    0    0  501 -0.00000000000E+00  0.00000000000E+00  0.12036465843E+04  0.12036465843E+04  0.00000000000E+00 0. -1.
          2   -1    0    0  501    0  0.00000000000E+00 -0.00000000000E+00 -0.15350396279E+04  0.15350396279E+04  0.00000000000E+00 0.  1.
         23    2    1    2    0    0  0.13550447064E+04  0.87174759620E+02 -0.16813219054E+03  0.13710606417E+04  0.88279413337E+02 0.  0.
         11    1    3    3    0    0  0.10887772835E+04  0.79571405951E+02 -0.16898998590E+03  0.11046833017E+04  0.00000000000E+00 0.  1.
        -11    1    3    3    0    0  0.26626742289E+03  0.76033536689E+01  0.85779536034E+00  0.26637734005E+03  0.00000000000E+00 0. -1.
         22    1    1    2    0    0 -0.13550447064E+04 -0.87174759620E+02 -0.16326085303E+03  0.13676255705E+04  0.00000000000E+00 0. -1.
<mgrwt>
<rscale>  0 0.27185623E+04</rscale>
<asrwt>0</asrwt>
<pdfrwt beam="1">  1        2 0.23615994E+00 0.27185623E+04</pdfrwt>
<pdfrwt beam="2">  1       -2 0.18517640E+00 0.27185623E+04</pdfrwt>
<totfact> 0.17755007E+00</totfact>
</mgrwt>
</event>
<event>
 6    1  0.2325157E-005  0.2579124E+04  0.7818608E-02  0.8375327E-01
          2   -1    0    0  501    0  0.00000000000E+00  0.00000000000E+00  0.95977756998E+03  0.95977756998E+03  0.00000000000E+00 0.  1.
         -2   -1    0    0    0  501 -0.00000000000E+00 -0.00000000000E+00 -0.17326626095E+04  0.17326626095E+04  0.00000000000E+00 0. -1.
         23    2    1    2    0    0  0.42631169240E+03 -0.56105299788E+03  0.73852410984E+03  0.10248431831E+04  0.91452521431E+02 0.  0.
         13    1    3    3    0    0  0.31454346616E+03 -0.46722137720E+03  0.61158697392E+03  0.83142770827E+03  0.00000000000E+00 0. -1.
        -13    1    3    3    0    0  0.11176822624E+03 -0.93831620678E+02  0.12693713592E+03  0.19341547485E+03  0.00000000000E+00 0.  1.
         22    1    1    2    0    0 -0.42631169240E+03  0.56105299788E+03 -0.15114091493E+04  0.16675969963E+04  0.00000000000E+00 0. -1.
<mgrwt>
<rscale>  0 0.25791244E+04</rscale>
<asrwt>0</asrwt>
<pdfrwt beam="1">  1        2 0.14765809E+00 0.25791244E+04</pdfrwt>
<pdfrwt beam="2">  1       -2 0.26656348E+00 0.25791244E+04</pdfrwt>
<totfact> 0.12056883E+00</totfact>
</mgrwt>
</event>
<event>
 6    1  0.2325157E-005  0.2708789E+04  0.7818608E-02  0.8332159E-01
         -2   -1    0    0    0  501 -0.00000000000E+00  0.00000000000E+00  0.83433531552E+03  0.83433531552E+03  0.00000000000E+00 0. -1.
          2   -1    0    0  501    0  0.00000000000E+00 -0.00000000000E+00 -0.21986182326E+04  0.21986182326E+04  0.00000000000E+00 0.  1.
         23    2    1    2    0    0  0.13486781858E+04  0.10456450136E+03 -0.66120404959E+03  0.15084252677E+04  0.91046192518E+02 0.  0.
         13    1    3    3    0    0  0.11304094381E+03  0.20523555970E+02 -0.31972664496E+02  0.11925486406E+03  0.00000000000E+00 0. -1.
        -13    1    3    3    0    0  0.12356372420E+04  0.84040945393E+02 -0.62923138509E+03  0.13891704036E+04  0.00000000000E+00 0.  1.
         22    1    1    2    0    0 -0.13486781858E+04 -0.10456450136E+03 -0.70307886744E+03  0.15245282804E+04  0.00000000000E+00 0. -1.
<mgrwt>
<rscale>  0 0.27087893E+04</rscale>
<asrwt>0</asrwt>
<pdfrwt beam="1">  1        2 0.33824896E+00 0.27087893E+04</pdfrwt>
<pdfrwt beam="2">  1       -2 0.12835928E+00 0.27087893E+04</pdfrwt>
<totfact> 0.20337803E+00</totfact>
</mgrwt>
</event>
<event>
 6    1  0.2325157E-005  0.1169175E+04  0.7818608E-02  0.9140273E-01
          2   -1    0    0  501    0  0.00000000000E+00  0.00000000000E+00  0.25884423120E+03  0.25884423120E+03  0.00000000000E+00 0. -1.
         -2   -1    0    0    0  501 -0.00000000000E+00 -0.00000000000E+00 -0.13202643055E+04  0.13202643055E+04  0.00000000000E+00 0.  1.
         23    2    1    2    0    0  0.28166014171E+02 -0.46760309382E+03 -0.99747020438E+03  0.11063130591E+04  0.97651413257E+02 0.  0.
         11    1    3    3    0    0  0.33164272851E+02 -0.38624674129E+03 -0.89519279224E+03  0.97552885627E+03  0.00000000000E+00 0.  1.
        -11    1    3    3    0    0 -0.49982586798E+01 -0.81356352528E+02 -0.10227741215E+03  0.13078420287E+03  0.00000000000E+00 0. -1.
         22    1    1    2    0    0 -0.28166014171E+02  0.46760309382E+03 -0.63949869901E+02  0.47279547752E+03  0.00000000000E+00 0. -1.
<mgrwt>
<rscale>  0 0.11691754E+04</rscale>
<asrwt>0</asrwt>
<pdfrwt beam="1">  1        2 0.39822189E-01 0.11691754E+04</pdfrwt>
<pdfrwt beam="2">  1       -2 0.20311759E+00 0.11691754E+04</pdfrwt>
<totfact> 0.16236181E+01</totfact>
</mgrwt>
</event>
<event>
 6    1  0.2325157E-005  0.2039645E+04  0.7818608E-02  0.8588306E-01
          2   -1    0    0  501    0  0.00000000000E+00  0.00000000000E+00  0.10222943177E+04  0.10222943177E+04  0.00000000000E+00 0.  1.
         -2   -1    0    0    0  501 -0.00000000000E+00 -0.00000000000E+00 -0.10173569840E+04  0.10173569840E+04  0.00000000000E+00 0. -1.
         23    2    1    2    0    0 -0.79291749576E+03 -0.34791101472E+03  0.53699394289E+03  0.10233617442E+04  0.95637521528E+02 0.  0.
         11    1    3    3    0    0 -0.39985563501E+03 -0.17514580228E+03  0.21452495401E+03  0.48639648107E+03  0.00000000000E+00 0. -1.
        -11    1    3    3    0    0 -0.39306186075E+03 -0.17276521244E+03  0.32246898888E+03  0.53696526312E+03  0.00000000000E+00 0.  1.
         22    1    1    2    0    0  0.79291749576E+03  0.34791101472E+03 -0.53205660917E+03  0.10162895575E+04  0.00000000000E+00 0. -1.
<mgrwt>
<rscale>  0 0.20396453E+04</rscale>
<asrwt>0</asrwt>
<pdfrwt beam="1">  1        2 0.15727605E+00 0.20396453E+04</pdfrwt>
<pdfrwt beam="2">  1       -2 0.15651646E+00 0.20396453E+04</pdfrwt>
<totfact> 0.60352557E+00</totfact>
</mgrwt>
</event>
<event>
 6    1  0.2325157E-005  0.1621604E+04  0.7818608E-02  0.8807385E-01
          3   -1    0    0  501    0  0.00000000000E+00  0.00000000000E+00  0.77589392586E+03  0.77589392586E+03  0.00000000000E+00 0. -1.
         -3   -1    0    0    0  501 -0.00000000000E+00 -0.00000000000E+00 -0.84728087284E+03  0.84728087284E+03  0.00000000000E+00 0.  1.
         23    2    1    2    0    0  0.48745505714E+03  0.21002651312E+03  0.57455086836E+03  0.78713698244E+03  0.88047486268E+02 0.  0.
         11    1    3    3    0    0  0.24219208567E+03  0.14518127145E+03  0.33610171627E+03  0.43897491001E+03  0.00000000000E+00 0.  1.
        -11    1    3    3    0    0  0.24526297147E+03  0.64845241675E+02  0.23844915209E+03  0.34816207242E+03  0.00000000000E+00 0. -1.
         22    1    1    2    0    0 -0.48745505714E+03 -0.21002651312E+03 -0.64593781534E+03  0.83603781627E+03  0.00000000000E+00 0.  1.
<mgrwt>
<rscale>  0 0.16216042E+04</rscale>
<asrwt>0</asrwt>
<pdfrwt beam="1">  1        3 0.11936830E+00 0.16216042E+04</pdfrwt>
<pdfrwt beam="2">  1       -3 0.13035090E+00 0.16216042E+04</pdfrwt>
<totfact> 0.66296622E-01</totfact>
</mgrwt>
</event>
<event>
 6    1  0.2325157E-005  0.4666806E+04  0.7818608E-02  0.7882067E-01
          2   -1    0    0  501    0  0.00000000000E+00  0.00000000000E+00  0.27171671055E+04  0.27171671055E+04  0.00000000000E+00 0.  1.
         -2   -1    0    0    0  501 -0.00000000000E+00 -0.00000000000E+00 -0.20038407388E+04  0.20038407388E+04  0.00000000000E+00 0. -1.
         23    2    1    2    0    0 -0.26865244674E+03 -0.22664187412E+04  0.84371520304E+03  0.24350005617E+04  0.92435623068E+02 0.  0.
         13    1    3    3    0    0 -0.10923288164E+03 -0.83820672897E+03  0.35907147421E+03  0.91839788028E+03  0.00000000000E+00 0.  1.
        -13    1    3    3    0    0 -0.15941956510E+03 -0.14282120122E+04  0.48464372884E+03  0.15166026815E+04  0.00000000000E+00 0. -1.
         22    1    1    2    0    0  0.26865244674E+03  0.22664187412E+04 -0.13038883640E+03  0.22860072826E+04  0.00000000000E+00 0. -1.
<mgrwt>
<rscale>  0 0.46668062E+04</rscale>
<asrwt>0</asrwt>
<pdfrwt beam="1">  1        2 0.41802571E+00 0.46668062E+04</pdfrwt>
<pdfrwt beam="2">  1       -2 0.30828319E+00 0.46668062E+04</pdfrwt>
<totfact> 0.54813979E-02</totfact>
</mgrwt>
</event>
<event>
 6    1  0.2325157E-005  0.3265740E+04  0.7818608E-02  0.8171668E-01
          2   -1    0    0  501    0  0.00000000000E+00  0.00000000000E+00  0.37455603982E+04  0.37455603982E+04  0.00000000000E+00 0.  1.
         -2   -1    0    0    0  501 -0.00000000000E+00 -0.00000000000E+00 -0.71184647369E+03  0.71184647369E+03  0.00000000000E+00 0. -1.
         23    2    1    2    0    0 -0.83399777006E+03 -0.13242374522E+04  0.88539395068E+03  0.17995062304E+04  0.71715515033E+02 0.  0.
         11    1    3    3    0    0 -0.25683231921E+03 -0.38342002364E+03  0.22689370623E+03  0.51425140607E+03  0.00000000000E+00 0. -1.
        -11    1    3    3    0    0 -0.57716545085E+03 -0.94081742852E+03  0.65850024445E+03  0.12852548243E+04  0.00000000000E+00 0.  1.
         22    1    1    2    0    0  0.83399777006E+03  0.13242374522E+04  0.21483199738E+04  0.26579006415E+04  0.00000000000E+00 0.  1.
<mgrwt>
<rscale>  0 0.32657397E+04</rscale>
<asrwt>0</asrwt>
<pdfrwt beam="1">  1        2 0.57624005E+00 0.32657397E+04</pdfrwt>
<pdfrwt beam="2">  1       -2 0.10951484E+00 0.32657397E+04</pdfrwt>
<totfact> 0.29977324E-01</totfact>
</mgrwt>
</event>
<event>
 6    1  0.2325157E-005  0.1228335E+04  0.7818608E-02  0.9088410E-01
          2   -1    0    0  501    0  0.00000000000E+00  0.00000000000E+00  0.13529657706E+03  0.13529657706E+03  0.00000000000E+00 0.  1.
         -2   -1    0    0    0  501 -0.00000000000E+00 -0.00000000000E+00 -0.27879617218E+04  0.27879617218E+04  0.00000000000E+00 0. -1.
         23    2    1    2    0    0  0.34001523637E+03  0.34220201557E+03 -0.22250871153E+04  0.22786378278E+04  0.92005973988E+02 0.  0.
         11    1    3    3    0    0  0.12345216233E+02  0.36031307797E+02 -0.10643911286E+03  0.11304841552E+03  0.00000000000E+00 0. -1.
        -11    1    3    3    0    0  0.32767002014E+03  0.30617070777E+03 -0.21186480024E+04  0.21655894123E+04  0.00000000000E+00 0.  1.
         22    1    1    2    0    0 -0.34001523637E+03 -0.34220201557E+03 -0.42757802943E+03  0.64462047104E+03  0.00000000000E+00 0.  1.
<mgrwt>
<rscale>  0 0.12283349E+04</rscale>
<asrwt>0</asrwt>
<pdfrwt beam="1">  1        2 0.20814859E-01 0.12283349E+04</pdfrwt>
<pdfrwt beam="2">  1       -2 0.42891717E+00 0.12283349E+04</pdfrwt>
<totfact> 0.13043706E+00</totfact>
</mgrwt>
</event>
<event>
 6    1  0.2325157E-005  0.1843020E+04  0.7818608E-02  0.8683750E-01
          2   -1    0    0  501    0  0.00000000000E+00  0.00000000000E+00  0.16835898012E+04  0.16835898012E+04  0.00000000000E+00 0. -1.
         -2   -1    0    0    0  501 -0.00000000000E+00 -0.00000000000E+00 -0.50438708437E+03  0.50438708437E+03  0.00000000000E+00 0.  1.
         23    2    1    2    0    0 -0.21580709176E+03 -0.16517916441E+03  0.16335466133E+04  0.16585571716E+04  0.92089610720E+02 0.  0.
         11    1    3    3    0    0 -0.29480836752E+02 -0.18379970393E+02  0.83096453052E+02  0.90066439682E+02  0.00000000000E+00 0.  1.
        -11    1    3    3    0    0 -0.18632625501E+03 -0.14679919401E+03  0.15504501603E+04  0.15684907320E+04  0.00000000000E+00 0. -1.
         22    1    1    2    0    0  0.21580709176E+03  0.16517916441E+03 -0.45434389651E+03  0.52941971394E+03  0.00000000000E+00 0.  1.
<mgrwt>
<rscale>  0 0.18430203E+04</rscale>
<asrwt>0</asrwt>
<pdfrwt beam="1">  1        2 0.25901381E+00 0.18430203E+04</pdfrwt>
<pdfrwt beam="2">  1       -2 0.77598014E-01 0.18430203E+04</pdfrwt>
<totfact> 0.13946094E+01</totfact>
</mgrwt>
</event>
<event>
 6    1  0.2325157E-005  0.3363881E+04  0.7818608E-02  0.8146828E-01
          2   -1    0    0  501    0  0.00000000000E+00  0.00000000000E+00  0.13223857348E+04  0.13223857348E+04  0.00000000000E+00 0.  1.
         -2   -1    0    0    0  501 -0.00000000000E+00 -0.00000000000E+00 -0.21392582043E+04  0.21392582043E+04  0.00000000000E+00 0. -1.
         23    2    1    2    0    0 -0.47708553189E+03 -0.10416460842E+04 -0.16735809789E+04  0.20310543265E+04  0.10803339532E+03 0.  0.
         13    1    3    3    0    0 -0.21072573054E+03 -0.56801760792E+03 -0.93477642329E+03  0.11139372953E+04  0.00000000000E+00 0. -1.
        -13    1    3    3    0    0 -0.26635980135E+03 -0.47362847630E+03 -0.73880455563E+03  0.91711703111E+03  0.00000000000E+00 0.  1.
         22    1    1    2    0    0  0.47708553189E+03  0.10416460842E+04  0.85670850943E+03  0.14305896126E+04  0.00000000000E+00 0.  1.
<mgrwt>
<rscale>  0 0.33638814E+04</rscale>
<asrwt>0</asrwt>
<pdfrwt beam="1">  1        2 0.20344396E+00 0.33638814E+04</pdfrwt>
<pdfrwt beam="2">  1       -2 0.32911664E+00 0.33638814E+04</pdfrwt>
<totfact> 0.28014109E-01</totfact>
</mgrwt>
</event>
<event>
 6    1  0.2325157E-005  0.4163438E+04  0.7818608E-02  0.7972364E-01
         -2   -1    0    0    0  501 -0.00000000000E+00  0.00000000000E+00  0.15639573224E+04  0.15639573224E+04  0.00000000000E+00 0. -1.
          2   -1    0    0  501    0  0.00000000000E+00 -0.00000000000E+00 -0.27708904181E+04  0.27708904181E+04  0.00000000000E+00 0.  1.
         23    2    1    2    0    0  0.19273120786E+04 -0.14588479737E+03 -0.14059401869E+04  0.23918042399E+04  0.90804681442E+02 0.  0.
         11    1    3    3    0    0  0.13689814493E+04 -0.97935950500E+02 -0.94723005966E+03  0.16676169958E+04  0.00000000000E+00 0. -1.
        -11    1    3    3    0    0  0.55833062938E+03 -0.47948846867E+02 -0.45871012728E+03  0.72418724408E+03  0.00000000000E+00 0.  1.
         22    1    1    2    0    0 -0.19273120786E+04  0.14588479737E+03  0.19900709124E+03  0.19430435005E+04  0.00000000000E+00 0. -1.
<mgrwt>
<rscale>  0 0.41634382E+04</rscale>
<asrwt>0</asrwt>
<pdfrwt beam="1">  1        2 0.42629083E+00 0.41634382E+04</pdfrwt>
<pdfrwt beam="2">  1       -2 0.24060882E+00 0.41634382E+04</pdfrwt>
<totfact> 0.13764223E-01</totfact>
</mgrwt>
</event>
<event>
 6    1  0.2325157E-005  0.1380763E+04  0.7818608E-02  0.8967862E-01
         -2   -1    0    0    0  501 -0.00000000000E+00  0.00000000000E+00  0.39997159732E+03  0.39997159732E+03  0.00000000000E+00 0. -1.
          2   -1    0    0  501    0  0.00000000000E+00 -0.00000000000E+00 -0.11916513529E+04  0.11916513529E+04  0.00000000000E+00 0.  1.
         23    2    1    2    0    0 -0.43738431822E+03 -0.24990393624E+03  0.14204454514E+03  0.53068087409E+03  0.87684195530E+02 0.  0.
         13    1    3    3    0    0 -0.21349646675E+03 -0.13492521138E+03  0.11512404682E+03  0.27755918312E+03  0.00000000000E+00 0. -1.
        -13    1    3    3    0    0 -0.22388785147E+03 -0.11497872485E+03  0.26920498322E+02  0.25312169096E+03  0.00000000000E+00 0.  1.
         22    1    1    2    0    0  0.43738431822E+03  0.24990393624E+03 -0.93372430073E+03  0.10609420761E+04  0.00000000000E+00 0.  1.
<mgrwt>
<rscale>  0 0.13807631E+04</rscale>
<asrwt>0</asrwt>
<pdfrwt beam="1">  1        2 0.18333098E+00 0.13807631E+04</pdfrwt>
<pdfrwt beam="2">  1       -2 0.61534092E-01 0.13807631E+04</pdfrwt>
<totfact> 0.45842975E+01</totfact>
</mgrwt>
</event>
<event>
 6    1  0.2325157E-005  0.1855975E+04  0.7818608E-02  0.8677086E-01
         -2   -1    0    0    0  501 -0.00000000000E+00  0.00000000000E+00  0.36267817185E+03  0.36267817185E+03  0.00000000000E+00 0. -1.
          2   -1    0    0  501    0  0.00000000000E+00 -0.00000000000E+00 -0.23744486576E+04  0.23744486576E+04  0.00000000000E+00 0.  1.
         23    2    1    2    0    0 -0.60395004816E+03 -0.26778611510E+03 -0.51625707174E+02  0.66864124403E+03  0.89167457443E+02 0.  0.
         13    1    3    3    0    0 -0.12558239044E+03 -0.40670001248E+02 -0.43660825324E+02  0.13903687805E+03  0.00000000000E+00 0. -1.
        -13    1    3    3    0    0 -0.47836765772E+03 -0.22711611385E+03 -0.79648818496E+01  0.52960436598E+03  0.00000000000E+00 0.  1.
         22    1    1    2    0    0  0.60395004816E+03  0.26778611510E+03 -0.19601447786E+04  0.20684855854E+04  0.00000000000E+00 0.  1.
<mgrwt>
<rscale>  0 0.18559749E+04</rscale>
<asrwt>0</asrwt>
<pdfrwt beam="1">  1        2 0.36529979E+00 0.18559749E+04</pdfrwt>
<pdfrwt beam="2">  1       -2 0.55796643E-01 0.18559749E+04</pdfrwt>
<totfact> 0.11666397E+01</totfact>
</mgrwt>
</event>
<event>
 6    1  0.2325157E-005  0.1818345E+04  0.7818608E-02  0.8696604E-01
          2   -1    0    0  501    0  0.00000000000E+00  0.00000000000E+00  0.13377838149E+04  0.13377838149E+04  0.00000000000E+00 0.  1.
         -2   -1    0    0    0  501 -0.00000000000E+00 -0.00000000000E+00 -0.61788339681E+03  0.61788339681E+03  0.00000000000E+00 0. -1.
         23    2    1    2    0    0 -0.26840219343E+03 -0.81159421025E+03  0.35216666468E+02  0.86044269625E+03  0.91632529108E+02 0.  0.
         11    1    3    3    0    0 -0.24952483467E+03 -0.63805478015E+03  0.31720918855E+02  0.68584456132E+03  0.00000000000E+00 0. -1.
        -11    1    3    3    0    0 -0.18877358753E+02 -0.17353943010E+03  0.34957476122E+01  0.17459813493E+03  0.00000000000E+00 0.  1.
         22    1    1    2    0    0  0.26840219343E+03  0.81159421025E+03  0.68468375163E+03  0.10952245155E+04  0.00000000000E+00 0. -1.
<mgrwt>
<rscale>  0 0.18183448E+04</rscale>
<asrwt>0</asrwt>
<pdfrwt beam="1">  1        2 0.20581289E+00 0.18183448E+04</pdfrwt>
<pdfrwt beam="2">  1       -2 0.95058984E-01 0.18183448E+04</pdfrwt>
<totfact> 0.13789465E+01</totfact>
</mgrwt>
</event>
<event>
 6    1  0.2325157E-005  0.8557010E+03  0.7818608E-02  0.9482717E-01
          1   -1    0    0  501    0  0.00000000000E+00  0.00000000000E+00  0.12967633630E+04  0.12967633630E+04  0.00000000000E+00 0.  1.
         -1   -1    0    0    0  501 -0.00000000000E+00 -0.00000000000E+00 -0.14116379154E+03  0.14116379154E+03  0.00000000000E+00 0. -1.
         23    2    1    2    0    0 -0.17038981053E+03  0.15253365057E+03 -0.13387177451E+02  0.24678097493E+03  0.91773803330E+02 0.  0.
         11    1    3    3    0    0 -0.14871831320E+03  0.76339761535E+02 -0.11008412196E+02  0.16752934374E+03  0.00000000000E+00 0. -1.
        -11    1    3    3    0    0 -0.21671497328E+02  0.76193889035E+02 -0.23787652542E+01  0.79251631194E+02  0.00000000000E+00 0.  1.
         22    1    1    2    0    0  0.17038981053E+03 -0.15253365057E+03  0.11689867489E+04  0.11911461796E+04  0.00000000000E+00 0.  1.
<mgrwt>
<rscale>  0 0.85570096E+03</rscale>
<asrwt>0</asrwt>
<pdfrwt beam="1">  1        1 0.19950205E+00 0.85570096E+03</pdfrwt>
<pdfrwt beam="2">  1       -1 0.21717507E-01 0.85570096E+03</pdfrwt>
<totfact> 0.16343123E+02</totfact>
</mgrwt>
</event>
<event>
 6    1  0.2325157E-005  0.2719284E+04  0.7818608E-02  0.8328775E-01
         -2   -1    0    0    0  501 -0.00000000000E+00  0.00000000000E+00  0.74456590735E+03  0.74456590735E+03  0.00000000000E+00 0.  1.
          2   -1    0    0  501    0  0.00000000000E+00 -0.00000000000E+00 -0.24828241283E+04  0.24828241283E+04  0.00000000000E+00 0. -1.
         23    2    1    2    0    0 -0.86014285359E+02 -0.48318989441E+03  0.63295359374E+03  0.80592015117E+03  0.89476851182E+02 0.  0.
         13    1    3    3    0    0 -0.82428071687E+02 -0.29145170362E+03  0.43735831963E+03  0.53199697583E+03  0.00000000000E+00 0.  1.
        -13    1    3    3    0    0 -0.35862136720E+01 -0.19173819079E+03  0.19559527410E+03  0.27392317534E+03  0.00000000000E+00 0. -1.
         22    1    1    2    0    0  0.86014285359E+02  0.48318989441E+03 -0.23712118146E+04  0.24214698844E+04  0.00000000000E+00 0. -1.
<mgrwt>
<rscale>  0 0.27192839E+04</rscale>
<asrwt>0</asrwt>
<pdfrwt beam="1">  1        2 0.38197295E+00 0.27192839E+04</pdfrwt>
<pdfrwt beam="2">  1       -2 0.11454860E+00 0.27192839E+04</pdfrwt>
<totfact> 0.18569568E+00</totfact>
</mgrwt>
</event>
<event>
 6    1  0.2325157E-005  0.3798860E+04  0.7818608E-02  0.8046400E-01
         -2   -1    0    0    0  501 -0.00000000000E+00  0.00000000000E+00  0.18499845819E+04  0.18499845819E+04  0.00000000000E+00 0. -1.
          2   -1    0    0  501    0  0.00000000000E+00 -0.00000000000E+00 -0.19501968421E+04  0.19501968421E+04  0.00000000000E+00 0.  1.
         23    2    1    2    0    0 -0.97324673361E+03 -0.10602322319E+04  0.11882178166E+04  0.18685102167E+04  0.90372894314E+02 0.  0.
         11    1    3    3    0    0 -0.81602224102E+02 -0.10522165287E+03  0.14231472969E+03  0.19489484729E+03  0.00000000000E+00 0.  1.
        -11    1    3    3    0    0 -0.89164450951E+03 -0.95501057905E+03  0.10459030869E+04  0.16736153694E+04  0.00000000000E+00 0. -1.
         22    1    1    2    0    0  0.97324673361E+03  0.10602322319E+04 -0.12884300768E+04  0.19316712072E+04  0.00000000000E+00 0.  1.
<mgrwt>
<rscale>  0 0.37988599E+04</rscale>
<asrwt>0</asrwt>
<pdfrwt beam="1">  1        2 0.30003028E+00 0.37988599E+04</pdfrwt>
<pdfrwt beam="2">  1       -2 0.28461301E+00 0.37988599E+04</pdfrwt>
<totfact> 0.22539824E-01</totfact>
</mgrwt>
</event>
<event>
 6    1  0.2325157E-005  0.1556025E+04  0.7818608E-02  0.8848029E-01
         -2   -1    0    0    0  501 -0.00000000000E+00  0.00000000000E+00  0.20653452576E+03  0.20653452576E+03  0.00000000000E+00 0. -1.
          2   -1    0    0  501    0  0.00000000000E+00 -0.00000000000E+00 -0.29307601848E+04  0.29307601848E+04  0.00000000000E+00 0.  1.
         23    2    1    2    0    0 -0.38689449159E+03 -0.99744146167E+02 -0.27064928513E+04  0.27373563468E+04  0.91542192843E+02 0.  0.
         13    1    3    3    0    0 -0.32921499128E+03 -0.73974758757E+02 -0.20226687963E+04  0.20506203536E+04  0.00000000000E+00 0.  1.
        -13    1    3    3    0    0 -0.57679500305E+02 -0.25769387411E+02 -0.68382405506E+03  0.68673599320E+03  0.00000000000E+00 0. -1.
         22    1    1    2    0    0  0.38689449159E+03  0.99744146167E+02 -0.17732807749E+02  0.39993836373E+03  0.00000000000E+00 0. -1.
<mgrwt>
<rscale>  0 0.15560246E+04</rscale>
<asrwt>0</asrwt>
<pdfrwt beam="1">  1        2 0.45088618E+00 0.15560246E+04</pdfrwt>
<pdfrwt beam="2">  1       -2 0.31774543E-01 0.15560246E+04</pdfrwt>
<totfact> 0.17133103E+01</totfact>
</mgrwt>
</event>
<event>
 6    1  0.2325157E-005  0.1935415E+04  0.7818608E-02  0.8637426E-01
         -2   -1    0    0    0  501 -0.00000000000E+00  0.00000000000E+00  0.38449375860E+03  0.38449375860E+03  0.00000000000E+00 0. -1.
          2   -1    0    0  501    0  0.00000000000E+00 -0.00000000000E+00 -0.24355595184E+04  0.24355595184E+04  0.00000000000E+00 0.  1.
         23    2    1    2    0    0 -0.93775071611E+03  0.18962562503E+03 -0.83928220649E+03  0.12761123250E+04  0.93454591309E+02 0.  0.
         13    1    3    3    0    0 -0.47811113889E+03  0.90130590543E+02 -0.48813454091E+03  0.68919454040E+03  0.00000000000E+00 0.  1.
        -13    1    3    3    0    0 -0.45963957722E+03  0.99495034488E+02 -0.35114766558E+03  0.58691778459E+03  0.00000000000E+00 0. -1.
         22    1    1    2    0    0  0.93775071611E+03 -0.18962562503E+03 -0.12117835533E+04  0.15439409520E+04  0.00000000000E+00 0.  1.
<mgrwt>
<rscale>  0 0.19354146E+04</rscale>
<asrwt>0</asrwt>
<pdfrwt beam="1">  1        2 0.37470146E+00 0.19354146E+04</pdfrwt>
<pdfrwt beam="2">  1       -2 0.59152886E-01 0.19354146E+04</pdfrwt>
<totfact> 0.94590696E+00</totfact>
</mgrwt>
</event>
<event>
 6    1  0.2325157E-005  0.2019007E+04  0.7818608E-02  0.8597785E-01
         -2   -1    0    0    0  501 -0.00000000000E+00  0.00000000000E+00  0.48887356177E+03  0.48887356177E+03  0.00000000000E+00 0. -1.
          2   -1    0    0  501    0  0.00000000000E+00 -0.00000000000E+00 -0.20845832120E+04  0.20845832120E+04  0.00000000000E+00 0.  1.
         23    2    1    2    0    0 -0.76416493000E+03  0.47596149293E+03 -0.22340523602E+03  0.93220518176E+03  0.92785874014E+02 0.  0.
         13    1    3    3    0    0 -0.32743923489E+03  0.16740758715E+03 -0.56730783192E+02  0.37210231730E+03  0.00000000000E+00 0. -1.
        -13    1    3    3    0    0 -0.43672569511E+03  0.30855390579E+03 -0.16667445282E+03  0.56010286445E+03  0.00000000000E+00 0.  1.
         22    1    1    2    0    0  0.76416493000E+03 -0.47596149293E+03 -0.13723044142E+04  0.16412515920E+04  0.00000000000E+00 0.  1.
<mgrwt>
<rscale>  0 0.20190073E+04</rscale>
<asrwt>0</asrwt>
<pdfrwt beam="1">  1        2 0.32070511E+00 0.20190073E+04</pdfrwt>
<pdfrwt beam="2">  1       -2 0.75211316E-01 0.20190073E+04</pdfrwt>
<totfact> 0.88222080E+00</totfact>
</mgrwt>
</event>
<event>
 6    1  0.2325157E-005  0.3033114E+04  0.7818608E-02  0.8234338E-01
          2   -1    0    0  501    0  0.00000000000E+00  0.00000000000E+00  0.19657624947E+04  0.19657624947E+04  0.00000000000E+00 0.  1.
         -2   -1    0    0    0  501 -0.00000000000E+00 -0.00000000000E+00 -0.11700011859E+04  0.11700011859E+04  0.00000000000E+00 0. -1.
         23    2    1    2    0    0 -0.78505096033E+03 -0.10876411033E+04 -0.33031967169E+03  0.13843852079E+04  0.90239339648E+02 0.  0.
         13    1    3    3    0    0 -0.46201672942E+03 -0.56328044001E+03 -0.17951545350E+03  0.75031334148E+03  0.00000000000E+00 0. -1.
        -13    1    3    3    0    0 -0.32303423091E+03 -0.52436066333E+03 -0.15080421820E+03  0.63407186644E+03  0.00000000000E+00 0.  1.
         22    1    1    2    0    0  0.78505096033E+03  0.10876411033E+04  0.11260809805E+04  0.17513784727E+04  0.00000000000E+00 0. -1.
<mgrwt>
<rscale>  0 0.30331135E+04</rscale>
<asrwt>0</asrwt>
<pdfrwt beam="1">  1        2 0.30242500E+00 0.30331135E+04</pdfrwt>
<pdfrwt beam="2">  1       -2 0.18000018E+00 0.30331135E+04</pdfrwt>
<totfact> 0.10807053E+00</totfact>
</mgrwt>
</event>
<event>
 6    1  0.2325157E-005  0.1705744E+04  0.7818608E-02  0.8758095E-01
         -2   -1    0    0    0  501 -0.00000000000E+00  0.00000000000E+00  0.34703316123E+03  0.34703316123E+03  0.00000000000E+00 0. -1.
          2   -1    0    0  501    0  0.00000000000E+00 -0.00000000000E+00 -0.20960260755E+04  0.20960260755E+04  0.00000000000E+00 0.  1.
         23    2    1    2    0    0 -0.61164651821E+03 -0.26814647585E+03 -0.12289208383E+03  0.68515767334E+03  0.91239121638E+02 0.  0.
         11    1    3    3    0    0 -0.41098248460E+03 -0.15145259720E+03 -0.44985024619E+02  0.44030460398E+03  0.00000000000E+00 0.  1.
        -11    1    3    3    0    0 -0.20066403361E+03 -0.11669387865E+03 -0.77907059208E+02  0.24485306936E+03  0.00000000000E+00 0. -1.
         22    1    1    2    0    0  0.61164651821E+03  0.26814647585E+03 -0.16261008304E+04  0.17579015633E+04  0.00000000000E+00 0.  1.
<mgrwt>
<rscale>  0 0.17057439E+04</rscale>
<asrwt>0</asrwt>
<pdfrwt beam="1">  1        2 0.32246554E+00 0.17057439E+04</pdfrwt>
<pdfrwt beam="2">  1       -2 0.53389718E-01 0.17057439E+04</pdfrwt>
<totfact> 0.18580037E+01</totfact>
</mgrwt>
</event>
<event>
 6    1  0.2325157E-005  0.7043581E+03  0.7818608E-02  0.9709808E-01
          2   -1    0    0  501    0  0.00000000000E+00  0.00000000000E+00  0.13870543715E+04  0.13870543715E+04  0.00000000000E+00 0.  1.
         -2   -1    0    0    0  501 -0.00000000000E+00 -0.00000000000E+00 -0.89419765851E+02  0.89419765851E+02  0.00000000000E+00 0. -1.
         23    2    1    2    0    0  0.10040567060E+03 -0.18478071440E+03  0.82720119194E+02  0.24349302618E+03  0.90669865864E+02 0.  0.
         13    1    3    3    0    0  0.76326498193E+02 -0.14253644918E+03  0.18207849928E+02  0.16270801907E+03  0.00000000000E+00 0.  1.
        -13    1    3    3    0    0  0.24079172408E+02 -0.42244265225E+02  0.64512269266E+02  0.80785007113E+02  0.00000000000E+00 0. -1.
         22    1    1    2    0    0 -0.10040567060E+03  0.18478071440E+03  0.12149144864E+04  0.12329811111E+04  0.00000000000E+00 0.  1.
<mgrwt>
<rscale>  0 0.70435808E+03</rscale>
<asrwt>0</asrwt>
<pdfrwt beam="1">  1        2 0.21339296E+00 0.70435808E+03</pdfrwt>
<pdfrwt beam="2">  1       -2 0.13756888E-01 0.70435808E+03</pdfrwt>
<totfact> 0.60412966E+02</totfact>
</mgrwt>
</event>
<event>
 6    1  0.2325157E-005  0.5238431E+04  0.7818608E-02  0.7792744E-01
          2   -1    0    0  501    0  0.00000000000E+00  0.00000000000E+00  0.27560843282E+04  0.27560843282E+04  0.00000000000E+00 0.  1.
         -2   -1    0    0    0  501 -0.00000000000E+00 -0.00000000000E+00 -0.24891436534E+04  0.24891436534E+04  0.00000000000E+00 0. -1.
         23    2    1    2    0    0 -0.20239648973E+04  0.14857670349E+04 -0.60994627571E+03  0.25857415064E+04  0.10043451141E+03 0.  0.
         13    1    3    3    0    0 -0.19623082068E+04  0.14576569152E+04 -0.58464213496E+03  0.25134087624E+04  0.00000000000E+00 0.  1.
        -13    1    3    3    0    0 -0.61656690509E+02  0.28110119662E+02 -0.25304140746E+02  0.72332743974E+02  0.00000000000E+00 0. -1.
         22    1    1    2    0    0  0.20239648973E+04 -0.14857670349E+04  0.87688695050E+03  0.26594864752E+04  0.00000000000E+00 0.  1.
<mgrwt>
<rscale>  0 0.52384310E+04</rscale>
<asrwt>0</asrwt>
<pdfrwt beam="1">  1        2 0.42401298E+00 0.52384310E+04</pdfrwt>
<pdfrwt beam="2">  1       -2 0.38294517E+00 0.52384310E+04</pdfrwt>
<totfact> 0.16833564E-02</totfact>
</mgrwt>
</event>
<event>
 6    1  0.2325157E-005  0.2393055E+04  0.7818608E-02  0.8442108E-01
         -2   -1    0    0    0  501 -0.00000000000E+00  0.00000000000E+00  0.14276949220E+04  0.14276949220E+04  0.00000000000E+00 0.  1.
          2   -1    0    0  501    0  0.00000000000E+00 -0.00000000000E+00 -0.10027895296E+04  0.10027895296E+04  0.00000000000E+00 0. -1.
         23    2    1    2    0    0 -0.81962291231E+03  0.64582349201E+03  0.80389488304E+03  0.13203030541E+04  0.89908122478E+02 0.  0.
         11    1    3    3    0    0 -0.44419295440E+03  0.29506888726E+03  0.39355716169E+03  0.66276712991E+03  0.00000000000E+00 0. -1.
        -11    1    3    3    0    0 -0.37542995791E+03  0.35075460475E+03  0.41033772134E+03  0.65753592420E+03  0.00000000000E+00 0.  1.
         22    1    1    2    0    0  0.81962291231E+03 -0.64582349201E+03 -0.37898949065E+03  0.11101813974E+04  0.00000000000E+00 0. -1.
<mgrwt>
<rscale>  0 0.23930545E+04</rscale>
<asrwt>0</asrwt>
<pdfrwt beam="1">  1        2 0.15427531E+00 0.23930545E+04</pdfrwt>
<pdfrwt beam="2">  1       -2 0.21964537E+00 0.23930545E+04</pdfrwt>
<totfact> 0.22418151E+00</totfact>
</mgrwt>
</event>
<event>
 6    1  0.2325157E-005  0.3631899E+04  0.7818608E-02  0.8083224E-01
         -2   -1    0    0    0  501 -0.00000000000E+00  0.00000000000E+00  0.31300221101E+04  0.31300221101E+04  0.00000000000E+00 0.  1.
          2   -1    0    0  501    0  0.00000000000E+00 -0.00000000000E+00 -0.10535617845E+04  0.10535617845E+04  0.00000000000E+00 0. -1.
         23    2    1    2    0    0  0.59735968923E+03  0.14566276588E+04 -0.73162442749E+00  0.15771823270E+04  0.94344170353E+02 0.  0.
         13    1    3    3    0    0  0.31664134746E+03  0.77454311624E+03 -0.47458473477E+02  0.83811162057E+03  0.00000000000E+00 0. -1.
        -13    1    3    3    0    0  0.28071834177E+03  0.68208454258E+03  0.46726849050E+02  0.73907070639E+03  0.00000000000E+00 0.  1.
         22    1    1    2    0    0 -0.59735968923E+03 -0.14566276588E+04  0.20771919500E+04  0.26064015676E+04  0.00000000000E+00 0. -1.
<mgrwt>
<rscale>  0 0.36318985E+04</rscale>
<asrwt>0</asrwt>
<pdfrwt beam="1">  1        2 0.16208643E+00 0.36318985E+04</pdfrwt>
<pdfrwt beam="2">  1       -2 0.48154186E+00 0.36318985E+04</pdfrwt>
<totfact> 0.40831047E-02</totfact>
</mgrwt>
</event>
<event>
 6    1  0.2325157E-005  0.6715728E+03  0.7818608E-02  0.9767121E-01
         -2   -1    0    0    0  501 -0.00000000000E+00  0.00000000000E+00  0.29256965405E+03  0.29256965405E+03  0.00000000000E+00 0. -1.
          2   -1    0    0  501    0  0.00000000000E+00 -0.00000000000E+00 -0.38538693806E+03  0.38538693806E+03  0.00000000000E+00 0.  1.
         23    2    1    2    0    0 -0.29781344181E+03 -0.34085763840E+02 -0.18600164128E+03  0.36404894668E+03  0.89890709209E+02 0.  0.
         11    1    3    3    0    0 -0.91248022836E+02  0.10024214368E+01 -0.12683989896E+02  0.92130831538E+02  0.00000000000E+00 0. -1.
        -11    1    3    3    0    0 -0.20656541897E+03 -0.35088185277E+02 -0.17331765138E+03  0.27191811514E+03  0.00000000000E+00 0.  1.
         22    1    1    2    0    0  0.29781344181E+03  0.34085763840E+02  0.93184357270E+02  0.31390764543E+03  0.00000000000E+00 0. -1.
<mgrwt>
<rscale>  0 0.67157285E+03</rscale>
<asrwt>0</asrwt>
<pdfrwt beam="1">  1        2 0.59290298E-01 0.67157285E+03</pdfrwt>
<pdfrwt beam="2">  1       -2 0.45010716E-01 0.67157285E+03</pdfrwt>
<totfact> 0.39162669E+02</totfact>
</mgrwt>
</event>
<event>
 6    1  0.2325157E-005  0.3265432E+04  0.7818608E-02  0.8171747E-01
          2   -1    0    0  501    0  0.00000000000E+00  0.00000000000E+00  0.17429153203E+04  0.17429153203E+04  0.00000000000E+00 0.  1.
         -2   -1    0    0    0  501 -0.00000000000E+00 -0.00000000000E+00 -0.15294839843E+04  0.15294839843E+04  0.00000000000E+00 0. -1.
         23    2    1    2    0    0 -0.55478564884E+03 -0.15296913240E+04 -0.98079791383E+01  0.16299686501E+04  0.94651681451E+02 0.  0.
         13    1    3    3    0    0 -0.35436682716E+03 -0.10832446963E+04  0.17061362383E+02  0.11398622769E+04  0.00000000000E+00 0. -1.
        -13    1    3    3    0    0 -0.20041882168E+03 -0.44644662771E+03 -0.26869341521E+02  0.49010637314E+03  0.00000000000E+00 0.  1.
         22    1    1    2    0    0  0.55478564884E+03  0.15296913240E+04  0.22323931515E+03  0.16424306545E+04  0.00000000000E+00 0.  1.
<mgrwt>
<rscale>  0 0.32654317E+04</rscale>
<asrwt>0</asrwt>
<pdfrwt beam="1">  1        2 0.26814082E+00 0.32654317E+04</pdfrwt>
<pdfrwt beam="2">  1       -2 0.23530523E+00 0.32654317E+04</pdfrwt>
<totfact> 0.61593687E-01</totfact>
</mgrwt>
</event>
<event>
 6    1  0.2325157E-005  0.1094658E+04  0.7818608E-02  0.9210415E-01
          2   -1    0    0  501    0  0.00000000000E+00  0.00000000000E+00  0.17140440356E+04  0.17140440356E+04  0.00000000000E+00 0.  1.
         -2   -1    0    0    0  501 -0.00000000000E+00 -0.00000000000E+00 -0.17477313838E+03  0.17477313838E+03  0.00000000000E+00 0. -1.
         23    2    1    2    0    0 -0.34840731404E+03 -0.28230241926E+03  0.13051008133E+04  0.13829338469E+04  0.90197448767E+02 0.  0.
         11    1    3    3    0    0 -0.51706228645E+02 -0.54440969150E+02  0.13487468516E+03  0.15436493741E+03  0.00000000000E+00 0.  1.
        -11    1    3    3    0    0 -0.29670108540E+03 -0.22786145011E+03  0.11702261281E+04  0.12285689095E+04  0.00000000000E+00 0. -1.
         22    1    1    2    0    0  0.34840731404E+03  0.28230241926E+03  0.23417008399E+03  0.50588332710E+03  0.00000000000E+00 0. -1.
<mgrwt>
<rscale>  0 0.10946577E+04</rscale>
<asrwt>0</asrwt>
<pdfrwt beam="1">  1        2 0.26369907E+00 0.10946577E+04</pdfrwt>
<pdfrwt beam="2">  1       -2 0.26888176E-01 0.10946577E+04</pdfrwt>
<totfact> 0.12016319E+02</totfact>
</mgrwt>
</event>
<event>
 6    1  0.2325157E-005  0.2402100E+04  0.7818608E-02  0.8438718E-01
         -2   -1    0    0    0  501 -0.00000000000E+00  0.00000000000E+00  0.42051679491E+03  0.42051679491E+03  0.00000000000E+00 0. -1.
          2   -1    0    0  501    0  0.00000000000E+00 -0.00000000000E+00 -0.34303542553E+04  0.34303542553E+04  0.00000000000E+00 0.  1.
         23    2    1    2    0    0 -0.83478043197E+03 -0.60707435021E+03 -0.24859319709E+04  0.26933415265E+04  0.93984990186E+02 0.  0.
         11    1    3    3    0    0 -0.41755094501E+03 -0.24899435480E+03 -0.12073849631E+04  0.13015857365E+04  0.00000000000E+00 0.  1.
        -11    1    3    3    0    0 -0.41722948696E+03 -0.35807999541E+03 -0.12785470078E+04  0.13917557900E+04  0.00000000000E+00 0. -1.
         22    1    1    2    0    0  0.83478043197E+03  0.60707435021E+03 -0.52390548954E+03  0.11575295237E+04  0.00000000000E+00 0.  1.
<mgrwt>
<rscale>  0 0.24021004E+04</rscale>
<asrwt>0</asrwt>
<pdfrwt beam="1">  1        2 0.52774680E+00 0.24021004E+04</pdfrwt>
<pdfrwt beam="2">  1       -2 0.64694893E-01 0.24021004E+04</pdfrwt>
<totfact> 0.18049130E+00</totfact>
</mgrwt>
</event>
<event>
 6    1  0.2325157E-005  0.1187101E+04  0.7818608E-02  0.9124222E-01
         -2   -1    0    0    0  501 -0.00000000000E+00  0.00000000000E+00  0.28499411765E+03  0.28499411765E+03  0.00000000000E+00 0. -1.
          2   -1    0    0  501    0  0.00000000000E+00 -0.00000000000E+00 -0.12361738213E+04  0.12361738213E+04  0.00000000000E+00 0.  1.
         23    2    1    2    0    0  0.35991850620E+03  0.44029110113E+03 -0.27676665560E+03  0.63899417815E+03  0.91193164324E+02 0.  0.
         11    1    3    3    0    0  0.22429554155E+02  0.47150914894E+02 -0.53660582312E+02  0.74871568495E+02  0.00000000000E+00 0. -1.
        -11    1    3    3    0    0  0.33748895205E+03  0.39314018624E+03 -0.22310607329E+03  0.56412260966E+03  0.00000000000E+00 0.  1.
         22    1    1    2    0    0 -0.35991850620E+03 -0.44029110113E+03 -0.67441304806E+03  0.88217376079E+03  0.00000000000E+00 0.  1.
<mgrwt>
<rscale>  0 0.11871011E+04</rscale>
<asrwt>0</asrwt>
<pdfrwt beam="1">  1        2 0.19018059E+00 0.11871011E+04</pdfrwt>
<pdfrwt beam="2">  1       -2 0.43845248E-01 0.11871011E+04</pdfrwt>
<totfact> 0.87758440E+01</totfact>
</mgrwt>
</event>
<event>
 6    1  0.2325157E-005  0.3040490E+04  0.7818608E-02  0.8232262E-01
         -2   -1    0    0    0  501 -0.00000000000E+00  0.00000000000E+00  0.22187167702E+04  0.22187167702E+04  0.00000000000E+00 0. -1.
          2   -1    0    0  501    0  0.00000000000E+00 -0.00000000000E+00 -0.10416584129E+04  0.10416584129E+04  0.00000000000E+00 0.  1.
         23    2    1    2    0    0  0.12440776503E+04 -0.76831048015E+03  0.10294711055E+04  0.17907452328E+04  0.94485649721E+02 0.  0.
         13    1    3    3    0    0  0.23468121678E+03 -0.16940662286E+03  0.16620201130E+03  0.33376187011E+03  0.00000000000E+00 0. -1.
        -13    1    3    3    0    0  0.10093964335E+04 -0.59890385729E+03  0.86326909424E+03  0.14569833627E+04  0.00000000000E+00 0.  1.
         22    1    1    2    0    0 -0.12440776503E+04  0.76831048015E+03  0.14758725172E+03  0.14696299502E+04  0.00000000000E+00 0. -1.
<mgrwt>
<rscale>  0 0.30404901E+04</rscale>
<asrwt>0</asrwt>
<pdfrwt beam="1">  1        2 0.16025514E+00 0.30404901E+04</pdfrwt>
<pdfrwt beam="2">  1       -2 0.34134104E+00 0.30404901E+04</pdfrwt>
<totfact> 0.35643164E-01</totfact>
</mgrwt>
</event>
<event>
 6    1  0.2325157E-005  0.3421640E+04  0.7818608E-02  0.8132615E-01
          2   -1    0    0  501    0  0.00000000000E+00  0.00000000000E+00  0.12548426054E+04  0.12548426054E+04  0.00000000000E+00 0.  1.
         -2   -1    0    0    0  501 -0.00000000000E+00 -0.00000000000E+00 -0.23324883197E+04  0.23324883197E+04  0.00000000000E+00 0. -1.
         23    2    1    2    0    0  0.42219165507E+03 -0.13319749787E+04  0.49326692347E+03  0.14849109734E+04  0.96151983170E+02 0.  0.
         13    1    3    3    0    0  0.27792663317E+03 -0.83256358841E+03  0.35671296752E+03  0.94744365709E+03  0.00000000000E+00 0. -1.
        -13    1    3    3    0    0  0.14426502190E+03 -0.49941139025E+03  0.13655395595E+03  0.53746731635E+03  0.00000000000E+00 0.  1.
         22    1    1    2    0    0 -0.42219165507E+03  0.13319749787E+04 -0.15709126378E+04  0.21024199516E+04  0.00000000000E+00 0. -1.
<mgrwt>
<rscale>  0 0.34216404E+04</rscale>
<asrwt>0</asrwt>
<pdfrwt beam="1">  1        2 0.19305271E+00 0.34216404E+04</pdfrwt>
<pdfrwt beam="2">  1       -2 0.35884436E+00 0.34216404E+04</pdfrwt>
<totfact> 0.19864272E-01</totfact>
</mgrwt>
</event>
<event>
 6    1  0.2325157E-005  0.4050676E+04  0.7818608E-02  0.7994401E-01
         -1   -1    0    0    0  501 -0.00000000000E+00  0.00000000000E+00  0.13538859346E+04  0.13538859346E+04  0.00000000000E+00 0. -1.
          1   -1    0    0  501    0  0.00000000000E+00 -0.00000000000E+00 -0.30297925442E+04  0.30297925442E+04  0.00000000000E+00 0.  1.
         23    2    1    2    0    0  0.34819863202E+03  0.48241197978E+03  0.12556040509E+04  0.13924047771E+04  0.91027057394E+02 0.  0.
         13    1    3    3    0    0  0.12466347563E+03  0.11434487623E+03  0.30391473255E+03  0.34782164617E+03  0.00000000000E+00 0. -1.
        -13    1    3    3    0    0  0.22353515639E+03  0.36806710354E+03  0.95168931832E+03  0.10445831309E+04  0.00000000000E+00 0.  1.
         22    1    1    2    0    0 -0.34819863202E+03 -0.48241197978E+03 -0.29315106605E+04  0.29912737016E+04  0.00000000000E+00 0.  1.
<mgrwt>
<rscale>  0 0.40506758E+04</rscale>
<asrwt>0</asrwt>
<pdfrwt beam="1">  1        1 0.46612192E+00 0.40506758E+04</pdfrwt>
<pdfrwt beam="2">  1       -1 0.20829015E+00 0.40506758E+04</pdfrwt>
<totfact> 0.58476077E-02</totfact>
</mgrwt>
</event>
<event>
 6    1  0.2325157E-005  0.9697165E+03  0.7818608E-02  0.9342397E-01
          2   -1    0    0  501    0  0.00000000000E+00  0.00000000000E+00  0.20094393757E+04  0.20094393757E+04  0.00000000000E+00 0.  1.
         -2   -1    0    0    0  501 -0.00000000000E+00 -0.00000000000E+00 -0.11699160317E+03  0.11699160317E+03  0.00000000000E+00 0. -1.
         23    2    1    2    0    0 -0.45348064626E+03 -0.13625704837E+03  0.77501536910E+03  0.91281412994E+03  0.91488434904E+02 0.  0.
         13    1    3    3    0    0 -0.12218985414E+03 -0.73651792839E+02  0.27399890083E+03  0.30891802262E+03  0.00000000000E+00 0.  1.
        -13    1    3    3    0    0 -0.33129079212E+03 -0.62605255535E+02  0.50101646827E+03  0.60389610732E+03  0.00000000000E+00 0. -1.
         22    1    1    2    0    0  0.45348064626E+03  0.13625704837E+03  0.11174324035E+04  0.12136168490E+04  0.00000000000E+00 0. -1.
<mgrwt>
<rscale>  0 0.96971652E+03</rscale>
<asrwt>0</asrwt>
<pdfrwt beam="1">  1        2 0.30914449E+00 0.96971652E+03</pdfrwt>
<pdfrwt beam="2">  1       -2 0.17998710E-01 0.96971652E+03</pdfrwt>
<totfact> 0.17036649E+02</totfact>
</mgrwt>
</event>
<event>
 6    1  0.2325157E-005  0.1327751E+04  0.7818608E-02  0.9007844E-01
         -1   -1    0    0    0  501 -0.00000000000E+00  0.00000000000E+00  0.41483665343E+03  0.41483665343E+03  0.00000000000E+00 0. -1.
          1   -1    0    0  501    0  0.00000000000E+00 -0.00000000000E+00 -0.10624192201E+04  0.10624192201E+04  0.00000000000E+00 0.  1.
         23    2    1    2    0    0  0.75028482738E+02 -0.59792736034E+03 -0.23859570050E+02  0.60997461696E+03  0.91396678252E+02 0.  0.
         11    1    3    3    0    0  0.20899177460E+02 -0.19853239139E+03  0.34933182414E+02  0.20266280685E+03  0.00000000000E+00 0. -1.
        -11    1    3    3    0    0  0.54129305278E+02 -0.39939496895E+03 -0.58792752465E+02  0.40731181011E+03  0.00000000000E+00 0.  1.
         22    1    1    2    0    0 -0.75028482738E+02  0.59792736034E+03 -0.62372299661E+03  0.86728125655E+03  0.00000000000E+00 0.  1.
<mgrwt>
<rscale>  0 0.13277506E+04</rscale>
<asrwt>0</asrwt>
<pdfrwt beam="1">  1        1 0.16344911E+00 0.13277506E+04</pdfrwt>
<pdfrwt beam="2">  1       -1 0.63821024E-01 0.13277506E+04</pdfrwt>
<totfact> 0.33055337E+01</totfact>
</mgrwt>
</event>
<event>
 6    1  0.2325157E-005  0.3861012E+04  0.7818608E-02  0.8033187E-01
          2   -1    0    0  501    0  0.00000000000E+00  0.00000000000E+00  0.20466330529E+04  0.20466330529E+04  0.00000000000E+00 0.  1.
         -2   -1    0    0    0  501 -0.00000000000E+00 -0.00000000000E+00 -0.18209683029E+04  0.18209683029E+04  0.00000000000E+00 0. -1.
         23    2    1    2    0    0  0.35756253975E+03 -0.18586623290E+04  0.48895697169E+03  0.19566331674E+04  0.82811886100E+02 0.  0.
         11    1    3    3    0    0  0.15468966159E+03 -0.10174843588E+04  0.27466520820E+03  0.10651968308E+04  0.00000000000E+00 0. -1.
        -11    1    3    3    0    0  0.20287287816E+03 -0.84117797020E+03  0.21429176350E+03  0.89143633656E+03  0.00000000000E+00 0.  1.
         22    1    1    2    0    0 -0.35756253975E+03  0.18586623290E+04 -0.26329222167E+03  0.19109681884E+04  0.00000000000E+00 0. -1.
<mgrwt>
<rscale>  0 0.38610123E+04</rscale>
<asrwt>0</asrwt>
<pdfrwt beam="1">  1        2 0.31486662E+00 0.38610123E+04</pdfrwt>
<pdfrwt beam="2">  1       -2 0.28014897E+00 0.38610123E+04</pdfrwt>
<totfact> 0.21101166E-01</totfact>
</mgrwt>
</event>
<event>
 6    1  0.2325157E-005  0.9400710E+03  0.7818608E-02  0.9376832E-01
         -2   -1    0    0    0  501 -0.00000000000E+00  0.00000000000E+00  0.30152370642E+03  0.30152370642E+03  0.00000000000E+00 0. -1.
          2   -1    0    0  501    0  0.00000000000E+00 -0.00000000000E+00 -0.73272310888E+03  0.73272310888E+03  0.00000000000E+00 0.  1.
         23    2    1    2    0    0  0.30688410644E+03  0.34141448877E+03 -0.30361297191E+03  0.55778065156E+03  0.90535687003E+02 0.  0.
         13    1    3    3    0    0  0.29233202564E+03  0.28003858310E+03 -0.26396164496E+03  0.48327566796E+03  0.00000000000E+00 0.  1.
        -13    1    3    3    0    0  0.14552080803E+02  0.61375905664E+02 -0.39651326953E+02  0.74504983598E+02  0.00000000000E+00 0. -1.
         22    1    1    2    0    0 -0.30688410644E+03 -0.34141448877E+03 -0.12758643056E+03  0.47646616374E+03  0.00000000000E+00 0.  1.
<mgrwt>
<rscale>  0 0.94007103E+03</rscale>
<asrwt>0</asrwt>
<pdfrwt beam="1">  1        2 0.11272663E+00 0.94007103E+03</pdfrwt>
<pdfrwt beam="2">  1       -2 0.46388263E-01 0.94007103E+03</pdfrwt>
<totfact> 0.17047713E+02</totfact>
</mgrwt>
</event>
<event>
 6    1  0.2325157E-005  0.1890860E+04  0.7818608E-02  0.8659419E-01
          1   -1    0    0  501    0  0.00000000000E+00  0.00000000000E+00  0.16728001428E+04  0.16728001428E+04  0.00000000000E+00 0. -1.
         -1   -1    0    0    0  501 -0.00000000000E+00 -0.00000000000E+00 -0.53433632364E+03  0.53433632364E+03  0.00000000000E+00 0.  1.
         23    2    1    2    0    0  0.59179085286E+03  0.21079269891E+03  0.13918637590E+04  0.15297432978E+04  0.90442568262E+02 0.  0.
         11    1    3    3    0    0  0.42370910927E+03  0.10749428264E+03  0.97946386961E+03  0.10725828182E+04  0.00000000000E+00 0.  1.
        -11    1    3    3    0    0  0.16808174359E+03  0.10329841627E+03  0.41239988939E+03  0.45716047959E+03  0.00000000000E+00 0. -1.
         22    1    1    2    0    0 -0.59179085286E+03 -0.21079269891E+03 -0.25339993981E+03  0.67739316866E+03  0.00000000000E+00 0.  1.
<mgrwt>
<rscale>  0 0.18908600E+04</rscale>
<asrwt>0</asrwt>
<pdfrwt beam="1">  1        1 0.25735387E+00 0.18908600E+04</pdfrwt>
<pdfrwt beam="2">  1       -1 0.82205589E-01 0.18908600E+04</pdfrwt>
<totfact> 0.68539314E+00</totfact>
</mgrwt>
</event>
<event>
 6    1  0.2325157E-005  0.1518053E+04  0.7818608E-02  0.8872536E-01
         -2   -1    0    0    0  501 -0.00000000000E+00  0.00000000000E+00  0.28079561629E+03  0.28079561629E+03  0.00000000000E+00 0. -1.
          2   -1    0    0  501    0  0.00000000000E+00 -0.00000000000E+00 -0.20517462781E+04  0.20517462781E+04  0.00000000000E+00 0.  1.
         23    2    1    2    0    0  0.15404498164E+03 -0.73610210332E+03 -0.10112131493E+04  0.12635342935E+04  0.91600843736E+02 0.  0.
         11    1    3    3    0    0  0.94509775918E+02 -0.51800600826E+03 -0.77116424077E+03  0.93378616855E+03  0.00000000000E+00 0. -1.
        -11    1    3    3    0    0  0.59535205724E+02 -0.21809609506E+03 -0.24004890857E+03  0.32974812495E+03  0.00000000000E+00 0.  1.
         22    1    1    2    0    0 -0.15404498164E+03  0.73610210332E+03 -0.75973751245E+03  0.10690076009E+04  0.00000000000E+00 0.  1.
<mgrwt>
<rscale>  0 0.15180532E+04</rscale>
<asrwt>0</asrwt>
<pdfrwt beam="1">  1        2 0.31565326E+00 0.15180532E+04</pdfrwt>
<pdfrwt beam="2">  1       -2 0.43199327E-01 0.15180532E+04</pdfrwt>
<totfact> 0.30664746E+01</totfact>
</mgrwt>
</event>
<event>
 6    1  0.2325157E-005  0.3138846E+04  0.7818608E-02  0.8205157E-01
          2   -1    0    0  501    0  0.00000000000E+00  0.00000000000E+00  0.27830997902E+04  0.27830997902E+04  0.00000000000E+00 0.  1.
         -2   -1    0    0    0  501 -0.00000000000E+00 -0.00000000000E+00 -0.88501644464E+03  0.88501644464E+03  0.00000000000E+00 0. -1.
         23    2    1    2    0    0 -0.11437696323E+04 -0.18035811438E+03  0.21855801018E+04  0.24750561333E+04  0.91675842538E+02 0.  0.
         13    1    3    3    0    0 -0.98218998491E+03 -0.12697807817E+03  0.19000193475E+04  0.21426371880E+04  0.00000000000E+00 0.  1.
        -13    1    3    3    0    0 -0.16157964739E+03 -0.53380036218E+02  0.28556075436E+03  0.33241894523E+03  0.00000000000E+00 0. -1.
         22    1    1    2    0    0  0.11437696323E+04  0.18035811438E+03 -0.28749675623E+03  0.11930601016E+04  0.00000000000E+00 0. -1.
<mgrwt>
<rscale>  0 0.31388463E+04</rscale>
<asrwt>0</asrwt>
<pdfrwt beam="1">  1        2 0.42816920E+00 0.31388463E+04</pdfrwt>
<pdfrwt beam="2">  1       -2 0.13615638E+00 0.31388463E+04</pdfrwt>
<totfact> 0.77302711E-01</totfact>
</mgrwt>
</event>
<event>
 6    1  0.2325157E-005  0.1405816E+04  0.7818608E-02  0.8949619E-01
          2   -1    0    0  501    0  0.00000000000E+00  0.00000000000E+00  0.75706118999E+03  0.75706118999E+03  0.00000000000E+00 0.  1.
         -2   -1    0    0    0  501 -0.00000000000E+00 -0.00000000000E+00 -0.65262870912E+03  0.65262870912E+03  0.00000000000E+00 0. -1.
         23    2    1    2    0    0 -0.35318152386E+03 -0.13666676569E+03  0.64279575226E+03  0.75147260549E+03  0.90053895168E+02 0.  0.
         11    1    3    3    0    0 -0.27313961044E+03 -0.63220894207E+02  0.47561349044E+03  0.55209629644E+03  0.00000000000E+00 0. -1.
        -11    1    3    3    0    0 -0.80041913423E+02 -0.73445871484E+02  0.16718226182E+03  0.19937630904E+03  0.00000000000E+00 0.  1.
         22    1    1    2    0    0  0.35318152386E+03  0.13666676569E+03 -0.53836327139E+03  0.65821729362E+03  0.00000000000E+00 0. -1.
<mgrwt>
<rscale>  0 0.14058163E+04</rscale>
<asrwt>0</asrwt>
<pdfrwt beam="1">  1        2 0.11647095E+00 0.14058163E+04</pdfrwt>
<pdfrwt beam="2">  1       -2 0.10040442E+00 0.14058163E+04</pdfrwt>
<totfact> 0.29492838E+01</totfact>
</mgrwt>
</event>
<event>
 6    1  0.2325157E-005  0.4891286E+04  0.7818608E-02  0.7845500E-01
         -2   -1    0    0    0  501 -0.00000000000E+00  0.00000000000E+00  0.14940632565E+04  0.14940632565E+04  0.00000000000E+00 0. -1.
          2   -1    0    0  501    0  0.00000000000E+00 -0.00000000000E+00 -0.40032901660E+04  0.40032901660E+04  0.00000000000E+00 0.  1.
         23    2    1    2    0    0 -0.13154160255E+04  0.34563026867E+03  0.10282555360E+04  0.17074244449E+04  0.90604553524E+02 0.  0.
         13    1    3    3    0    0 -0.71371803439E+03  0.16311494787E+03  0.50481183648E+03  0.88928899076E+03  0.00000000000E+00 0.  1.
        -13    1    3    3    0    0 -0.60169799111E+03  0.18251532080E+03  0.52344369952E+03  0.81813545419E+03  0.00000000000E+00 0. -1.
         22    1    1    2    0    0  0.13154160255E+04 -0.34563026867E+03 -0.35374824455E+04  0.37899289776E+04  0.00000000000E+00 0.  1.
<mgrwt>
<rscale>  0 0.48912856E+04</rscale>
<asrwt>0</asrwt>
<pdfrwt beam="1">  1        2 0.61589080E+00 0.48912856E+04</pdfrwt>
<pdfrwt beam="2">  1       -2 0.22985588E+00 0.48912856E+04</pdfrwt>
<totfact> 0.21294672E-02</totfact>
</mgrwt>
</event>
<event>
 6    1  0.2325157E-005  0.1245928E+04  0.7818608E-02  0.9073580E-01
         -2   -1    0    0    0  501 -0.00000000000E+00  0.00000000000E+00  0.37558740700E+03  0.37558740700E+03  0.00000000000E+00 0. -1.
          2   -1    0    0  501    0  0.00000000000E+00 -0.00000000000E+00 -0.10332718576E+04  0.10332718576E+04  0.00000000000E+00 0.  1.
         23    2    1    2    0    0 -0.79531830744E+02  0.13696414432E+03 -0.10078657871E+04  0.10245267817E+04  0.93686672268E+02 0.  0.
         13    1    3    3    0    0 -0.73035323703E+00  0.29235569514E+02 -0.44868246506E+03  0.44963452536E+03  0.00000000000E+00 0.  1.
        -13    1    3    3    0    0 -0.78801477507E+02  0.10772857481E+03 -0.55918332207E+03  0.57489225631E+03  0.00000000000E+00 0. -1.
         22    1    1    2    0    0  0.79531830744E+02 -0.13696414432E+03  0.35018133656E+03  0.38433248289E+03  0.00000000000E+00 0. -1.
<mgrwt>
<rscale>  0 0.12459276E+04</rscale>
<asrwt>0</asrwt>
<pdfrwt beam="1">  1        2 0.15896490E+00 0.12459276E+04</pdfrwt>
<pdfrwt beam="2">  1       -2 0.57782679E-01 0.12459276E+04</pdfrwt>
<totfact> 0.66166688E+01</totfact>
</mgrwt>
</event>
<event>
 6    1  0.2325157E-005  0.1240569E+04  0.7818608E-02  0.9078069E-01
         -2   -1    0    0    0  501 -0.00000000000E+00  0.00000000000E+00  0.14728809493E+03  0.14728809493E+03  0.00000000000E+00 0. -1.
          2   -1    0    0  501    0  0.00000000000E+00 -0.00000000000E+00 -0.26122466194E+04  0.26122466194E+04  0.00000000000E+00 0.  1.
         23    2    1    2    0    0 -0.13158250462E+03  0.45369674920E+03 -0.21215604953E+04  0.21755168189E+04  0.93272709633E+02 0.  0.
         11    1    3    3    0    0 -0.21680602031E+02  0.17790765780E+03 -0.96213860561E+03  0.97868885741E+03  0.00000000000E+00 0.  1.
        -11    1    3    3    0    0 -0.10990190259E+03  0.27578909140E+03 -0.11594218896E+04  0.11968279615E+04  0.00000000000E+00 0. -1.
         22    1    1    2    0    0  0.13158250462E+03 -0.45369674920E+03 -0.34339802922E+03  0.58401789547E+03  0.00000000000E+00 0. -1.
<mgrwt>
<rscale>  0 0.12405689E+04</rscale>
<asrwt>0</asrwt>
<pdfrwt beam="1">  1        2 0.40188406E+00 0.12405689E+04</pdfrwt>
<pdfrwt beam="2">  1       -2 0.22659709E-01 0.12405689E+04</pdfrwt>
<totfact> 0.50809545E+01</totfact>
</mgrwt>
</event>
<event>
 6    1  0.2325157E-005  0.2367338E+04  0.7818608E-02  0.8451834E-01
          2   -1    0    0  501    0  0.00000000000E+00  0.00000000000E+00  0.25648357064E+04  0.25648357064E+04  0.00000000000E+00 0.  1.
         -2   -1    0    0    0  501 -0.00000000000E+00 -0.00000000000E+00 -0.54626223195E+03  0.54626223195E+03  0.00000000000E+00 0. -1.
         23    2    1    2    0    0  0.53857281529E+03  0.69761742567E+02 -0.36867814175E+03  0.66285414797E+03  0.92329145889E+02 0.  0.
         11    1    3    3    0    0  0.37662979501E+03  0.10765797099E+02 -0.27688259313E+03  0.46757873696E+03  0.00000000000E+00 0.  1.
        -11    1    3    3    0    0  0.16194302028E+03  0.58995945469E+02 -0.91795548614E+02  0.19527541101E+03  0.00000000000E+00 0. -1.
         22    1    1    2    0    0 -0.53857281529E+03 -0.69761742567E+02  0.23872516162E+04  0.24482437904E+04  0.00000000000E+00 0.  1.
<mgrwt>
<rscale>  0 0.23673385E+04</rscale>
<asrwt>0</asrwt>
<pdfrwt beam="1">  1        2 0.39459010E+00 0.23673385E+04</pdfrwt>
<pdfrwt beam="2">  1       -2 0.84040345E-01 0.23673385E+04</pdfrwt>
<totfact> 0.35575052E+00</totfact>
</mgrwt>
</event>
<event>
 6    1  0.2325157E-005  0.1811559E+04  0.7818608E-02  0.8700177E-01
         -2   -1    0    0    0  501 -0.00000000000E+00  0.00000000000E+00  0.68703250520E+03  0.68703250520E+03  0.00000000000E+00 0. -1.
          2   -1    0    0  501    0  0.00000000000E+00 -0.00000000000E+00 -0.11941739738E+04  0.11941739738E+04  0.00000000000E+00 0.  1.
         23    2    1    2    0    0 -0.23453120313E+03 -0.20535311667E+03  0.62659187910E+03  0.70539778221E+03  0.88282843339E+02 0.  0.
         13    1    3    3    0    0 -0.42330520269E+02 -0.63395892179E+02  0.23090889930E+03  0.24316626384E+03  0.00000000000E+00 0.  1.
        -13    1    3    3    0    0 -0.19220068286E+03 -0.14195722449E+03  0.39568297979E+03  0.46223151837E+03  0.00000000000E+00 0. -1.
         22    1    1    2    0    0  0.23453120313E+03  0.20535311667E+03 -0.11337333477E+04  0.11758086968E+04  0.00000000000E+00 0.  1.
<mgrwt>
<rscale>  0 0.18115588E+04</rscale>
<asrwt>0</asrwt>
<pdfrwt beam="1">  1        2 0.18371907E+00 0.18115588E+04</pdfrwt>
<pdfrwt beam="2">  1       -2 0.10569731E+00 0.18115588E+04</pdfrwt>
<totfact> 0.13031518E+01</totfact>
</mgrwt>
</event>
<event>
 6    1  0.2325157E-005  0.5794480E+04  0.7818608E-02  0.7716419E-01
          2   -1    0    0  501    0  0.00000000000E+00  0.00000000000E+00  0.21049818491E+04  0.21049818491E+04  0.00000000000E+00 0.  1.
         -2   -1    0    0    0  501 -0.00000000000E+00 -0.00000000000E+00 -0.39876832502E+04  0.39876832502E+04  0.00000000000E+00 0. -1.
         23    2    1    2    0    0 -0.80136810438E+03 -0.22928183380E+04 -0.26009968964E+04  0.35598494352E+04  0.90201865935E+02 0.  0.
         13    1    3    3    0    0 -0.35752034229E+03 -0.88940073590E+03 -0.10282411473E+04  0.14057504477E+04  0.00000000000E+00 0. -1.
        -13    1    3    3    0    0 -0.44384776209E+03 -0.14034176021E+04 -0.15727557491E+04  0.21540989875E+04  0.00000000000E+00 0.  1.
         22    1    1    2    0    0  0.80136810438E+03  0.22928183380E+04  0.71829549539E+03  0.25328156641E+04  0.00000000000E+00 0.  1.
<mgrwt>
<rscale>  0 0.57944804E+04</rscale>
<asrwt>0</asrwt>
<pdfrwt beam="1">  1        2 0.32384336E+00 0.57944804E+04</pdfrwt>
<pdfrwt beam="2">  1       -2 0.61348973E+00 0.57944804E+04</pdfrwt>
<totfact> 0.18350244E-03</totfact>
</mgrwt>
</event>
<event>
 6    1  0.2325157E-005  0.4984392E+04  0.7818608E-02  0.7830919E-01
          2   -1    0    0  501    0  0.00000000000E+00  0.00000000000E+00  0.32907321621E+04  0.32907321621E+04  0.00000000000E+00 0.  1.
         -2   -1    0    0    0  501 -0.00000000000E+00 -0.00000000000E+00 -0.18874340829E+04  0.18874340829E+04  0.00000000000E+00 0. -1.
         23    2    1    2    0    0  0.18422681085E+04 -0.10388379369E+04  0.20697951283E+04  0.29606553974E+04  0.91062981906E+02 0.  0.
         11    1    3    3    0    0  0.84197314574E+03 -0.42326143132E+03  0.92959027251E+03  0.13237095951E+04  0.00000000000E+00 0. -1.
        -11    1    3    3    0    0  0.10002949627E+04 -0.61557650560E+03  0.11402048557E+04  0.16369458023E+04  0.00000000000E+00 0.  1.
         22    1    1    2    0    0 -0.18422681085E+04  0.10388379369E+04 -0.66649704905E+03  0.22175108476E+04  0.00000000000E+00 0. -1.
<mgrwt>
<rscale>  0 0.49843917E+04</rscale>
<asrwt>0</asrwt>
<pdfrwt beam="1">  1        2 0.50626649E+00 0.49843917E+04</pdfrwt>
<pdfrwt beam="2">  1       -2 0.29037447E+00 0.49843917E+04</pdfrwt>
<totfact> 0.29938535E-02</totfact>
</mgrwt>
</event>
<event>
 6    1  0.2325157E-005  0.3472206E+04  0.7818608E-02  0.8120409E-01
          2   -1    0    0  501    0  0.00000000000E+00  0.00000000000E+00  0.39925542416E+04  0.39925542416E+04  0.00000000000E+00 0.  1.
         -2   -1    0    0    0  501 -0.00000000000E+00 -0.00000000000E+00 -0.75491860193E+03  0.75491860193E+03  0.00000000000E+00 0. -1.
         23    2    1    2    0    0  0.13471200567E+04 -0.10804885581E+04  0.18473563431E+04  0.25304783704E+04  0.91691619816E+02 0.  0.
         11    1    3    3    0    0  0.63141476152E+03 -0.48366366232E+03  0.78922850063E+03  0.11204895205E+04  0.00000000000E+00 0. -1.
        -11    1    3    3    0    0  0.71570529522E+03 -0.59682489580E+03  0.10581278425E+04  0.14099888499E+04  0.00000000000E+00 0.  1.
         22    1    1    2    0    0 -0.13471200567E+04  0.10804885581E+04  0.13902792966E+04  0.22169944732E+04  0.00000000000E+00 0. -1.
<mgrwt>
<rscale>  0 0.34722059E+04</rscale>
<asrwt>0</asrwt>
<pdfrwt beam="1">  1        2 0.61423910E+00 0.34722059E+04</pdfrwt>
<pdfrwt beam="2">  1       -2 0.11614133E+00 0.34722059E+04</pdfrwt>
<totfact> 0.16401728E-01</totfact>
</mgrwt>
</event>
<event>
 6    1  0.2325157E-005  0.4642210E+04  0.7818608E-02  0.7886202E-01
          2   -1    0    0  501    0  0.00000000000E+00  0.00000000000E+00  0.19938955717E+04  0.19938955717E+04  0.00000000000E+00 0.  1.
         -2   -1    0    0    0  501 -0.00000000000E+00 -0.00000000000E+00 -0.27020112952E+04  0.27020112952E+04  0.00000000000E+00 0. -1.
         23    2    1    2    0    0 -0.43628280500E+03 -0.72854015329E+03 -0.25383473992E+04  0.26782692810E+04  0.93836993915E+02 0.  0.
         13    1    3    3    0    0 -0.15865509847E+03 -0.24630916722E+03 -0.10167173001E+04  0.10580896533E+04  0.00000000000E+00 0. -1.
        -13    1    3    3    0    0 -0.27762770652E+03 -0.48223098608E+03 -0.15216300991E+04  0.16201796277E+04  0.00000000000E+00 0.  1.
         22    1    1    2    0    0  0.43628280500E+03  0.72854015329E+03  0.18302316757E+04  0.20176375858E+04  0.00000000000E+00 0.  1.
<mgrwt>
<rscale>  0 0.46422100E+04</rscale>
<asrwt>0</asrwt>
<pdfrwt beam="1">  1        2 0.30675317E+00 0.46422100E+04</pdfrwt>
<pdfrwt beam="2">  1       -2 0.41569404E+00 0.46422100E+04</pdfrwt>
<totfact> 0.29543576E-02</totfact>
</mgrwt>
</event>
<event>
 6    1  0.2325157E-005  0.1315812E+04  0.7818608E-02  0.9017119E-01
          1   -1    0    0  501    0  0.00000000000E+00  0.00000000000E+00  0.21698607103E+04  0.21698607103E+04  0.00000000000E+00 0.  1.
         -1   -1    0    0    0  501 -0.00000000000E+00 -0.00000000000E+00 -0.19947843889E+03  0.19947843889E+03  0.00000000000E+00 0. -1.
         23    2    1    2    0    0 -0.26317310448E+03  0.59923429167E+03  0.95682774694E+03  0.11628423223E+04  0.91329677542E+02 0.  0.
         11    1    3    3    0    0  0.28942526373E+01  0.54502298672E+02  0.78136722487E+02  0.95311199027E+02  0.00000000000E+00 0.  1.
        -11    1    3    3    0    0 -0.26606735712E+03  0.54473199300E+03  0.87869102445E+03  0.10675311233E+04  0.00000000000E+00 0. -1.
         22    1    1    2    0    0  0.26317310448E+03 -0.59923429167E+03  0.10135545245E+04  0.12064968269E+04  0.00000000000E+00 0. -1.
<mgrwt>
<rscale>  0 0.13158122E+04</rscale>
<asrwt>0</asrwt>
<pdfrwt beam="1">  1        1 0.33382471E+00 0.13158122E+04</pdfrwt>
<pdfrwt beam="2">  1       -1 0.30688992E-01 0.13158122E+04</pdfrwt>
<totfact> 0.22022460E+01</totfact>
</mgrwt>
</event>
<event>
 6    1  0.2325157E-005  0.2260472E+04  0.7818608E-02  0.8493672E-01
          2   -1    0    0  501    0  0.00000000000E+00  0.00000000000E+00  0.22114621683E+04  0.22114621683E+04  0.00000000000E+00 0.  1.
         -2   -1    0    0    0  501 -0.00000000000E+00 -0.00000000000E+00 -0.57764191699E+03  0.57764191699E+03  0.00000000000E+00 0. -1.
         23    2    1    2    0    0 -0.65678989264E+03  0.81029714995E+03  0.28707339272E+03  0.10856718044E+04  0.91201424593E+02 0.  0.
         11    1    3    3    0    0 -0.32342452060E+03  0.43254290678E+03  0.10661522931E+03  0.55051211963E+03  0.00000000000E+00 0. -1.
        -11    1    3    3    0    0 -0.33336537203E+03  0.37775424317E+03  0.18045816341E+03  0.53515968481E+03  0.00000000000E+00 0.  1.
         22    1    1    2    0    0  0.65678989264E+03 -0.81029714995E+03  0.13467468585E+04  0.17034322808E+04  0.00000000000E+00 0.  1.
<mgrwt>
<rscale>  0 0.22604719E+04</rscale>
<asrwt>0</asrwt>
<pdfrwt beam="1">  1        2 0.34022495E+00 0.22604719E+04</pdfrwt>
<pdfrwt beam="2">  1       -2 0.88867988E-01 0.22604719E+04</pdfrwt>
<totfact> 0.50344818E+00</totfact>
</mgrwt>
</event>
<event>
 6    1  0.2325157E-005  0.3180156E+04  0.7818608E-02  0.8194078E-01
         -2   -1    0    0    0  501 -0.00000000000E+00  0.00000000000E+00  0.15162926659E+04  0.15162926659E+04  0.00000000000E+00 0. -1.
          2   -1    0    0  501    0  0.00000000000E+00 -0.00000000000E+00 -0.16674541607E+04  0.16674541607E+04  0.00000000000E+00 0.  1.
         23    2    1    2    0    0  0.10429934208E+04 -0.11453765414E+04 -0.42859462610E+03  0.16099959442E+04  0.93117610813E+02 0.  0.
         13    1    3    3    0    0  0.65927059640E+03 -0.65654743647E+03 -0.25234692714E+03  0.96403901750E+03  0.00000000000E+00 0. -1.
        -13    1    3    3    0    0  0.38372282443E+03 -0.48882910492E+03 -0.17624769897E+03  0.64595692674E+03  0.00000000000E+00 0.  1.
         22    1    1    2    0    0 -0.10429934208E+04  0.11453765414E+04  0.27743313125E+03  0.15737508824E+04  0.00000000000E+00 0.  1.
<mgrwt>
<rscale>  0 0.31801563E+04</rscale>
<asrwt>0</asrwt>
<pdfrwt beam="1">  1        2 0.25653141E+00 0.31801563E+04</pdfrwt>
<pdfrwt beam="2">  1       -2 0.23327579E+00 0.31801563E+04</pdfrwt>
<totfact> 0.70343935E-01</totfact>
</mgrwt>
</event>
<event>
 6    1  0.2325157E-005  0.2092191E+04  0.7818608E-02  0.8564691E-01
         -2   -1    0    0    0  501 -0.00000000000E+00  0.00000000000E+00  0.59660080046E+03  0.59660080046E+03  0.00000000000E+00 0. -1.
          2   -1    0    0  501    0  0.00000000000E+00 -0.00000000000E+00 -0.18342504904E+04  0.18342504904E+04  0.00000000000E+00 0.  1.
         23    2    1    2    0    0 -0.94730197173E+02 -0.84259216289E+03 -0.13281191705E+04  0.15781379216E+04  0.87655034549E+02 0.  0.
         13    1    3    3    0    0 -0.24332574042E+02 -0.56987085754E+03 -0.86706051255E+03  0.10378529765E+04  0.00000000000E+00 0.  1.
        -13    1    3    3    0    0 -0.70397623131E+02 -0.27272130534E+03 -0.46105865799E+03  0.54028494504E+03  0.00000000000E+00 0. -1.
         22    1    1    2    0    0  0.94730197173E+02  0.84259216289E+03  0.90469480624E+02  0.85271336927E+03  0.00000000000E+00 0. -1.
<mgrwt>
<rscale>  0 0.20921905E+04</rscale>
<asrwt>0</asrwt>
<pdfrwt beam="1">  1        2 0.28219238E+00 0.20921905E+04</pdfrwt>
<pdfrwt beam="2">  1       -2 0.91784738E-01 0.20921905E+04</pdfrwt>
<totfact> 0.76907797E+00</totfact>
</mgrwt>
</event>
<event>
 6    1  0.2325157E-005  0.2224775E+04  0.7818608E-02  0.8508186E-01
          2   -1    0    0  501    0  0.00000000000E+00  0.00000000000E+00  0.14561078297E+04  0.14561078297E+04  0.00000000000E+00 0. -1.
         -2   -1    0    0    0  501 -0.00000000000E+00 -0.00000000000E+00 -0.84980407542E+03  0.84980407542E+03  0.00000000000E+00 0.  1.
         23    2    1    2    0    0 -0.62592627134E+03 -0.73312173451E+03 -0.26778037320E+03  0.10046531927E+04  0.91490625488E+02 0.  0.
         13    1    3    3    0    0 -0.48673231503E+03 -0.58828882806E+03 -0.17475779698E+03  0.78328307739E+03  0.00000000000E+00 0. -1.
        -13    1    3    3    0    0 -0.13919395631E+03 -0.14483290645E+03 -0.93022576223E+02  0.22137011531E+03  0.00000000000E+00 0.  1.
         22    1    1    2    0    0  0.62592627134E+03  0.73312173451E+03  0.87408412752E+03  0.13012587125E+04  0.00000000000E+00 0. -1.
<mgrwt>
<rscale>  0 0.22247754E+04</rscale>
<asrwt>0</asrwt>
<pdfrwt beam="1">  1        2 0.22401659E+00 0.22247754E+04</pdfrwt>
<pdfrwt beam="2">  1       -2 0.13073909E+00 0.22247754E+04</pdfrwt>
<totfact> 0.52502247E+00</totfact>
</mgrwt>
</event>
<event>
 6    1  0.2325157E-005  0.2899341E+04  0.7818608E-02  0.8273074E-01
         -2   -1    0    0    0  501 -0.00000000000E+00  0.00000000000E+00  0.17211255746E+04  0.17211255746E+04  0.00000000000E+00 0. -1.
          2   -1    0    0  501    0  0.00000000000E+00 -0.00000000000E+00 -0.12210289350E+04  0.12210289350E+04  0.00000000000E+00 0.  1.
         23    2    1    2    0    0  0.13803125361E+04 -0.14136567964E+03 -0.17116948590E+03  0.14007768258E+04  0.87348555403E+02 0.  0.
         11    1    3    3    0    0  0.85184928466E+03 -0.92242935724E+02 -0.63137524115E+02  0.85915208777E+03  0.00000000000E+00 0. -1.
        -11    1    3    3    0    0  0.52846325147E+03 -0.49122743912E+02 -0.10803196178E+03  0.54162473807E+03  0.00000000000E+00 0.  1.
         22    1    1    2    0    0 -0.13803125361E+04  0.14136567964E+03  0.67126612553E+03  0.15413776838E+04  0.00000000000E+00 0. -1.
<mgrwt>
<rscale>  0 0.28993407E+04</rscale>
<asrwt>0</asrwt>
<pdfrwt beam="1">  1        2 0.18785061E+00 0.28993407E+04</pdfrwt>
<pdfrwt beam="2">  1       -2 0.26478855E+00 0.28993407E+04</pdfrwt>
<totfact> 0.82833007E-01</totfact>
</mgrwt>
</event>
<event>
 6    1  0.2325157E-005  0.1171442E+04  0.7818608E-02  0.9138227E-01
          2   -1    0    0  501    0  0.00000000000E+00  0.00000000000E+00  0.93325086000E+03  0.93325086000E+03  0.00000000000E+00 0.  1.
         -2   -1    0    0    0  501 -0.00000000000E+00 -0.00000000000E+00 -0.36760674144E+03  0.36760674144E+03  0.00000000000E+00 0. -1.
         23    2    1    2    0    0 -0.46307303279E+03 -0.34506620874E+03  0.20359052771E+03  0.61924911796E+03  0.92266163986E+02 0.  0.
         11    1    3    3    0    0 -0.28905856338E+03 -0.26307604749E+03  0.11463832863E+03  0.40731536457E+03  0.00000000000E+00 0.  1.
        -11    1    3    3    0    0 -0.17401446941E+03 -0.81990161248E+02  0.88952199081E+02  0.21193375339E+03  0.00000000000E+00 0. -1.
         22    1    1    2    0    0  0.46307303279E+03  0.34506620874E+03  0.36205359084E+03  0.68160848348E+03  0.00000000000E+00 0.  1.
<mgrwt>
<rscale>  0 0.11714424E+04</rscale>
<asrwt>0</asrwt>
<pdfrwt beam="1">  1        2 0.14357705E+00 0.11714424E+04</pdfrwt>
<pdfrwt beam="2">  1       -2 0.56554884E-01 0.11714424E+04</pdfrwt>
<totfact> 0.80769029E+01</totfact>
</mgrwt>
</event>
<event>
 6    1  0.2325157E-005  0.1531716E+04  0.7818608E-02  0.8863632E-01
         -2   -1    0    0    0  501 -0.00000000000E+00  0.00000000000E+00  0.54950804506E+03  0.54950804506E+03  0.00000000000E+00 0. -1.
          2   -1    0    0  501    0  0.00000000000E+00 -0.00000000000E+00 -0.10673889816E+04  0.10673889816E+04  0.00000000000E+00 0.  1.
         23    2    1    2    0    0  0.54619883066E+03  0.48400061613E+03 -0.23661409973E+02  0.73551022199E+03  0.88462790487E+02 0.  0.
         11    1    3    3    0    0  0.13366765692E+03  0.14950875641E+03 -0.38464471778E+02  0.20420437395E+03  0.00000000000E+00 0. -1.
        -11    1    3    3    0    0  0.41253117374E+03  0.33449185972E+03  0.14803061805E+02  0.53130584804E+03  0.00000000000E+00 0.  1.
         22    1    1    2    0    0 -0.54619883066E+03 -0.48400061613E+03 -0.49421952659E+03  0.88138680469E+03  0.00000000000E+00 0.  1.
<mgrwt>
<rscale>  0 0.15317165E+04</rscale>
<asrwt>0</asrwt>
<pdfrwt beam="1">  1        2 0.16421369E+00 0.15317165E+04</pdfrwt>
<pdfrwt beam="2">  1       -2 0.84539700E-01 0.15317165E+04</pdfrwt>
<totfact> 0.26847596E+01</totfact>
</mgrwt>
</event>
<event>
 6    1  0.2325157E-005  0.2804308E+04  0.7818608E-02  0.8301932E-01
         -2   -1    0    0    0  501 -0.00000000000E+00  0.00000000000E+00  0.51947998883E+03  0.51947998883E+03  0.00000000000E+00 0. -1.
          2   -1    0    0  501    0  0.00000000000E+00 -0.00000000000E+00 -0.37846219266E+04  0.37846219266E+04  0.00000000000E+00 0.  1.
         23    2    1    2    0    0  0.12860583719E+04  0.51436972860E+03 -0.19536741612E+04  0.23966245020E+04  0.91890814895E+02 0.  0.
         13    1    3    3    0    0  0.35297483979E+03  0.17720831908E+03 -0.59921775412E+03  0.71767398081E+03  0.00000000000E+00 0. -1.
        -13    1    3    3    0    0  0.93308353214E+03  0.33716140952E+03 -0.13544564071E+04  0.16789505212E+04  0.00000000000E+00 0.  1.
         22    1    1    2    0    0 -0.12860583719E+04 -0.51436972860E+03 -0.13114677766E+04  0.19074774134E+04  0.00000000000E+00 0.  1.
<mgrwt>
<rscale>  0 0.28043077E+04</rscale>
<asrwt>0</asrwt>
<pdfrwt beam="1">  1        2 0.58224952E+00 0.28043077E+04</pdfrwt>
<pdfrwt beam="2">  1       -2 0.79919999E-01 0.28043077E+04</pdfrwt>
<totfact> 0.60812404E-01</totfact>
</mgrwt>
</event>
<event>
 6    1  0.2325157E-005  0.1451258E+04  0.7818608E-02  0.8917529E-01
          1   -1    0    0  501    0  0.00000000000E+00  0.00000000000E+00  0.34267094617E+04  0.34267094617E+04  0.00000000000E+00 0.  1.
         -1   -1    0    0    0  501 -0.00000000000E+00 -0.00000000000E+00 -0.15365684746E+03  0.15365684746E+03  0.00000000000E+00 0. -1.
         23    2    1    2    0    0 -0.26236412886E+03 -0.34523185473E+03  0.30695189529E+04  0.31013611725E+04  0.92057322580E+02 0.  0.
         11    1    3    3    0    0 -0.55291612410E+01 -0.23658726162E+02  0.35403072950E+03  0.35486344469E+03  0.00000000000E+00 0.  1.
        -11    1    3    3    0    0 -0.25683496762E+03 -0.32157312857E+03  0.27154882234E+04  0.27464977278E+04  0.00000000000E+00 0. -1.
         22    1    1    2    0    0  0.26236412886E+03  0.34523185473E+03  0.20353366137E+03  0.47900513666E+03  0.00000000000E+00 0. -1.
<mgrwt>
<rscale>  0 0.14512579E+04</rscale>
<asrwt>0</asrwt>
<pdfrwt beam="1">  1        1 0.52718602E+00 0.14512579E+04</pdfrwt>
<pdfrwt beam="2">  1       -1 0.23639517E-01 0.14512579E+04</pdfrwt>
<totfact> 0.43217249E+00</totfact>
</mgrwt>
</event>
<event>
 6    1  0.2325157E-005  0.5357784E+03  0.7818608E-02  0.1004840E+00
         -2   -1    0    0    0  501 -0.00000000000E+00  0.00000000000E+00  0.25764370486E+02  0.25764370486E+02  0.00000000000E+00 0. -1.
          2   -1    0    0  501    0  0.00000000000E+00 -0.00000000000E+00 -0.27854208180E+04  0.27854208180E+04  0.00000000000E+00 0.  1.
         23    2    1    2    0    0  0.18501208461E+02  0.10373868541E+03 -0.26675224827E+04  0.26712113444E+04  0.92681395039E+02 0.  0.
         11    1    3    3    0    0 -0.34543367245E+02  0.21185201716E+02 -0.98108040075E+03  0.98191690571E+03  0.00000000000E+00 0. -1.
        -11    1    3    3    0    0  0.53044575706E+02  0.82553483690E+02 -0.16864420820E+04  0.16892944387E+04  0.00000000000E+00 0.  1.
         22    1    1    2    0    0 -0.18501208461E+02 -0.10373868541E+03 -0.92133964801E+02  0.13997384411E+03  0.00000000000E+00 0. -1.
<mgrwt>
<rscale>  0 0.53577836E+03</rscale>
<asrwt>0</asrwt>
<pdfrwt beam="1">  1        2 0.42852620E+00 0.53577836E+03</pdfrwt>
<pdfrwt beam="2">  1       -2 0.39637501E-02 0.53577836E+03</pdfrwt>
<totfact> 0.74581558E+02</totfact>
</mgrwt>
</event>
<event>
 6    1  0.2325157E-005  0.1137742E+04  0.7818608E-02  0.9169167E-01
          2   -1    0    0  501    0  0.00000000000E+00  0.00000000000E+00  0.30129166608E+04  0.30129166608E+04  0.00000000000E+00 0.  1.
         -2   -1    0    0    0  501 -0.00000000000E+00 -0.00000000000E+00 -0.10740901317E+03  0.10740901317E+03  0.00000000000E+00 0. -1.
         23    2    1    2    0    0 -0.17983462524E+03  0.80026343678E+02  0.29152166194E+04  0.29232496169E+04  0.90308785218E+02 0.  0.
         11    1    3    3    0    0 -0.66104780940E+02  0.78045327620E+02  0.12776735011E+04  0.12817606995E+04  0.00000000000E+00 0.  1.
        -11    1    3    3    0    0 -0.11372984430E+03  0.19810160578E+01  0.16375431183E+04  0.16414889174E+04  0.00000000000E+00 0. -1.
         22    1    1    2    0    0  0.17983462524E+03 -0.80026343678E+02 -0.97089717957E+01  0.19707605702E+03  0.00000000000E+00 0. -1.
<mgrwt>
<rscale>  0 0.11377423E+04</rscale>
<asrwt>0</asrwt>
<pdfrwt beam="1">  1        2 0.46352558E+00 0.11377423E+04</pdfrwt>
<pdfrwt beam="2">  1       -2 0.16524466E-01 0.11377423E+04</pdfrwt>
<totfact> 0.51285625E+01</totfact>
</mgrwt>
</event>
<event>
 6    1  0.2325157E-005  0.2177746E+04  0.7818608E-02  0.8527748E-01
         -2   -1    0    0    0  501 -0.00000000000E+00  0.00000000000E+00  0.33872808590E+03  0.33872808590E+03  0.00000000000E+00 0. -1.
          2   -1    0    0  501    0  0.00000000000E+00 -0.00000000000E+00 -0.35002828209E+04  0.35002828209E+04  0.00000000000E+00 0.  1.
         23    2    1    2    0    0 -0.64365477539E+03  0.61868725161E+03 -0.26762983525E+04  0.28228715749E+04  0.94687228850E+02 0.  0.
         11    1    3    3    0    0 -0.40615609355E+03  0.36529166652E+03 -0.14997781334E+04  0.15961626557E+04  0.00000000000E+00 0. -1.
        -11    1    3    3    0    0 -0.23749868183E+03  0.25339558509E+03 -0.11765202192E+04  0.12267089192E+04  0.00000000000E+00 0.  1.
         22    1    1    2    0    0  0.64365477539E+03 -0.61868725161E+03 -0.48525638248E+03  0.10161393319E+04  0.00000000000E+00 0. -1.
<mgrwt>
<rscale>  0 0.21777457E+04</rscale>
<asrwt>0</asrwt>
<pdfrwt beam="1">  1        2 0.53850505E+00 0.21777457E+04</pdfrwt>
<pdfrwt beam="2">  1       -2 0.52112013E-01 0.21777457E+04</pdfrwt>
<totfact> 0.25964768E+00</totfact>
</mgrwt>
</event>
<event>
 6    1  0.2325157E-005  0.2754447E+04  0.7818608E-02  0.8317552E-01
         -2   -1    0    0    0  501 -0.00000000000E+00  0.00000000000E+00  0.66794094244E+03  0.66794094244E+03  0.00000000000E+00 0. -1.
          2   -1    0    0  501    0  0.00000000000E+00 -0.00000000000E+00 -0.28396891893E+04  0.28396891893E+04  0.00000000000E+00 0.  1.
         23    2    1    2    0    0  0.10308810352E+04  0.90555028009E+03 -0.96180161112E+03  0.16782291697E+04  0.93025740117E+02 0.  0.
         13    1    3    3    0    0  0.64561922155E+03  0.61833082379E+03 -0.65231915030E+03  0.11066514631E+04  0.00000000000E+00 0.  1.
        -13    1    3    3    0    0  0.38526181367E+03  0.28721945630E+03 -0.30948246082E+03  0.57157770662E+03  0.00000000000E+00 0. -1.
         22    1    1    2    0    0 -0.10308810352E+04 -0.90555028009E+03 -0.12099466357E+04  0.18294009620E+04  0.00000000000E+00 0.  1.
<mgrwt>
<rscale>  0 0.27544471E+04</rscale>
<asrwt>0</asrwt>
<pdfrwt beam="1">  1        2 0.43687526E+00 0.27544471E+04</pdfrwt>
<pdfrwt beam="2">  1       -2 0.10276015E+00 0.27544471E+04</pdfrwt>
<totfact> 0.14784197E+00</totfact>
</mgrwt>
</event>
<event>
 6    1  0.2325157E-005  0.1552748E+04  0.7818608E-02  0.8850114E-01
         -2   -1    0    0    0  501 -0.00000000000E+00  0.00000000000E+00  0.26429979953E+03  0.26429979953E+03  0.00000000000E+00 0. -1.
          2   -1    0    0  501    0  0.00000000000E+00 -0.00000000000E+00 -0.22805792697E+04  0.22805792697E+04  0.00000000000E+00 0.  1.
         23    2    1    2    0    0 -0.98674209874E+02  0.76220512910E+03 -0.86617990649E+03  0.11616139953E+04  0.91576116039E+02 0.  0.
         13    1    3    3    0    0 -0.32832108078E+02  0.46545582748E+03 -0.57704711610E+03  0.74209867865E+03  0.00000000000E+00 0. -1.
        -13    1    3    3    0    0 -0.65842101796E+02  0.29674930163E+03 -0.28913279039E+03  0.41951531660E+03  0.00000000000E+00 0.  1.
         22    1    1    2    0    0  0.98674209874E+02 -0.76220512910E+03 -0.11500995637E+04  0.13832650740E+04  0.00000000000E+00 0. -1.
<mgrwt>
<rscale>  0 0.15527481E+04</rscale>
<asrwt>0</asrwt>
<pdfrwt beam="1">  1        2 0.35085835E+00 0.15527481E+04</pdfrwt>
<pdfrwt beam="2">  1       -2 0.40661508E-01 0.15527481E+04</pdfrwt>
<totfact> 0.25660046E+01</totfact>
</mgrwt>
</event>
<event>
 6    1  0.2325157E-005  0.9351842E+03  0.7818608E-02  0.9382638E-01
          2   -1    0    0  501    0  0.00000000000E+00  0.00000000000E+00  0.28916942025E+04  0.28916942025E+04  0.00000000000E+00 0.  1.
         -2   -1    0    0    0  501 -0.00000000000E+00 -0.00000000000E+00 -0.75610468813E+02  0.75610468813E+02  0.00000000000E+00 0. -1.
         23    2    1    2    0    0  0.37054325260E+03 -0.27764195036E+03  0.14165461229E+04  0.14931632674E+04  0.92446039574E+02 0.  0.
         11    1    3    3    0    0  0.36387283937E+03 -0.25512482720E+03  0.12885589068E+04  0.13630393160E+04  0.00000000000E+00 0. -1.
        -11    1    3    3    0    0  0.66704132329E+01 -0.22517123162E+02  0.12798721606E+03  0.13012395138E+03  0.00000000000E+00 0.  1.
         22    1    1    2    0    0 -0.37054325260E+03  0.27764195036E+03  0.13995376108E+04  0.14741414039E+04  0.00000000000E+00 0. -1.
<mgrwt>
<rscale>  0 0.93518416E+03</rscale>
<asrwt>0</asrwt>
<pdfrwt beam="1">  1        2 0.44487595E+00 0.93518416E+03</pdfrwt>
<pdfrwt beam="2">  1       -2 0.11632382E-01 0.93518416E+03</pdfrwt>
<totfact> 0.11217437E+02</totfact>
</mgrwt>
</event>
<event>
 6    1  0.2325157E-005  0.1191545E+04  0.7818608E-02  0.9120290E-01
         -2   -1    0    0    0  501 -0.00000000000E+00  0.00000000000E+00  0.30890060237E+03  0.30890060237E+03  0.00000000000E+00 0. -1.
          2   -1    0    0  501    0  0.00000000000E+00 -0.00000000000E+00 -0.11490583334E+04  0.11490583334E+04  0.00000000000E+00 0.  1.
         23    2    1    2    0    0  0.44221162511E+03 -0.11776915166E+03 -0.87934681645E+03  0.99865894786E+03  0.12102964962E+03 0.  0.
         11    1    3    3    0    0  0.10502418428E+03  0.23490789168E+01 -0.29776622393E+03  0.31575357729E+03  0.00000000000E+00 0.  1.
        -11    1    3    3    0    0  0.33718744083E+03 -0.12011823058E+03 -0.58158059251E+03  0.68290537057E+03  0.00000000000E+00 0. -1.
         22    1    1    2    0    0 -0.44221162511E+03  0.11776915166E+03  0.39189085433E+02  0.45929998789E+03  0.00000000000E+00 0. -1.
<mgrwt>
<rscale>  0 0.11915449E+04</rscale>
<asrwt>0</asrwt>
<pdfrwt beam="1">  1        2 0.17677821E+00 0.11915449E+04</pdfrwt>
<pdfrwt beam="2">  1       -2 0.47523169E-01 0.11915449E+04</pdfrwt>
<totfact> 0.84187754E+01</totfact>
</mgrwt>
</event>
<event>
 6    1  0.2325157E-005  0.2255243E+04  0.7818608E-02  0.8495780E-01
          2   -1    0    0  501    0  0.00000000000E+00  0.00000000000E+00  0.15570281296E+04  0.15570281296E+04  0.00000000000E+00 0.  1.
         -2   -1    0    0    0  501 -0.00000000000E+00 -0.00000000000E+00 -0.81663909678E+03  0.81663909678E+03  0.00000000000E+00 0. -1.
         23    2    1    2    0    0 -0.20271899007E+03  0.10801352646E+03  0.15307503378E+04  0.15506041042E+04  0.91731021442E+02 0.  0.
         13    1    3    3    0    0 -0.64553733460E+02  0.85834295372E+02  0.65984750836E+03  0.66853081085E+03  0.00000000000E+00 0.  1.
        -13    1    3    3    0    0 -0.13816525661E+03  0.22179231085E+02  0.87090282946E+03  0.88207329332E+03  0.00000000000E+00 0. -1.
         22    1    1    2    0    0  0.20271899007E+03 -0.10801352646E+03 -0.79036130497E+03  0.82306312226E+03  0.00000000000E+00 0. -1.
<mgrwt>
<rscale>  0 0.22552428E+04</rscale>
<asrwt>0</asrwt>
<pdfrwt beam="1">  1        2 0.23954279E+00 0.22552428E+04</pdfrwt>
<pdfrwt beam="2">  1       -2 0.12563678E+00 0.22552428E+04</pdfrwt>
<totfact> 0.50787380E+00</totfact>
</mgrwt>
</event>
<event>
 6    1  0.2325157E-005  0.5970594E+03  0.7818608E-02  0.9911526E-01
         -2   -1    0    0    0  501 -0.00000000000E+00  0.00000000000E+00  0.19001586878E+03  0.19001586878E+03  0.00000000000E+00 0. -1.
          2   -1    0    0  501    0  0.00000000000E+00 -0.00000000000E+00 -0.46901342998E+03  0.46901342998E+03  0.00000000000E+00 0.  1.
         23    2    1    2    0    0  0.49741978232E+02  0.26116761723E+03 -0.27505600462E+03  0.39313773335E+03  0.90656952410E+02 0.  0.
         11    1    3    3    0    0  0.52772176411E+02  0.67855225949E+02 -0.10459811448E+03  0.13538832980E+03  0.00000000000E+00 0.  1.
        -11    1    3    3    0    0 -0.30301981784E+01  0.19331239128E+03 -0.17045789014E+03  0.25774940356E+03  0.00000000000E+00 0. -1.
         22    1    1    2    0    0 -0.49741978232E+02 -0.26116761723E+03 -0.39415565715E+01  0.26589156541E+03  0.00000000000E+00 0. -1.
<mgrwt>
<rscale>  0 0.59705944E+03</rscale>
<asrwt>0</asrwt>
<pdfrwt beam="1">  1        2 0.72155912E-01 0.59705944E+03</pdfrwt>
<pdfrwt beam="2">  1       -2 0.29233211E-01 0.59705944E+03</pdfrwt>
<totfact> 0.71728802E+02</totfact>
</mgrwt>
</event>
<event>
 6    1  0.2325157E-005  0.2090593E+04  0.7818608E-02  0.8565399E-01
         -2   -1    0    0    0  501 -0.00000000000E+00  0.00000000000E+00  0.88240548237E+03  0.88240548237E+03  0.00000000000E+00 0. -1.
          2   -1    0    0  501    0  0.00000000000E+00 -0.00000000000E+00 -0.12382567808E+04  0.12382567808E+04  0.00000000000E+00 0.  1.
         23    2    1    2    0    0 -0.53641590223E+03  0.80969529143E+03  0.20803714106E+03  0.99757782411E+03  0.92377367140E+02 0.  0.
         13    1    3    3    0    0 -0.42402978802E+03  0.61081794867E+03  0.12219647514E+03  0.75354615391E+03  0.00000000000E+00 0.  1.
        -13    1    3    3    0    0 -0.11238611422E+03  0.19887734276E+03  0.85840665919E+02  0.24403167020E+03  0.00000000000E+00 0. -1.
         22    1    1    2    0    0  0.53641590223E+03 -0.80969529143E+03 -0.56388843953E+03  0.11230844391E+04  0.00000000000E+00 0.  1.
<mgrwt>
<rscale>  0 0.20905928E+04</rscale>
<asrwt>0</asrwt>
<pdfrwt beam="1">  1        2 0.19050104E+00 0.20905928E+04</pdfrwt>
<pdfrwt beam="2">  1       -2 0.13575469E+00 0.20905928E+04</pdfrwt>
<totfact> 0.64475697E+00</totfact>
</mgrwt>
</event>
<event>
 6    1  0.2325157E-005  0.1920988E+04  0.7818608E-02  0.8644479E-01
         -2   -1    0    0    0  501 -0.00000000000E+00  0.00000000000E+00  0.78856073575E+03  0.78856073575E+03  0.00000000000E+00 0. -1.
          2   -1    0    0  501    0  0.00000000000E+00 -0.00000000000E+00 -0.11699144439E+04  0.11699144439E+04  0.00000000000E+00 0.  1.
         23    2    1    2    0    0  0.34237903189E+02  0.21265716635E+03  0.76096775618E+03  0.79602361839E+03  0.90478564735E+02 0.  0.
         11    1    3    3    0    0  0.41267744732E+02  0.13913204283E+03  0.35718310931E+03  0.38553926606E+03  0.00000000000E+00 0. -1.
        -11    1    3    3    0    0 -0.70298415433E+01  0.73525123517E+02  0.40378464687E+03  0.41048435233E+03  0.00000000000E+00 0.  1.
         22    1    1    2    0    0 -0.34237903189E+02 -0.21265716635E+03 -0.11423214644E+04  0.11624515613E+04  0.00000000000E+00 0.  1.
<mgrwt>
<rscale>  0 0.19209879E+04</rscale>
<asrwt>0</asrwt>
<pdfrwt beam="1">  1        2 0.17998684E+00 0.19209879E+04</pdfrwt>
<pdfrwt beam="2">  1       -2 0.12131704E+00 0.19209879E+04</pdfrwt>
<totfact> 0.95420755E+00</totfact>
</mgrwt>
</event>
<event>
 6    1  0.2325157E-005  0.2906854E+04  0.7818608E-02  0.8270841E-01
         -1   -1    0    0    0  501 -0.00000000000E+00  0.00000000000E+00  0.11025093841E+04  0.11025093841E+04  0.00000000000E+00 0.  1.
          1   -1    0    0  501    0  0.00000000000E+00 -0.00000000000E+00 -0.19160379143E+04  0.19160379143E+04  0.00000000000E+00 0. -1.
         23    2    1    2    0    0  0.10683406889E+04  0.65850654035E+03 -0.11656833612E+04  0.17150919995E+04  0.87978275425E+02 0.  0.
         11    1    3    3    0    0  0.57463747043E+03  0.35408024391E+03 -0.56692538396E+03  0.88146777169E+03  0.00000000000E+00 0. -1.
        -11    1    3    3    0    0  0.49370321846E+03  0.30442629643E+03 -0.59875797724E+03  0.83362422781E+03  0.00000000000E+00 0.  1.
         22    1    1    2    0    0 -0.10683406889E+04 -0.65850654035E+03  0.35215483099E+03  0.13034552989E+04  0.00000000000E+00 0.  1.
<mgrwt>
<rscale>  0 0.29068538E+04</rscale>
<asrwt>0</asrwt>
<pdfrwt beam="1">  1        1 0.29477506E+00 0.29068538E+04</pdfrwt>
<pdfrwt beam="2">  1       -1 0.16961683E+00 0.29068538E+04</pdfrwt>
<totfact> 0.72191037E-01</totfact>
</mgrwt>
</event>
<event>
 6    1  0.2325157E-005  0.1781159E+04  0.7818608E-02  0.8716384E-01
         -2   -1    0    0    0  501 -0.00000000000E+00  0.00000000000E+00  0.55040439804E+03  0.55040439804E+03  0.00000000000E+00 0.  1.
          2   -1    0    0  501    0  0.00000000000E+00 -0.00000000000E+00 -0.14409983641E+04  0.14409983641E+04  0.00000000000E+00 0. -1.
         23    2    1    2    0    0 -0.57889871982E+03 -0.47102389668E+03 -0.98454563286E+03  0.12391965705E+04  0.96388785650E+02 0.  0.
         11    1    3    3    0    0 -0.45174461579E+03 -0.40655254041E+03 -0.75846754949E+03  0.97192139067E+03  0.00000000000E+00 0.  1.
        -11    1    3    3    0    0 -0.12715410403E+03 -0.64471356265E+02 -0.22607808337E+03  0.26727517979E+03  0.00000000000E+00 0. -1.
         22    1    1    2    0    0  0.57889871982E+03  0.47102389668E+03  0.93951666824E+02  0.75220619165E+03  0.00000000000E+00 0.  1.
<mgrwt>
<rscale>  0 0.17811590E+04</rscale>
<asrwt>0</asrwt>
<pdfrwt beam="1">  1        2 0.22169205E+00 0.17811590E+04</pdfrwt>
<pdfrwt beam="2">  1       -2 0.84677600E-01 0.17811590E+04</pdfrwt>
<totfact> 0.15756249E+01</totfact>
</mgrwt>
</event>
<event>
 6    1  0.2325157E-005  0.3318891E+04  0.7818608E-02  0.8158105E-01
         -2   -1    0    0    0  501 -0.00000000000E+00  0.00000000000E+00  0.16542195390E+04  0.16542195390E+04  0.00000000000E+00 0.  1.
          2   -1    0    0  501    0  0.00000000000E+00 -0.00000000000E+00 -0.16646879690E+04  0.16646879690E+04  0.00000000000E+00 0. -1.
         23    2    1    2    0    0  0.67666130956E+03  0.13202348369E+04 -0.74614279345E+03  0.16629765549E+04  0.88720919432E+02 0.  0.
         11    1    3    3    0    0  0.20781010635E+03  0.34569159641E+03 -0.17107509538E+03  0.43812601885E+03  0.00000000000E+00 0. -1.
        -11    1    3    3    0    0  0.46885120320E+03  0.97454324045E+03 -0.57506769806E+03  0.12248505360E+04  0.00000000000E+00 0.  1.
         22    1    1    2    0    0 -0.67666130956E+03 -0.13202348369E+04  0.73567436351E+03  0.16559309531E+04  0.00000000000E+00 0.  1.
<mgrwt>
<rscale>  0 0.33188910E+04</rscale>
<asrwt>0</asrwt>
<pdfrwt beam="1">  1        2 0.25610584E+00 0.33188910E+04</pdfrwt>
<pdfrwt beam="2">  1       -2 0.25449531E+00 0.33188910E+04</pdfrwt>
<totfact> 0.51602090E-01</totfact>
</mgrwt>
</event>
<event>
 6    1  0.2325157E-005  0.1160533E+04  0.7818608E-02  0.9148121E-01
         -2   -1    0    0    0  501 -0.00000000000E+00  0.00000000000E+00  0.26658702681E+03  0.26658702681E+03  0.00000000000E+00 0. -1.
          2   -1    0    0  501    0  0.00000000000E+00 -0.00000000000E+00 -0.12630367092E+04  0.12630367092E+04  0.00000000000E+00 0.  1.
         23    2    1    2    0    0  0.21287649913E+02 -0.31260928699E+03 -0.11393978630E+04  0.11852229336E+04  0.91368385190E+02 0.  0.
         11    1    3    3    0    0  0.55760427363E+02 -0.20517879610E+03 -0.70067867570E+03  0.73222822277E+03  0.00000000000E+00 0. -1.
        -11    1    3    3    0    0 -0.34472777449E+02 -0.10743049090E+03 -0.43871918728E+03  0.45299471084E+03  0.00000000000E+00 0.  1.
         22    1    1    2    0    0 -0.21287649913E+02  0.31260928699E+03  0.14294818060E+03  0.34440080240E+03  0.00000000000E+00 0. -1.
<mgrwt>
<rscale>  0 0.11605330E+04</rscale>
<asrwt>0</asrwt>
<pdfrwt beam="1">  1        2 0.19431333E+00 0.11605330E+04</pdfrwt>
<pdfrwt beam="2">  1       -2 0.41013390E-01 0.11605330E+04</pdfrwt>
<totfact> 0.96725042E+01</totfact>
</mgrwt>
</event>
<event>
 6    1  0.2325157E-005  0.1662882E+04  0.7818608E-02  0.8782822E-01
          2   -1    0    0  501    0  0.00000000000E+00  0.00000000000E+00  0.70064883795E+03  0.70064883795E+03  0.00000000000E+00 0.  1.
         -2   -1    0    0    0  501 -0.00000000000E+00 -0.00000000000E+00 -0.98664881205E+03  0.98664881205E+03  0.00000000000E+00 0. -1.
         23    2    1    2    0    0 -0.62656262393E+03 -0.51204744265E+03 -0.32969339211E+03  0.87693821123E+03  0.74495558864E+02 0.  0.
         11    1    3    3    0    0 -0.13893254291E+03 -0.15531316685E+03 -0.87837210543E+02  0.22614112150E+03  0.00000000000E+00 0.  1.
        -11    1    3    3    0    0 -0.48763008102E+03 -0.35673427579E+03 -0.24185618156E+03  0.65079708973E+03  0.00000000000E+00 0. -1.
         22    1    1    2    0    0  0.62656262393E+03  0.51204744265E+03  0.43693418006E+02  0.81035943877E+03  0.00000000000E+00 0. -1.
<mgrwt>
<rscale>  0 0.16628822E+04</rscale>
<asrwt>0</asrwt>
<pdfrwt beam="1">  1        2 0.10779213E+00 0.16628822E+04</pdfrwt>
<pdfrwt beam="2">  1       -2 0.15179212E+00 0.16628822E+04</pdfrwt>
<totfact> 0.11331261E+01</totfact>
</mgrwt>
</event>
<event>
 6    1  0.2325157E-005  0.1901365E+04  0.7818608E-02  0.8654177E-01
          2   -1    0    0  501    0  0.00000000000E+00  0.00000000000E+00  0.22771310185E+04  0.22771310185E+04  0.00000000000E+00 0.  1.
         -2   -1    0    0    0  501 -0.00000000000E+00 -0.00000000000E+00 -0.39690182236E+03  0.39690182236E+03  0.00000000000E+00 0. -1.
         23    2    1    2    0    0 -0.75364576006E+03 -0.18098866366E+03  0.17365836249E+03  0.79970020274E+03  0.92867429026E+02 0.  0.
         11    1    3    3    0    0 -0.32248463467E+03 -0.56429565185E+02  0.11546907096E+03  0.34715089194E+03  0.00000000000E+00 0. -1.
        -11    1    3    3    0    0 -0.43116112539E+03 -0.12455909848E+03  0.58189291528E+02  0.45254931080E+03  0.00000000000E+00 0.  1.
         22    1    1    2    0    0  0.75364576006E+03  0.18098866366E+03  0.17065708336E+04  0.18743326381E+04  0.00000000000E+00 0.  1.
<mgrwt>
<rscale>  0 0.19013652E+04</rscale>
<asrwt>0</asrwt>
<pdfrwt beam="1">  1        2 0.35032784E+00 0.19013652E+04</pdfrwt>
<pdfrwt beam="2">  1       -2 0.61061820E-01 0.19013652E+04</pdfrwt>
<totfact> 0.10918201E+01</totfact>
</mgrwt>
</event>
<event>
 6    1  0.2325157E-005  0.4184785E+04  0.7818608E-02  0.7968273E-01
         -2   -1    0    0    0  501 -0.00000000000E+00  0.00000000000E+00  0.22460222265E+04  0.22460222265E+04  0.00000000000E+00 0. -1.
          2   -1    0    0  501    0  0.00000000000E+00 -0.00000000000E+00 -0.19492710481E+04  0.19492710481E+04  0.00000000000E+00 0.  1.
         23    2    1    2    0    0 -0.13366166893E+04 -0.96306948598E+03  0.14401263682E+04  0.21899619221E+04  0.89007049652E+02 0.  0.
         11    1    3    3    0    0 -0.75896666822E+03 -0.55462995635E+03  0.76353783164E+03  0.12110469901E+04  0.00000000000E+00 0. -1.
        -11    1    3    3    0    0 -0.57765002106E+03 -0.40843952963E+03  0.67658853658E+03  0.97891493197E+03  0.00000000000E+00 0.  1.
         22    1    1    2    0    0  0.13366166893E+04  0.96306948598E+03 -0.11433751898E+04  0.20053313526E+04  0.00000000000E+00 0.  1.
<mgrwt>
<rscale>  0 0.41847849E+04</rscale>
<asrwt>0</asrwt>
<pdfrwt beam="1">  1        2 0.29988785E+00 0.41847849E+04</pdfrwt>
<pdfrwt beam="2">  1       -2 0.34554188E+00 0.41847849E+04</pdfrwt>
<totfact> 0.91957269E-02</totfact>
</mgrwt>
</event>
<event>
 6    1  0.2325157E-005  0.4029840E+04  0.7818608E-02  0.7998554E-01
          2   -1    0    0  501    0  0.00000000000E+00  0.00000000000E+00  0.31879131210E+04  0.31879131210E+04  0.00000000000E+00 0.  1.
         -2   -1    0    0    0  501 -0.00000000000E+00 -0.00000000000E+00 -0.12735298537E+04  0.12735298537E+04  0.00000000000E+00 0. -1.
         23    2    1    2    0    0 -0.16662617957E+04  0.10700511479E+04  0.55189977776E+03  0.20577376912E+04  0.90847182043E+02 0.  0.
         13    1    3    3    0    0 -0.12792296913E+04  0.85036511934E+03  0.39750572810E+03  0.15866821494E+04  0.00000000000E+00 0.  1.
        -13    1    3    3    0    0 -0.38703210439E+03  0.21968602854E+03  0.15439404965E+03  0.47105554188E+03  0.00000000000E+00 0. -1.
         22    1    1    2    0    0  0.16662617957E+04 -0.10700511479E+04  0.13624834895E+04  0.24037052835E+04  0.00000000000E+00 0.  1.
<mgrwt>
<rscale>  0 0.40298400E+04</rscale>
<asrwt>0</asrwt>
<pdfrwt beam="1">  1        2 0.49044817E+00 0.40298400E+04</pdfrwt>
<pdfrwt beam="2">  1       -2 0.19592767E+00 0.40298400E+04</pdfrwt>
<totfact> 0.14690294E-01</totfact>
</mgrwt>
</event>
<event>
 6    1  0.2325157E-005  0.1147114E+04  0.7818608E-02  0.9160450E-01
         -2   -1    0    0    0  501 -0.00000000000E+00  0.00000000000E+00  0.35756212461E+03  0.35756212461E+03  0.00000000000E+00 0. -1.
          2   -1    0    0  501    0  0.00000000000E+00 -0.00000000000E+00 -0.92002939842E+03  0.92002939842E+03  0.00000000000E+00 0.  1.
         23    2    1    2    0    0 -0.10844453850E+03 -0.48085629538E+03 -0.60168288714E+03  0.78310101850E+03  0.90784986459E+02 0.  0.
         13    1    3    3    0    0  0.12704863277E+02 -0.50763138619E+02 -0.86929301873E+02  0.10146434505E+03  0.00000000000E+00 0. -1.
        -13    1    3    3    0    0 -0.12114940178E+03 -0.43009315676E+03 -0.51475358527E+03  0.68163667345E+03  0.00000000000E+00 0.  1.
         22    1    1    2    0    0  0.10844453850E+03  0.48085629538E+03  0.39215613326E+02  0.49449050453E+03  0.00000000000E+00 0. -1.
<mgrwt>
<rscale>  0 0.11471141E+04</rscale>
<asrwt>0</asrwt>
<pdfrwt beam="1">  1        2 0.14154298E+00 0.11471141E+04</pdfrwt>
<pdfrwt beam="2">  1       -2 0.55009559E-01 0.11471141E+04</pdfrwt>
<totfact> 0.87464964E+01</totfact>
</mgrwt>
</event>
<event>
 6    1  0.2325157E-005  0.4189336E+04  0.7818608E-02  0.7967404E-01
          2   -1    0    0  501    0  0.00000000000E+00  0.00000000000E+00  0.33046068848E+04  0.33046068848E+04  0.00000000000E+00 0.  1.
         -2   -1    0    0    0  501 -0.00000000000E+00 -0.00000000000E+00 -0.13277322975E+04  0.13277322975E+04  0.00000000000E+00 0. -1.
         23    2    1    2    0    0 -0.12614477046E+04  0.16264783833E+04  0.14121436078E+04  0.24979532467E+04  0.94544226069E+02 0.  0.
         13    1    3    3    0    0 -0.98094507626E+03  0.13065270469E+04  0.10853374934E+04  0.19614340778E+04  0.00000000000E+00 0.  1.
        -13    1    3    3    0    0 -0.28050262832E+03  0.31995133644E+03  0.32680611434E+03  0.53651916886E+03  0.00000000000E+00 0. -1.
         22    1    1    2    0    0  0.12614477046E+04 -0.16264783833E+04  0.56473097958E+03  0.21343859356E+04  0.00000000000E+00 0. -1.
<mgrwt>
<rscale>  0 0.41893356E+04</rscale>
<asrwt>0</asrwt>
<pdfrwt beam="1">  1        2 0.50840106E+00 0.41893356E+04</pdfrwt>
<pdfrwt beam="2">  1       -2 0.20426651E+00 0.41893356E+04</pdfrwt>
<totfact> 0.10703615E-01</totfact>
</mgrwt>
</event>
<event>
 6    1  0.2325157E-005  0.1673053E+04  0.7818608E-02  0.8776884E-01
         -1   -1    0    0    0  501 -0.00000000000E+00  0.00000000000E+00  0.73800747574E+03  0.73800747574E+03  0.00000000000E+00 0. -1.
          1   -1    0    0  501    0  0.00000000000E+00 -0.00000000000E+00 -0.94819729011E+03  0.94819729011E+03  0.00000000000E+00 0.  1.
         23    2    1    2    0    0 -0.14414721314E+03 -0.81627091036E+03 -0.12382443845E+02  0.83402850826E+03  0.91507428728E+02 0.  0.
         13    1    3    3    0    0 -0.11050453813E+03 -0.53005959098E+03  0.32228940807E+02  0.54241416608E+03  0.00000000000E+00 0. -1.
        -13    1    3    3    0    0 -0.33642675010E+02 -0.28621131938E+03 -0.44611384652E+02  0.29161434218E+03  0.00000000000E+00 0.  1.
         22    1    1    2    0    0  0.14414721314E+03  0.81627091036E+03 -0.19780737053E+03  0.85217625759E+03  0.00000000000E+00 0. -1.
<mgrwt>
<rscale>  0 0.16730531E+04</rscale>
<asrwt>0</asrwt>
<pdfrwt beam="1">  1        1 0.14587651E+00 0.16730531E+04</pdfrwt>
<pdfrwt beam="2">  1       -1 0.11353961E+00 0.16730531E+04</pdfrwt>
<totfact> 0.11228332E+01</totfact>
</mgrwt>
</event>
<event>
 6    1  0.2325157E-005  0.6264694E+03  0.7818608E-02  0.9851963E-01
          2   -1    0    0  501    0  0.00000000000E+00  0.00000000000E+00  0.40208802708E+03  0.40208802708E+03  0.00000000000E+00 0.  1.
         -2   -1    0    0    0  501 -0.00000000000E+00 -0.00000000000E+00 -0.24401615835E+03  0.24401615835E+03  0.00000000000E+00 0. -1.
         23    2    1    2    0    0 -0.13274558261E+03  0.35183058575E+01  0.36544471378E+03  0.39985783512E+03  0.93288162707E+02 0.  0.
         13    1    3    3    0    0 -0.12853740818E+03 -0.12498909741E+00  0.22366440130E+03  0.25796830296E+03  0.00000000000E+00 0.  1.
        -13    1    3    3    0    0 -0.42081744293E+01  0.36432949549E+01  0.14178031248E+03  0.14188953217E+03  0.00000000000E+00 0. -1.
         22    1    1    2    0    0  0.13274558261E+03 -0.35183058575E+01 -0.20737284505E+03  0.24624635031E+03  0.00000000000E+00 0. -1.
<mgrwt>
<rscale>  0 0.62646939E+03</rscale>
<asrwt>0</asrwt>
<pdfrwt beam="1">  1        2 0.61859696E-01 0.62646939E+03</pdfrwt>
<pdfrwt beam="2">  1       -2 0.37540947E-01 0.62646939E+03</pdfrwt>
<totfact> 0.53306407E+02</totfact>
</mgrwt>
</event>
<event>
 6    1  0.2325157E-005  0.1433663E+04  0.7818608E-02  0.8929806E-01
         -2   -1    0    0    0  501 -0.00000000000E+00  0.00000000000E+00  0.68770881860E+03  0.68770881860E+03  0.00000000000E+00 0. -1.
          2   -1    0    0  501    0  0.00000000000E+00 -0.00000000000E+00 -0.74718747111E+03  0.74718747111E+03  0.00000000000E+00 0.  1.
         23    2    1    2    0    0 -0.14607769091E+03 -0.16212982088E+03 -0.71003922327E+03  0.74870839500E+03  0.93721884113E+02 0.  0.
         13    1    3    3    0    0 -0.79869561996E+01 -0.67221950276E+02 -0.16051873875E+03  0.17420920630E+03  0.00000000000E+00 0.  1.
        -13    1    3    3    0    0 -0.13809073471E+03 -0.94907870606E+02 -0.54952048452E+03  0.57449918870E+03  0.00000000000E+00 0. -1.
         22    1    1    2    0    0  0.14607769091E+03  0.16212982088E+03  0.65056057077E+03  0.68618789470E+03  0.00000000000E+00 0. -1.
<mgrwt>
<rscale>  0 0.14336630E+04</rscale>
<asrwt>0</asrwt>
<pdfrwt beam="1">  1        2 0.11495192E+00 0.14336630E+04</pdfrwt>
<pdfrwt beam="2">  1       -2 0.10580136E+00 0.14336630E+04</pdfrwt>
<totfact> 0.26411978E+01</totfact>
</mgrwt>
</event>
<event>
 6    1  0.2325157E-005  0.2124977E+04  0.7818608E-02  0.8550320E-01
          2   -1    0    0  501    0  0.00000000000E+00  0.00000000000E+00  0.71761426238E+03  0.71761426238E+03  0.00000000000E+00 0.  1.
         -2   -1    0    0    0  501 -0.00000000000E+00 -0.00000000000E+00 -0.15731041377E+04  0.15731041377E+04  0.00000000000E+00 0. -1.
         23    2    1    2    0    0 -0.61465880298E+03 -0.47168634646E+03 -0.12091362467E+04  0.14390381728E+04  0.92341465246E+02 0.  0.
         13    1    3    3    0    0 -0.13456607263E+03 -0.10924375830E+03 -0.20443423424E+03  0.26802160875E+03  0.00000000000E+00 0. -1.
        -13    1    3    3    0    0 -0.48009273035E+03 -0.36244258816E+03 -0.10047020125E+04  0.11710165641E+04  0.00000000000E+00 0.  1.
         22    1    1    2    0    0  0.61465880298E+03  0.47168634646E+03  0.35364637138E+03  0.85168022726E+03  0.00000000000E+00 0.  1.
<mgrwt>
<rscale>  0 0.21249771E+04</rscale>
<asrwt>0</asrwt>
<pdfrwt beam="1">  1        2 0.11040220E+00 0.21249771E+04</pdfrwt>
<pdfrwt beam="2">  1       -2 0.24201602E+00 0.21249771E+04</pdfrwt>
<totfact> 0.26269391E+00</totfact>
</mgrwt>
</event>
<event>
 6    1  0.2325157E-005  0.2036829E+04  0.7818608E-02  0.8589593E-01
          2   -1    0    0  501    0  0.00000000000E+00  0.00000000000E+00  0.20981299103E+04  0.20981299103E+04  0.00000000000E+00 0.  1.
         -2   -1    0    0    0  501 -0.00000000000E+00 -0.00000000000E+00 -0.49432989251E+03  0.49432989251E+03  0.00000000000E+00 0. -1.
         23    2    1    2    0    0 -0.26435169585E+03 -0.89713700002E+03  0.13122771045E+04  0.16128056675E+04  0.65835446708E+02 0.  0.
         13    1    3    3    0    0 -0.18944903384E+03 -0.53833629845E+03  0.77734749319E+03  0.96434746425E+03  0.00000000000E+00 0.  1.
        -13    1    3    3    0    0 -0.74902662008E+02 -0.35880070157E+03  0.53492961136E+03  0.64845820322E+03  0.00000000000E+00 0. -1.
         22    1    1    2    0    0  0.26435169585E+03  0.89713700002E+03  0.29152291322E+03  0.97965413531E+03  0.00000000000E+00 0. -1.
<mgrwt>
<rscale>  0 0.20368292E+04</rscale>
<asrwt>0</asrwt>
<pdfrwt beam="1">  1        2 0.32278921E+00 0.20368292E+04</pdfrwt>
<pdfrwt beam="2">  1       -2 0.76050754E-01 0.20368292E+04</pdfrwt>
<totfact> 0.84461546E+00</totfact>
</mgrwt>
</event>
<event>
 6    1  0.2325157E-005  0.2424566E+04  0.7818608E-02  0.8430363E-01
         -2   -1    0    0    0  501 -0.00000000000E+00  0.00000000000E+00  0.13090746912E+04  0.13090746912E+04  0.00000000000E+00 0. -1.
          2   -1    0    0  501    0  0.00000000000E+00 -0.00000000000E+00 -0.11226479295E+04  0.11226479295E+04  0.00000000000E+00 0.  1.
         23    2    1    2    0    0  0.36948235297E+02  0.41823119186E+03  0.12321163646E+04  0.13048911126E+04  0.91365080318E+02 0.  0.
         11    1    3    3    0    0  0.64392743472E+02  0.21982843744E+03  0.68273764314E+03  0.72014002575E+03  0.00000000000E+00 0.  1.
        -11    1    3    3    0    0 -0.27444508175E+02  0.19840275441E+03  0.54937872148E+03  0.58475108688E+03  0.00000000000E+00 0. -1.
         22    1    1    2    0    0 -0.36948235297E+02 -0.41823119186E+03 -0.10456896029E+04  0.11268315081E+04  0.00000000000E+00 0.  1.
<mgrwt>
<rscale>  0 0.24245659E+04</rscale>
<asrwt>0</asrwt>
<pdfrwt beam="1">  1        2 0.17271507E+00 0.24245659E+04</pdfrwt>
<pdfrwt beam="2">  1       -2 0.20139611E+00 0.24245659E+04</pdfrwt>
<totfact> 0.24653877E+00</totfact>
</mgrwt>
</event>
<event>
 6    1  0.2325157E-005  0.1578566E+04  0.7818608E-02  0.8833825E-01
         -2   -1    0    0    0  501 -0.00000000000E+00  0.00000000000E+00  0.57934446478E+03  0.57934446478E+03  0.00000000000E+00 0. -1.
          2   -1    0    0  501    0  0.00000000000E+00 -0.00000000000E+00 -0.10752980409E+04  0.10752980409E+04  0.00000000000E+00 0.  1.
         23    2    1    2    0    0 -0.15774154119E+03 -0.67683730367E+03  0.13748967559E+03  0.71430135343E+03  0.91279149654E+02 0.  0.
         13    1    3    3    0    0 -0.95268680406E+02 -0.22057675585E+03  0.54291203848E+02  0.24632856412E+03  0.00000000000E+00 0.  1.
        -13    1    3    3    0    0 -0.62472860784E+02 -0.45626054782E+03  0.83198471745E+02  0.46797278931E+03  0.00000000000E+00 0. -1.
         22    1    1    2    0    0  0.15774154119E+03  0.67683730367E+03 -0.63344325170E+03  0.94034115223E+03  0.00000000000E+00 0.  1.
<mgrwt>
<rscale>  0 0.15785664E+04</rscale>
<asrwt>0</asrwt>
<pdfrwt beam="1">  1        2 0.16543046E+00 0.15785664E+04</pdfrwt>
<pdfrwt beam="2">  1       -2 0.89129919E-01 0.15785664E+04</pdfrwt>
<totfact> 0.23433201E+01</totfact>
</mgrwt>
</event>
<event>
 6    1  0.2325157E-005  0.1345899E+04  0.7818608E-02  0.8993939E-01
          2   -1    0    0  501    0  0.00000000000E+00  0.00000000000E+00  0.13837028892E+04  0.13837028892E+04  0.00000000000E+00 0.  1.
         -2   -1    0    0    0  501 -0.00000000000E+00 -0.00000000000E+00 -0.32728179550E+03  0.32728179550E+03  0.00000000000E+00 0. -1.
         23    2    1    2    0    0  0.40206975586E+03  0.12780007747E+03  0.11923757592E+04  0.12677278523E+04  0.85912793300E+02 0.  0.
         11    1    3    3    0    0  0.17516296119E+03  0.17820653028E+02  0.55619665193E+03  0.58339896663E+03  0.00000000000E+00 0. -1.
        -11    1    3    3    0    0  0.22690679468E+03  0.10997942445E+03  0.63617910728E+03  0.68432888571E+03  0.00000000000E+00 0.  1.
         22    1    1    2    0    0 -0.40206975586E+03 -0.12780007747E+03 -0.13595466549E+03  0.44325683238E+03  0.00000000000E+00 0. -1.
<mgrwt>
<rscale>  0 0.13458986E+04</rscale>
<asrwt>0</asrwt>
<pdfrwt beam="1">  1        2 0.21287737E+00 0.13458986E+04</pdfrwt>
<pdfrwt beam="2">  1       -2 0.50351046E-01 0.13458986E+04</pdfrwt>
<totfact> 0.53878719E+01</totfact>
</mgrwt>
</event>
<event>
 6    1  0.2325157E-005  0.5917940E+04  0.7818608E-02  0.7700660E-01
          2   -1    0    0  501    0  0.00000000000E+00  0.00000000000E+00  0.25632027092E+04  0.25632027092E+04  0.00000000000E+00 0.  1.
         -2   -1    0    0    0  501 -0.00000000000E+00 -0.00000000000E+00 -0.34158455961E+04  0.34158455961E+04  0.00000000000E+00 0. -1.
         23    2    1    2    0    0 -0.26133258912E+04  0.27293368643E+03  0.94682055675E+03  0.27943923276E+04  0.90522388220E+02 0.  0.
         13    1    3    3    0    0 -0.91349194264E+03  0.10759668294E+03  0.28753951342E+03  0.96370303892E+03  0.00000000000E+00 0. -1.
        -13    1    3    3    0    0 -0.16998339486E+04  0.16533700349E+03  0.65928104332E+03  0.18306892887E+04  0.00000000000E+00 0.  1.
         22    1    1    2    0    0  0.26133258912E+04 -0.27293368643E+03 -0.17994634436E+04  0.31846559777E+04  0.00000000000E+00 0. -1.
<mgrwt>
<rscale>  0 0.59179404E+04</rscale>
<asrwt>0</asrwt>
<pdfrwt beam="1">  1        2 0.39433888E+00 0.59179404E+04</pdfrwt>
<pdfrwt beam="2">  1       -2 0.52551470E+00 0.59179404E+04</pdfrwt>
<totfact> 0.25519137E-03</totfact>
</mgrwt>
</event>
<event>
 6    1  0.2325157E-005  0.2943033E+04  0.7818608E-02  0.8260188E-01
          2   -1    0    0  501    0  0.00000000000E+00  0.00000000000E+00  0.21019371952E+04  0.21019371952E+04  0.00000000000E+00 0.  1.
         -2   -1    0    0    0  501 -0.00000000000E+00 -0.00000000000E+00 -0.10301741177E+04  0.10301741177E+04  0.00000000000E+00 0. -1.
         23    2    1    2    0    0  0.10703155690E+04 -0.59112738857E+03 -0.33270881687E+03  0.12699758966E+04  0.84478484155E+02 0.  0.
         13    1    3    3    0    0  0.63446139942E+03 -0.30329084674E+03 -0.19777621015E+03  0.73050806592E+03  0.00000000000E+00 0. -1.
        -13    1    3    3    0    0  0.43585416962E+03 -0.28783654184E+03 -0.13493260672E+03  0.53946783069E+03  0.00000000000E+00 0.  1.
         22    1    1    2    0    0 -0.10703155690E+04  0.59112738857E+03  0.14044718944E+04  0.18621354164E+04  0.00000000000E+00 0.  1.
<mgrwt>
<rscale>  0 0.29430333E+04</rscale>
<asrwt>0</asrwt>
<pdfrwt beam="1">  1        2 0.32337495E+00 0.29430333E+04</pdfrwt>
<pdfrwt beam="2">  1       -2 0.15848833E+00 0.29430333E+04</pdfrwt>
<totfact> 0.13030066E+00</totfact>
</mgrwt>
</event>
<event>
 6    1  0.2325157E-005  0.2829616E+04  0.7818608E-02  0.8294132E-01
          2   -1    0    0  501    0  0.00000000000E+00  0.00000000000E+00  0.10959860065E+04  0.10959860065E+04  0.00000000000E+00 0.  1.
         -2   -1    0    0    0  501 -0.00000000000E+00 -0.00000000000E+00 -0.18263748409E+04  0.18263748409E+04  0.00000000000E+00 0. -1.
         23    2    1    2    0    0  0.66155298539E+03 -0.84636261161E+03 -0.13139834963E+04  0.16998369203E+04  0.94397586970E+02 0.  0.
         13    1    3    3    0    0  0.17232630519E+03 -0.26970126135E+03 -0.44016619186E+03  0.54422550683E+03  0.00000000000E+00 0. -1.
        -13    1    3    3    0    0  0.48922668020E+03 -0.57666135026E+03 -0.87381730441E+03  0.11556114135E+04  0.00000000000E+00 0.  1.
         22    1    1    2    0    0 -0.66155298539E+03  0.84636261161E+03  0.58359466189E+03  0.12225239270E+04  0.00000000000E+00 0.  1.
<mgrwt>
<rscale>  0 0.28296157E+04</rscale>
<asrwt>0</asrwt>
<pdfrwt beam="1">  1        2 0.16861323E+00 0.28296157E+04</pdfrwt>
<pdfrwt beam="2">  1       -2 0.28098075E+00 0.28296157E+04</pdfrwt>
<totfact> 0.78999424E-01</totfact>
</mgrwt>
</event>
<event>
 6    1  0.2325157E-005  0.2301843E+04  0.7818608E-02  0.8477195E-01
          2   -1    0    0  501    0  0.00000000000E+00  0.00000000000E+00  0.35112899214E+04  0.35112899214E+04  0.00000000000E+00 0.  1.
         -2   -1    0    0    0  501 -0.00000000000E+00 -0.00000000000E+00 -0.37724594886E+03  0.37724594886E+03  0.00000000000E+00 0. -1.
         23    2    1    2    0    0  0.11137651142E+04 -0.36309385009E+02  0.10954710990E+04  0.15652686748E+04  0.90653153947E+02 0.  0.
         13    1    3    3    0    0  0.66990747728E+03 -0.30470957919E+01  0.71389953254E+03  0.97899839401E+03  0.00000000000E+00 0. -1.
        -13    1    3    3    0    0  0.44385763693E+03 -0.33262289217E+02  0.38157156648E+03  0.58627028075E+03  0.00000000000E+00 0.  1.
         22    1    1    2    0    0 -0.11137651142E+04  0.36309385009E+02  0.20385728735E+04  0.23232671955E+04  0.00000000000E+00 0.  1.
<mgrwt>
<rscale>  0 0.23018427E+04</rscale>
<asrwt>0</asrwt>
<pdfrwt beam="1">  1        2 0.54019843E+00 0.23018427E+04</pdfrwt>
<pdfrwt beam="2">  1       -2 0.58037841E-01 0.23018427E+04</pdfrwt>
<totfact> 0.20158564E+00</totfact>
</mgrwt>
</event>
<event>
 6    1  0.2325157E-005  0.3156873E+04  0.7818608E-02  0.8200301E-01
         -2   -1    0    0    0  501 -0.00000000000E+00  0.00000000000E+00  0.13126123966E+04  0.13126123966E+04  0.00000000000E+00 0. -1.
          2   -1    0    0  501    0  0.00000000000E+00 -0.00000000000E+00 -0.18980937937E+04  0.18980937937E+04  0.00000000000E+00 0.  1.
         23    2    1    2    0    0 -0.47661391615E+01 -0.61975657883E+03  0.11820187341E+04  0.13376932040E+04  0.90188065505E+02 0.  0.
         13    1    3    3    0    0  0.41551835539E+01 -0.22019643516E+03  0.51485471414E+03  0.55998134994E+03  0.00000000000E+00 0.  1.
        -13    1    3    3    0    0 -0.89213227153E+01 -0.39956014367E+03  0.66716402000E+03  0.77771185409E+03  0.00000000000E+00 0. -1.
         22    1    1    2    0    0  0.47661391615E+01  0.61975657883E+03 -0.17675001312E+04  0.18730129863E+04  0.00000000000E+00 0.  1.
<mgrwt>
<rscale>  0 0.31568728E+04</rscale>
<asrwt>0</asrwt>
<pdfrwt beam="1">  1        2 0.29201443E+00 0.31568728E+04</pdfrwt>
<pdfrwt beam="2">  1       -2 0.20194037E+00 0.31568728E+04</pdfrwt>
<totfact> 0.83090347E-01</totfact>
</mgrwt>
</event>
<event>
 6    1  0.2325157E-005  0.1708200E+04  0.7818608E-02  0.8756701E-01
         -2   -1    0    0    0  501 -0.00000000000E+00  0.00000000000E+00  0.39123071197E+03  0.39123071197E+03  0.00000000000E+00 0. -1.
          2   -1    0    0  501    0  0.00000000000E+00 -0.00000000000E+00 -0.18645946773E+04  0.18645946773E+04  0.00000000000E+00 0.  1.
         23    2    1    2    0    0 -0.68135580236E+03  0.25618407358E+03 -0.13224682002E+04  0.15124240570E+04  0.92889065975E+02 0.  0.
         13    1    3    3    0    0 -0.41918047286E+03  0.19361243454E+03 -0.77295113953E+03  0.90036187599E+03  0.00000000000E+00 0. -1.
        -13    1    3    3    0    0 -0.26217532950E+03  0.62571639039E+02 -0.54951706068E+03  0.61206218099E+03  0.00000000000E+00 0.  1.
         22    1    1    2    0    0  0.68135580236E+03 -0.25618407358E+03 -0.15089576516E+03  0.74340133233E+03  0.00000000000E+00 0. -1.
<mgrwt>
<rscale>  0 0.17081999E+04</rscale>
<asrwt>0</asrwt>
<pdfrwt beam="1">  1        2 0.28686072E+00 0.17081999E+04</pdfrwt>
<pdfrwt beam="2">  1       -2 0.60189340E-01 0.17081999E+04</pdfrwt>
<totfact> 0.19436444E+01</totfact>
</mgrwt>
</event>
<event>
 6    1  0.2325157E-005  0.9577373E+03  0.7818608E-02  0.9356152E-01
          2   -1    0    0  501    0  0.00000000000E+00  0.00000000000E+00  0.52136065360E+03  0.52136065360E+03  0.00000000000E+00 0.  1.
         -2   -1    0    0    0  501 -0.00000000000E+00 -0.00000000000E+00 -0.43983986203E+03  0.43983986203E+03  0.00000000000E+00 0. -1.
         23    2    1    2    0    0  0.28605252507E+03 -0.24909655112E+03 -0.24500933891E+03  0.46070369746E+03  0.91341019398E+02 0.  0.
         13    1    3    3    0    0  0.26890405617E+02 -0.14772722736E+02  0.49909159847E+01  0.31084344833E+02  0.00000000000E+00 0.  1.
        -13    1    3    3    0    0  0.25916211945E+03 -0.23432382839E+03 -0.25000025489E+03  0.42961935263E+03  0.00000000000E+00 0. -1.
         22    1    1    2    0    0 -0.28605252507E+03  0.24909655112E+03  0.32653013048E+03  0.50049681817E+03  0.00000000000E+00 0.  1.
<mgrwt>
<rscale>  0 0.95773733E+03</rscale>
<asrwt>0</asrwt>
<pdfrwt beam="1">  1        2 0.80209332E-01 0.95773733E+03</pdfrwt>
<pdfrwt beam="2">  1       -2 0.67667671E-01 0.95773733E+03</pdfrwt>
<totfact> 0.11751372E+02</totfact>
</mgrwt>
</event>
<event>
 6    1  0.2325157E-005  0.3931482E+04  0.7818608E-02  0.8018513E-01
          2   -1    0    0  501    0  0.00000000000E+00  0.00000000000E+00  0.23976585990E+04  0.23976585990E+04  0.00000000000E+00 0.  1.
         -2   -1    0    0    0  501 -0.00000000000E+00 -0.00000000000E+00 -0.16116294646E+04  0.16116294646E+04  0.00000000000E+00 0. -1.
         23    2    1    2    0    0  0.52779373179E+03 -0.10460521139E+03 -0.15337113020E+04  0.16279640272E+04  0.92130572772E+02 0.  0.
         11    1    3    3    0    0  0.46199293679E+03 -0.79132696536E+02 -0.14058083711E+04  0.14818895484E+04  0.00000000000E+00 0. -1.
        -11    1    3    3    0    0  0.65800794995E+02 -0.25472514858E+02 -0.12790293087E+03  0.14607447881E+03  0.00000000000E+00 0.  1.
         22    1    1    2    0    0 -0.52779373179E+03  0.10460521139E+03  0.23197404364E+04  0.23813240363E+04  0.00000000000E+00 0.  1.
<mgrwt>
<rscale>  0 0.39314818E+04</rscale>
<asrwt>0</asrwt>
<pdfrwt beam="1">  1        2 0.36887055E+00 0.39314818E+04</pdfrwt>
<pdfrwt beam="2">  1       -2 0.24794300E+00 0.39314818E+04</pdfrwt>
<totfact> 0.20930846E-01</totfact>
</mgrwt>
</event>
<event>
 6    1  0.2325157E-005  0.8119765E+03  0.7818608E-02  0.9542842E-01
         -2   -1    0    0    0  501 -0.00000000000E+00  0.00000000000E+00  0.98828063033E+02  0.98828063033E+02  0.00000000000E+00 0. -1.
          2   -1    0    0  501    0  0.00000000000E+00 -0.00000000000E+00 -0.16678101825E+04  0.16678101825E+04  0.00000000000E+00 0.  1.
         23    2    1    2    0    0 -0.69749963381E+02 -0.12126975151E+02 -0.16528460660E+04  0.16568872435E+04  0.91449980956E+02 0.  0.
         11    1    3    3    0    0 -0.90014590324E+02  0.27685529087E+01 -0.13484767622E+04  0.13514806213E+04  0.00000000000E+00 0.  1.
        -11    1    3    3    0    0  0.20264626942E+02 -0.14895528060E+02 -0.30436930375E+03  0.30540662227E+03  0.00000000000E+00 0. -1.
         22    1    1    2    0    0  0.69749963381E+02  0.12126975151E+02  0.83863946510E+02  0.10975100201E+03  0.00000000000E+00 0. -1.
<mgrwt>
<rscale>  0 0.81197648E+03</rscale>
<asrwt>0</asrwt>
<pdfrwt beam="1">  1        2 0.25658617E+00 0.81197648E+03</pdfrwt>
<pdfrwt beam="2">  1       -2 0.15204318E-01 0.81197648E+03</pdfrwt>
<totfact> 0.35411856E+02</totfact>
</mgrwt>
</event>
<event>
 6    1  0.2325157E-005  0.2212504E+04  0.7818608E-02  0.8513242E-01
          2   -1    0    0  501    0  0.00000000000E+00  0.00000000000E+00  0.17487112246E+04  0.17487112246E+04  0.00000000000E+00 0.  1.
         -2   -1    0    0    0  501 -0.00000000000E+00 -0.00000000000E+00 -0.69982576507E+03  0.69982576507E+03  0.00000000000E+00 0. -1.
         23    2    1    2    0    0  0.66209396820E+03 -0.88402880832E+03  0.54906426219E+03  0.12362265567E+04  0.83121469574E+02 0.  0.
         13    1    3    3    0    0  0.35623912335E+03 -0.50310571759E+03  0.34842492536E+03  0.70811129400E+03  0.00000000000E+00 0. -1.
        -13    1    3    3    0    0  0.30585484485E+03 -0.38092309073E+03  0.20063933683E+03  0.52811526266E+03  0.00000000000E+00 0.  1.
         22    1    1    2    0    0 -0.66209396820E+03  0.88402880832E+03  0.49982119733E+03  0.12123104330E+04  0.00000000000E+00 0.  1.
<mgrwt>
<rscale>  0 0.22125037E+04</rscale>
<asrwt>0</asrwt>
<pdfrwt beam="1">  1        2 0.26903250E+00 0.22125037E+04</pdfrwt>
<pdfrwt beam="2">  1       -2 0.10766550E+00 0.22125037E+04</pdfrwt>
<totfact> 0.58223105E+00</totfact>
</mgrwt>
</event>
<event>
 6    1  0.2325157E-005  0.1969758E+04  0.7818608E-02  0.8620892E-01
         -2   -1    0    0    0  501 -0.00000000000E+00  0.00000000000E+00  0.68197012177E+03  0.68197012177E+03  0.00000000000E+00 0. -1.
          2   -1    0    0  501    0  0.00000000000E+00 -0.00000000000E+00 -0.14223297137E+04  0.14223297137E+04  0.00000000000E+00 0.  1.
         23    2    1    2    0    0  0.10780010017E+03 -0.29872864770E+03 -0.13644784394E+04  0.14040256018E+04  0.92880635489E+02 0.  0.
         11    1    3    3    0    0  0.53906312508E+02 -0.58207715689E+02 -0.23725315641E+03  0.25016612264E+03  0.00000000000E+00 0.  1.
        -11    1    3    3    0    0  0.53893787658E+02 -0.24052093201E+03 -0.11272252829E+04  0.11538594791E+04  0.00000000000E+00 0. -1.
         22    1    1    2    0    0 -0.10780010017E+03  0.29872864770E+03  0.62411884747E+03  0.70027423365E+03  0.00000000000E+00 0. -1.
<mgrwt>
<rscale>  0 0.19697577E+04</rscale>
<asrwt>0</asrwt>
<pdfrwt beam="1">  1        2 0.21881995E+00 0.19697577E+04</pdfrwt>
<pdfrwt beam="2">  1       -2 0.10491848E+00 0.19697577E+04</pdfrwt>
<totfact> 0.96389270E+00</totfact>
</mgrwt>
</event>
<event>
 6    1  0.2325157E-005  0.2181499E+04  0.7818608E-02  0.8526168E-01
          2   -1    0    0  501    0  0.00000000000E+00  0.00000000000E+00  0.18355792172E+04  0.18355792172E+04  0.00000000000E+00 0.  1.
         -2   -1    0    0    0  501 -0.00000000000E+00 -0.00000000000E+00 -0.64815230637E+03  0.64815230637E+03  0.00000000000E+00 0. -1.
         23    2    1    2    0    0 -0.52016389054E+03 -0.39536854339E+03 -0.39718088626E+03  0.76971033680E+03  0.88400158692E+02 0.  0.
         13    1    3    3    0    0 -0.11061703533E+03 -0.12621002197E+03 -0.79728209017E+02  0.18580012235E+03  0.00000000000E+00 0. -1.
        -13    1    3    3    0    0 -0.40954685520E+03 -0.26915852141E+03 -0.31745267724E+03  0.58391021446E+03  0.00000000000E+00 0.  1.
         22    1    1    2    0    0  0.52016389054E+03  0.39536854339E+03  0.15846077970E+04  0.17140211867E+04  0.00000000000E+00 0.  1.
<mgrwt>
<rscale>  0 0.21814994E+04</rscale>
<asrwt>0</asrwt>
<pdfrwt beam="1">  1        2 0.28239680E+00 0.21814994E+04</pdfrwt>
<pdfrwt beam="2">  1       -2 0.99715740E-01 0.21814994E+04</pdfrwt>
<totfact> 0.62767810E+00</totfact>
</mgrwt>
</event>
<event>
 6    1  0.2657713E-005  0.2998519E+04  0.7818608E-02  0.8244154E-01
         -2   -1    0    0    0  501 -0.00000000000E+00  0.00000000000E+00  0.12147360702E+04  0.12147360702E+04  0.00000000000E+00 0. -1.
          2   -1    0    0  501    0  0.00000000000E+00 -0.00000000000E+00 -0.18504257177E+04  0.18504257177E+04  0.00000000000E+00 0.  1.
         23    2    1    2    0    0 -0.13049099327E+04  0.98373250170E+02  0.42707083132E+03  0.13793601791E+04  0.88191722148E+02 0.  0.
         13    1    3    3    0    0 -0.10425173080E+04  0.75660979109E+02  0.37765206782E+03  0.11113901231E+04  0.00000000000E+00 0.  1.
        -13    1    3    3    0    0 -0.26239262465E+03  0.22712271061E+02  0.49418763496E+02  0.26797005600E+03  0.00000000000E+00 0. -1.
         22    1    1    2    0    0  0.13049099327E+04 -0.98373250170E+02 -0.10627604788E+04  0.16858016088E+04  0.00000000000E+00 0.  1.
<mgrwt>
<rscale>  0 0.29985189E+04</rscale>
<asrwt>0</asrwt>
<pdfrwt beam="1">  1        2 0.28468088E+00 0.29985189E+04</pdfrwt>
<pdfrwt beam="2">  1       -2 0.18688247E+00 0.29985189E+04</pdfrwt>
<totfact> 0.11269541E+00</totfact>
</mgrwt>
</event>
<event>
 6    1  0.2429983E-005  0.2750949E+04  0.7818608E-02  0.8318661E-01
         -2   -1    0    0    0  501 -0.00000000000E+00  0.00000000000E+00  0.17660564726E+04  0.17660564726E+04  0.00000000000E+00 0. -1.
          2   -1    0    0  501    0  0.00000000000E+00 -0.00000000000E+00 -0.10712739813E+04  0.10712739813E+04  0.00000000000E+00 0.  1.
         23    2    1    2    0    0 -0.23381026217E+03  0.47193690904E+02  0.17432420973E+04  0.17620807021E+04  0.95608095994E+02 0.  0.
         13    1    3    3    0    0 -0.12604184883E+03 -0.11431587080E+02  0.10988476287E+04  0.11061118117E+04  0.00000000000E+00 0. -1.
        -13    1    3    3    0    0 -0.10776841334E+03  0.58625277984E+02  0.64439446853E+03  0.65596889043E+03  0.00000000000E+00 0.  1.
         22    1    1    2    0    0  0.23381026217E+03 -0.47193690904E+02 -0.10484596060E+04  0.10752497517E+04  0.00000000000E+00 0.  1.
<mgrwt>
<rscale>  0 0.27509492E+04</rscale>
<asrwt>0</asrwt>
<pdfrwt beam="1">  1        2 0.16481138E+00 0.27509492E+04</pdfrwt>
<pdfrwt beam="2">  1       -2 0.27170100E+00 0.27509492E+04</pdfrwt>
<totfact> 0.93844339E-01</totfact>
</mgrwt>
</event>
<event>
 6    1  0.2325157E-005  0.2310457E+04  0.7818608E-02  0.8473809E-01
          2   -1    0    0  501    0  0.00000000000E+00  0.00000000000E+00  0.14491140756E+04  0.14491140756E+04  0.00000000000E+00 0.  1.
         -2   -1    0    0    0  501 -0.00000000000E+00 -0.00000000000E+00 -0.92094404832E+03  0.92094404832E+03  0.00000000000E+00 0. -1.
         23    2    1    2    0    0 -0.12963816289E+03 -0.79835890190E+03 -0.57882416755E+03  0.99906609735E+03  0.94406887631E+02 0.  0.
         11    1    3    3    0    0 -0.13472084927E+03 -0.56750616573E+03 -0.40688477599E+03  0.71117380176E+03  0.00000000000E+00 0. -1.
        -11    1    3    3    0    0  0.50826863856E+01 -0.23085273617E+03 -0.17193939155E+03  0.28789229560E+03  0.00000000000E+00 0.  1.
         22    1    1    2    0    0  0.12963816289E+03  0.79835890190E+03  0.11069941948E+04  0.13709920265E+04  0.00000000000E+00 0.  1.
<mgrwt>
<rscale>  0 0.23104571E+04</rscale>
<asrwt>0</asrwt>
<pdfrwt beam="1">  1        2 0.22294063E+00 0.23104571E+04</pdfrwt>
<pdfrwt beam="2">  1       -2 0.14168370E+00 0.23104571E+04</pdfrwt>
<totfact> 0.42789283E+00</totfact>
</mgrwt>
</event>
<event>
 6    1  0.2325157E-005  0.1632813E+04  0.7818608E-02  0.8800640E-01
          2   -1    0    0  501    0  0.00000000000E+00  0.00000000000E+00  0.19623570253E+04  0.19623570253E+04  0.00000000000E+00 0.  1.
         -2   -1    0    0    0  501 -0.00000000000E+00 -0.00000000000E+00 -0.33965250048E+03  0.33965250048E+03  0.00000000000E+00 0. -1.
         23    2    1    2    0    0 -0.29588374969E+03 -0.73356643684E+03  0.54357559616E+03  0.96403114208E+03  0.90635001885E+02 0.  0.
         13    1    3    3    0    0 -0.13346145285E+03 -0.40776547572E+03  0.25172579760E+03  0.49744398656E+03  0.00000000000E+00 0. -1.
        -13    1    3    3    0    0 -0.16242229684E+03 -0.32580096113E+03  0.29184979856E+03  0.46658715552E+03  0.00000000000E+00 0.  1.
         22    1    1    2    0    0  0.29588374969E+03  0.73356643684E+03  0.10791289287E+04  0.13379783837E+04  0.00000000000E+00 0.  1.
<mgrwt>
<rscale>  0 0.16328129E+04</rscale>
<asrwt>0</asrwt>
<pdfrwt beam="1">  1        2 0.30190107E+00 0.16328129E+04</pdfrwt>
<pdfrwt beam="2">  1       -2 0.52254232E-01 0.16328129E+04</pdfrwt>
<totfact> 0.23185943E+01</totfact>
</mgrwt>
</event>
<event>
 6    1  0.4757215E-005  0.2970061E+04  0.7818608E-02  0.8252332E-01
          2   -1    0    0  501    0  0.00000000000E+00  0.00000000000E+00  0.18739610582E+04  0.18739610582E+04  0.00000000000E+00 0.  1.
         -2   -1    0    0    0  501 -0.00000000000E+00 -0.00000000000E+00 -0.11768204383E+04  0.11768204383E+04  0.00000000000E+00 0. -1.
         23    2    1    2    0    0 -0.10314026278E+04 -0.30546204763E+03 -0.70062915368E+03  0.12870188189E+04  0.91857422108E+02 0.  0.
         11    1    3    3    0    0 -0.48409198442E+03 -0.10706270739E+03 -0.35777563986E+03  0.61140075333E+03  0.00000000000E+00 0. -1.
        -11    1    3    3    0    0 -0.54731064334E+03 -0.19839934024E+03 -0.34285351382E+03  0.67561806553E+03  0.00000000000E+00 0.  1.
         22    1    1    2    0    0  0.10314026278E+04  0.30546204763E+03  0.13977697735E+04  0.17637626776E+04  0.00000000000E+00 0.  1.
<mgrwt>
<rscale>  0 0.29700611E+04</rscale>
<asrwt>0</asrwt>
<pdfrwt beam="1">  1        2 0.28830170E+00 0.29700611E+04</pdfrwt>
<pdfrwt beam="2">  1       -2 0.18104930E+00 0.29700611E+04</pdfrwt>
<totfact> 0.12014734E+00</totfact>
</mgrwt>
</event>
<event>
 6    1  0.2325157E-005  0.8165891E+04  0.7818608E-02  0.7467853E-01
         -2   -1    0    0    0  501 -0.00000000000E+00  0.00000000000E+00  0.47742214400E+04  0.47742214400E+04  0.00000000000E+00 0. -1.
          2   -1    0    0  501    0  0.00000000000E+00 -0.00000000000E+00 -0.34917618576E+04  0.34917618576E+04  0.00000000000E+00 0.  1.
         23    2    1    2    0    0 -0.31890084208E+03  0.21364917921E+04  0.41478498055E+04  0.46775635821E+04  0.92995328056E+02 0.  0.
         11    1    3    3    0    0 -0.29215629681E+03  0.18998352544E+04  0.37481927320E+04  0.42123245425E+04  0.00000000000E+00 0.  1.
        -11    1    3    3    0    0 -0.26744545271E+02  0.23665653770E+03  0.39965707352E+03  0.46523903958E+03  0.00000000000E+00 0. -1.
         22    1    1    2    0    0  0.31890084208E+03 -0.21364917921E+04 -0.28653902230E+04  0.35884197155E+04  0.00000000000E+00 0.  1.
<mgrwt>
<rscale>  0 0.81658911E+04</rscale>
<asrwt>0</asrwt>
<pdfrwt beam="1">  1        2 0.53719413E+00 0.81658911E+04</pdfrwt>
<pdfrwt beam="2">  1       -2 0.73449561E+00 0.81658911E+04</pdfrwt>
<totfact> 0.80880905E-05</totfact>
</mgrwt>
</event>
<event>
 6    1  0.2325157E-005  0.1195662E+04  0.7818608E-02  0.9116662E-01
          2   -1    0    0  501    0  0.00000000000E+00  0.00000000000E+00  0.98275200911E+03  0.98275200911E+03  0.00000000000E+00 0.  1.
         -2   -1    0    0    0  501 -0.00000000000E+00 -0.00000000000E+00 -0.36367453814E+03  0.36367453814E+03  0.00000000000E+00 0. -1.
         23    2    1    2    0    0  0.35339828816E+03 -0.13472529891E+03 -0.20505656108E+03  0.43965305898E+03  0.90583457627E+02 0.  0.
         13    1    3    3    0    0  0.26513659214E+03 -0.79077174062E+02 -0.10755596825E+03  0.29684827481E+03  0.00000000000E+00 0. -1.
        -13    1    3    3    0    0  0.88261696018E+02 -0.55648124843E+02 -0.97500592827E+02  0.14280478418E+03  0.00000000000E+00 0.  1.
         22    1    1    2    0    0 -0.35339828816E+03  0.13472529891E+03  0.82413403205E+03  0.90677348826E+03  0.00000000000E+00 0.  1.
<mgrwt>
<rscale>  0 0.11956620E+04</rscale>
<asrwt>0</asrwt>
<pdfrwt beam="1">  1        2 0.15119262E+00 0.11956620E+04</pdfrwt>
<pdfrwt beam="2">  1       -2 0.55949930E-01 0.11956620E+04</pdfrwt>
<totfact> 0.76524198E+01</totfact>
</mgrwt>
</event>
<event>
 6    1  0.2325157E-005  0.2461824E+04  0.7818608E-02  0.8416713E-01
          2   -1    0    0  501    0  0.00000000000E+00  0.00000000000E+00  0.10301710834E+04  0.10301710834E+04  0.00000000000E+00 0.  1.
         -2   -1    0    0    0  501 -0.00000000000E+00 -0.00000000000E+00 -0.14707701357E+04  0.14707701357E+04  0.00000000000E+00 0. -1.
         23    2    1    2    0    0 -0.10058723422E+04  0.69072163504E+03 -0.68453790705E+02  0.12252580132E+04  0.87725319236E+02 0.  0.
         13    1    3    3    0    0 -0.57266633192E+03  0.39841505729E+03  0.41578557179E+01  0.69763785259E+03  0.00000000000E+00 0.  1.
        -13    1    3    3    0    0 -0.43320601025E+03  0.29230657775E+03 -0.72611646423E+02  0.52762016064E+03  0.00000000000E+00 0. -1.
         22    1    1    2    0    0  0.10058723422E+04 -0.69072163504E+03 -0.37214526159E+03  0.12756832058E+04  0.00000000000E+00 0. -1.
<mgrwt>
<rscale>  0 0.24618244E+04</rscale>
<asrwt>0</asrwt>
<pdfrwt beam="1">  1        2 0.15848786E+00 0.24618244E+04</pdfrwt>
<pdfrwt beam="2">  1       -2 0.22627233E+00 0.24618244E+04</pdfrwt>
<totfact> 0.19446788E+00</totfact>
</mgrwt>
</event>
<event>
 6    1  0.2325157E-005  0.1544537E+04  0.7818608E-02  0.8855365E-01
          2   -1    0    0  501    0  0.00000000000E+00  0.00000000000E+00  0.17369230157E+04  0.17369230157E+04  0.00000000000E+00 0.  1.
         -2   -1    0    0    0  501 -0.00000000000E+00 -0.00000000000E+00 -0.34336485707E+03  0.34336485707E+03  0.00000000000E+00 0. -1.
         23    2    1    2    0    0  0.57859399070E+03 -0.45490722814E+03  0.39631665609E+03  0.84085162727E+03  0.90845885486E+02 0.  0.
         11    1    3    3    0    0  0.16363865297E+03 -0.17233985217E+03  0.15591214664E+03  0.28423094635E+03  0.00000000000E+00 0. -1.
        -11    1    3    3    0    0  0.41495533773E+03 -0.28256737597E+03  0.24040450944E+03  0.55662068092E+03  0.00000000000E+00 0.  1.
         22    1    1    2    0    0 -0.57859399070E+03  0.45490722814E+03  0.99724150257E+03  0.12394362455E+04  0.00000000000E+00 0.  1.
<mgrwt>
<rscale>  0 0.15445366E+04</rscale>
<asrwt>0</asrwt>
<pdfrwt beam="1">  1        2 0.26721892E+00 0.15445366E+04</pdfrwt>
<pdfrwt beam="2">  1       -2 0.52825364E-01 0.15445366E+04</pdfrwt>
<totfact> 0.30444047E+01</totfact>
</mgrwt>
</event>
<event>
 6    1  0.2325157E-005  0.4062704E+04  0.7818608E-02  0.7992015E-01
         -2   -1    0    0    0  501 -0.00000000000E+00  0.00000000000E+00  0.26504881465E+04  0.26504881465E+04  0.00000000000E+00 0. -1.
          2   -1    0    0  501    0  0.00000000000E+00 -0.00000000000E+00 -0.15568416085E+04  0.15568416085E+04  0.00000000000E+00 0.  1.
         23    2    1    2    0    0 -0.87163416611E+03  0.17491900484E+04  0.11171260661E+04  0.22528571322E+04  0.89345764081E+02 0.  0.
         11    1    3    3    0    0 -0.53574195123E+03  0.98427015143E+03  0.61966339418E+03  0.12805428112E+04  0.00000000000E+00 0. -1.
        -11    1    3    3    0    0 -0.33589221489E+03  0.76491989697E+03  0.49746267193E+03  0.97231432097E+03  0.00000000000E+00 0.  1.
         22    1    1    2    0    0  0.87163416611E+03 -0.17491900484E+04 -0.23479528098E+02  0.19544726228E+04  0.00000000000E+00 0.  1.
<mgrwt>
<rscale>  0 0.40627036E+04</rscale>
<asrwt>0</asrwt>
<pdfrwt beam="1">  1        2 0.23951409E+00 0.40627036E+04</pdfrwt>
<pdfrwt beam="2">  1       -2 0.40776741E+00 0.40627036E+04</pdfrwt>
<totfact> 0.61069524E-02</totfact>
</mgrwt>
</event>
<event>
 6    1  0.2325157E-005  0.2758786E+04  0.7818608E-02  0.8316179E-01
          2   -1    0    0  501    0  0.00000000000E+00  0.00000000000E+00  0.88239156883E+03  0.88239156883E+03  0.00000000000E+00 0.  1.
         -2   -1    0    0    0  501 -0.00000000000E+00 -0.00000000000E+00 -0.21563267246E+04  0.21563267246E+04  0.00000000000E+00 0. -1.
         23    2    1    2    0    0  0.47890166955E+02  0.10838108668E+04 -0.15738681476E+04  0.19131520969E+04  0.78425357791E+02 0.  0.
         11    1    3    3    0    0  0.34620187365E+02  0.16517822119E+03 -0.23104455347E+03  0.28611883514E+03  0.00000000000E+00 0.  1.
        -11    1    3    3    0    0  0.13269979590E+02  0.91863264565E+03 -0.13428235941E+04  0.16270332618E+04  0.00000000000E+00 0. -1.
         22    1    1    2    0    0 -0.47890166955E+02 -0.10838108668E+04  0.29993299182E+03  0.11255661965E+04  0.00000000000E+00 0.  1.
<mgrwt>
<rscale>  0 0.27587856E+04</rscale>
<asrwt>0</asrwt>
<pdfrwt beam="1">  1        2 0.13575255E+00 0.27587856E+04</pdfrwt>
<pdfrwt beam="2">  1       -2 0.33174257E+00 0.27587856E+04</pdfrwt>
<totfact> 0.53286039E-01</totfact>
</mgrwt>
</event>
<event>
 6    1  0.2325157E-005  0.3878466E+04  0.7818608E-02  0.8029523E-01
          2   -1    0    0  501    0  0.00000000000E+00  0.00000000000E+00  0.44350076879E+04  0.44350076879E+04  0.00000000000E+00 0.  1.
         -2   -1    0    0    0  501 -0.00000000000E+00 -0.00000000000E+00 -0.84794097912E+03  0.84794097912E+03  0.00000000000E+00 0. -1.
         23    2    1    2    0    0  0.17197248696E+03  0.42984042088E+03  0.43581216308E+04  0.43835805463E+04  0.90647301009E+02 0.  0.
         13    1    3    3    0    0  0.66759029161E+02  0.28512358564E+03  0.27081567812E+04  0.27239429838E+04  0.00000000000E+00 0.  1.
        -13    1    3    3    0    0  0.10521345780E+03  0.14471683524E+03  0.16499648496E+04  0.16596375625E+04  0.00000000000E+00 0. -1.
         22    1    1    2    0    0 -0.17197248696E+03 -0.42984042088E+03 -0.77105492206E+03  0.89936812070E+03  0.00000000000E+00 0. -1.
<mgrwt>
<rscale>  0 0.38784661E+04</rscale>
<asrwt>0</asrwt>
<pdfrwt beam="1">  1        2 0.68230886E+00 0.38784661E+04</pdfrwt>
<pdfrwt beam="2">  1       -2 0.13045246E+00 0.38784661E+04</pdfrwt>
<totfact> 0.48472404E-02</totfact>
</mgrwt>
</event>
<event>
 6    1  0.2325157E-005  0.1811784E+04  0.7818608E-02  0.8700058E-01
         -2   -1    0    0    0  501 -0.00000000000E+00  0.00000000000E+00  0.17152174282E+04  0.17152174282E+04  0.00000000000E+00 0. -1.
          2   -1    0    0  501    0  0.00000000000E+00 -0.00000000000E+00 -0.47844685771E+03  0.47844685771E+03  0.00000000000E+00 0.  1.
         23    2    1    2    0    0  0.76719139330E+03  0.24706212169E+03  0.12516467587E+03  0.82060565973E+03  0.90028477512E+02 0.  0.
         13    1    3    3    0    0  0.18719648631E+03  0.10012923501E+03  0.44050907295E+02  0.21681529149E+03  0.00000000000E+00 0. -1.
        -13    1    3    3    0    0  0.57999490700E+03  0.14693288668E+03  0.81113768571E+02  0.60379036824E+03  0.00000000000E+00 0.  1.
         22    1    1    2    0    0 -0.76719139330E+03 -0.24706212169E+03  0.11116058946E+04  0.13730586261E+04  0.00000000000E+00 0. -1.
<mgrwt>
<rscale>  0 0.18117841E+04</rscale>
<asrwt>0</asrwt>
<pdfrwt beam="1">  1        2 0.73607210E-01 0.18117841E+04</pdfrwt>
<pdfrwt beam="2">  1       -2 0.26387960E+00 0.18117841E+04</pdfrwt>
<totfact> 0.32302388E+00</totfact>
</mgrwt>
</event>
<event>
 6    1  0.2325157E-005  0.1977683E+04  0.7818608E-02  0.8617126E-01
          2   -1    0    0  501    0  0.00000000000E+00  0.00000000000E+00  0.13649503983E+04  0.13649503983E+04  0.00000000000E+00 0.  1.
         -2   -1    0    0    0  501 -0.00000000000E+00 -0.00000000000E+00 -0.71636828863E+03  0.71636828863E+03  0.00000000000E+00 0. -1.
         23    2    1    2    0    0 -0.57648176192E+03 -0.39319684544E+03 -0.40982007723E+03  0.81358442049E+03  0.83857811048E+02 0.  0.
         13    1    3    3    0    0 -0.26960218143E+03 -0.23463030216E+03 -0.20871854201E+03  0.41388421654E+03  0.00000000000E+00 0.  1.
        -13    1    3    3    0    0 -0.30687958048E+03 -0.15856654328E+03 -0.20110153522E+03  0.39970020394E+03  0.00000000000E+00 0. -1.
         22    1    1    2    0    0  0.57648176192E+03  0.39319684544E+03  0.10584021869E+04  0.12677342665E+04  0.00000000000E+00 0.  1.
<mgrwt>
<rscale>  0 0.19776827E+04</rscale>
<asrwt>0</asrwt>
<pdfrwt beam="1">  1        2 0.20999237E+00 0.19776827E+04</pdfrwt>
<pdfrwt beam="2">  1       -2 0.11021051E+00 0.19776827E+04</pdfrwt>
<totfact> 0.92277881E+00</totfact>
</mgrwt>
</event>
<event>
 6    1  0.2717172E-005  0.3488491E+04  0.7818608E-02  0.8116523E-01
         -2   -1    0    0    0  501 -0.00000000000E+00  0.00000000000E+00  0.16649443284E+04  0.16649443284E+04  0.00000000000E+00 0. -1.
          2   -1    0    0  501    0  0.00000000000E+00 -0.00000000000E+00 -0.18273237652E+04  0.18273237652E+04  0.00000000000E+00 0.  1.
         23    2    1    2    0    0 -0.12806290786E+04 -0.40952286447E+02  0.11016917603E+04  0.16923892315E+04  0.93641067494E+02 0.  0.
         11    1    3    3    0    0 -0.98066827319E+03 -0.59389774364E+02  0.87983297812E+03  0.13188417178E+04  0.00000000000E+00 0. -1.
        -11    1    3    3    0    0 -0.29996080536E+03  0.18437487917E+02  0.22185878220E+03  0.37354751365E+03  0.00000000000E+00 0.  1.
         22    1    1    2    0    0  0.12806290786E+04  0.40952286447E+02 -0.12640711971E+04  0.17998788621E+04  0.00000000000E+00 0.  1.
<mgrwt>
<rscale>  0 0.34884910E+04</rscale>
<asrwt>0</asrwt>
<pdfrwt beam="1">  1        2 0.28112673E+00 0.34884910E+04</pdfrwt>
<pdfrwt beam="2">  1       -2 0.25614528E+00 0.34884910E+04</pdfrwt>
<totfact> 0.40376130E-01</totfact>
</mgrwt>
</event>
<event>
 6    1  0.2325157E-005  0.2311690E+04  0.7818608E-02  0.8473326E-01
          2   -1    0    0  501    0  0.00000000000E+00  0.00000000000E+00  0.15587281211E+04  0.15587281211E+04  0.00000000000E+00 0.  1.
         -2   -1    0    0    0  501 -0.00000000000E+00 -0.00000000000E+00 -0.85709477768E+03  0.85709477768E+03  0.00000000000E+00 0. -1.
         23    2    1    2    0    0 -0.64983244798E+03 -0.95373799559E+03  0.34298031998E+03  0.12072988543E+04  0.89647359809E+02 0.  0.
         13    1    3    3    0    0 -0.17037520912E+03 -0.19452593748E+03  0.55583052318E+02  0.26449485428E+03  0.00000000000E+00 0. -1.
        -13    1    3    3    0    0 -0.47945723887E+03 -0.75921205811E+03  0.28739726766E+03  0.94280400007E+03  0.00000000000E+00 0.  1.
         22    1    1    2    0    0  0.64983244798E+03  0.95373799559E+03  0.35865302340E+03  0.12085240444E+04  0.00000000000E+00 0.  1.
<mgrwt>
<rscale>  0 0.23116901E+04</rscale>
<asrwt>0</asrwt>
<pdfrwt beam="1">  1        2 0.23980433E+00 0.23116901E+04</pdfrwt>
<pdfrwt beam="2">  1       -2 0.13186074E+00 0.23116901E+04</pdfrwt>
<totfact> 0.44637671E+00</totfact>
</mgrwt>
</event>
<event>
 6    1  0.2325157E-005  0.2341788E+04  0.7818608E-02  0.8461624E-01
          2   -1    0    0  501    0  0.00000000000E+00  0.00000000000E+00  0.12686750581E+04  0.12686750581E+04  0.00000000000E+00 0.  1.
         -2   -1    0    0    0  501 -0.00000000000E+00 -0.00000000000E+00 -0.10806495129E+04  0.10806495129E+04  0.00000000000E+00 0. -1.
         23    2    1    2    0    0  0.70502993664E+03  0.39190661697E+03 -0.75479351452E+03  0.11085321681E+04  0.92045152470E+02 0.  0.
         11    1    3    3    0    0  0.42288362042E+03  0.18465120813E+03 -0.41322476497E+03  0.61942015746E+03  0.00000000000E+00 0.  1.
        -11    1    3    3    0    0  0.28214631622E+03  0.20725540884E+03 -0.34156874955E+03  0.48911201060E+03  0.00000000000E+00 0. -1.
         22    1    1    2    0    0 -0.70502993664E+03 -0.39190661697E+03  0.94281905971E+03  0.12407924030E+04  0.00000000000E+00 0.  1.
<mgrwt>
<rscale>  0 0.23417883E+04</rscale>
<asrwt>0</asrwt>
<pdfrwt beam="1">  1        2 0.19518078E+00 0.23417883E+04</pdfrwt>
<pdfrwt beam="2">  1       -2 0.16625377E+00 0.23417883E+04</pdfrwt>
<totfact> 0.35330542E+00</totfact>
</mgrwt>
</event>
<event>
 6    1  0.2325157E-005  0.1384200E+04  0.7818608E-02  0.8965335E-01
          2   -1    0    0  501    0  0.00000000000E+00  0.00000000000E+00  0.25798739661E+04  0.25798739661E+04  0.00000000000E+00 0.  1.
         -2   -1    0    0    0  501 -0.00000000000E+00 -0.00000000000E+00 -0.18566895439E+03  0.18566895439E+03  0.00000000000E+00 0. -1.
         23    2    1    2    0    0  0.55847976010E+02  0.60610999427E+03  0.55722703558E+03  0.83034876837E+03  0.92134610067E+02 0.  0.
         11    1    3    3    0    0  0.51447501360E+02  0.47117982914E+03  0.48109866826E+03  0.67536153680E+03  0.00000000000E+00 0.  1.
        -11    1    3    3    0    0  0.44004746499E+01  0.13493016513E+03  0.76128367318E+02  0.15498723157E+03  0.00000000000E+00 0. -1.
         22    1    1    2    0    0 -0.55847976010E+02 -0.60610999427E+03  0.18369779761E+04  0.19351941521E+04  0.00000000000E+00 0.  1.
<mgrwt>
<rscale>  0 0.13842001E+04</rscale>
<asrwt>0</asrwt>
<pdfrwt beam="1">  1        2 0.39690366E+00 0.13842001E+04</pdfrwt>
<pdfrwt beam="2">  1       -2 0.28564456E-01 0.13842001E+04</pdfrwt>
<totfact> 0.34388795E+01</totfact>
</mgrwt>
</event>
<event>
 6    1  0.2325157E-005  0.1135130E+04  0.7818608E-02  0.9171613E-01
          2   -1    0    0  501    0  0.00000000000E+00  0.00000000000E+00  0.51205527998E+03  0.51205527998E+03  0.00000000000E+00 0.  1.
         -2   -1    0    0    0  501 -0.00000000000E+00 -0.00000000000E+00 -0.62909202834E+03  0.62909202834E+03  0.00000000000E+00 0. -1.
         23    2    1    2    0    0 -0.58572254934E+02  0.50570264597E+03 -0.30040765586E+03  0.60004587153E+03  0.10317176478E+03 0.  0.
         11    1    3    3    0    0 -0.54861572009E+02  0.13818504140E+03 -0.11755438078E+03  0.18953609205E+03  0.00000000000E+00 0.  1.
        -11    1    3    3    0    0 -0.37106829248E+01  0.36751760457E+03 -0.18285327509E+03  0.41050977948E+03  0.00000000000E+00 0. -1.
         22    1    1    2    0    0  0.58572254934E+02 -0.50570264597E+03  0.18337090750E+03  0.54110143680E+03  0.00000000000E+00 0.  1.
<mgrwt>
<rscale>  0 0.11351298E+04</rscale>
<asrwt>0</asrwt>
<pdfrwt beam="1">  1        2 0.78777736E-01 0.11351298E+04</pdfrwt>
<pdfrwt beam="2">  1       -2 0.96783389E-01 0.11351298E+04</pdfrwt>
<totfact> 0.52960965E+01</totfact>
</mgrwt>
</event>
<event>
 6    1  0.2325157E-005  0.2333096E+04  0.7818608E-02  0.8464985E-01
         -2   -1    0    0    0  501 -0.00000000000E+00  0.00000000000E+00  0.12090612391E+04  0.12090612391E+04  0.00000000000E+00 0. -1.
          2   -1    0    0  501    0  0.00000000000E+00 -0.00000000000E+00 -0.11255296007E+04  0.11255296007E+04  0.00000000000E+00 0.  1.
         23    2    1    2    0    0  0.79140428466E+03  0.39054001565E+03 -0.71867997931E+03  0.11419527031E+04  0.93342475896E+02 0.  0.
         11    1    3    3    0    0  0.40408315437E+03  0.20292178624E+03 -0.42802038626E+03  0.62262500595E+03  0.00000000000E+00 0.  1.
        -11    1    3    3    0    0  0.38732113028E+03  0.18761822941E+03 -0.29065959304E+03  0.51932769712E+03  0.00000000000E+00 0. -1.
         22    1    1    2    0    0 -0.79140428466E+03 -0.39054001565E+03  0.80221161765E+03  0.11926381367E+04  0.00000000000E+00 0. -1.
<mgrwt>
<rscale>  0 0.23330960E+04</rscale>
<asrwt>0</asrwt>
<pdfrwt beam="1">  1        2 0.17315840E+00 0.23330960E+04</pdfrwt>
<pdfrwt beam="2">  1       -2 0.18600942E+00 0.23330960E+04</pdfrwt>
<totfact> 0.31330976E+00</totfact>
</mgrwt>
</event>
<event>
 6    1  0.2325157E-005  0.2668791E+04  0.7818608E-02  0.8345203E-01
         -2   -1    0    0    0  501 -0.00000000000E+00  0.00000000000E+00  0.51396259170E+03  0.51396259170E+03  0.00000000000E+00 0. -1.
          2   -1    0    0  501    0  0.00000000000E+00 -0.00000000000E+00 -0.34644776354E+04  0.34644776354E+04  0.00000000000E+00 0.  1.
         23    2    1    2    0    0 -0.10864296573E+04 -0.66214871482E+03 -0.88553599230E+03  0.15529693855E+04  0.93646130291E+02 0.  0.
         13    1    3    3    0    0 -0.61017499458E+03 -0.42593968422E+03 -0.51551452382E+03  0.90525872704E+03  0.00000000000E+00 0. -1.
        -13    1    3    3    0    0 -0.47625466275E+03 -0.23620903060E+03 -0.37002146848E+03  0.64771065845E+03  0.00000000000E+00 0.  1.
         22    1    1    2    0    0  0.10864296573E+04  0.66214871482E+03 -0.20649790514E+04  0.24254708416E+04  0.00000000000E+00 0.  1.
<mgrwt>
<rscale>  0 0.26687914E+04</rscale>
<asrwt>0</asrwt>
<pdfrwt beam="1">  1        2 0.53299658E+00 0.26687914E+04</pdfrwt>
<pdfrwt beam="2">  1       -2 0.79071166E-01 0.26687914E+04</pdfrwt>
<totfact> 0.10745924E+00</totfact>
</mgrwt>
</event>
<event>
 6    1  0.2325157E-005  0.2141116E+04  0.7818608E-02  0.8543345E-01
         -2   -1    0    0    0  501 -0.00000000000E+00  0.00000000000E+00  0.56504988852E+03  0.56504988852E+03  0.00000000000E+00 0. -1.
          2   -1    0    0  501    0  0.00000000000E+00 -0.00000000000E+00 -0.20283060450E+04  0.20283060450E+04  0.00000000000E+00 0.  1.
         23    2    1    2    0    0 -0.97246004083E+03  0.37222881033E+03 -0.44086151221E+03  0.11340671934E+04  0.86698950522E+02 0.  0.
         11    1    3    3    0    0 -0.76421905001E+03  0.30716034163E+03 -0.31244222583E+03  0.88090770024E+03  0.00000000000E+00 0. -1.
        -11    1    3    3    0    0 -0.20824099082E+03  0.65068468702E+02 -0.12841928639E+03  0.25315949319E+03  0.00000000000E+00 0.  1.
         22    1    1    2    0    0  0.97246004083E+03 -0.37222881033E+03 -0.10223946442E+04  0.14592887400E+04  0.00000000000E+00 0.  1.
<mgrwt>
<rscale>  0 0.21411157E+04</rscale>
<asrwt>0</asrwt>
<pdfrwt beam="1">  1        2 0.31204709E+00 0.21411157E+04</pdfrwt>
<pdfrwt beam="2">  1       -2 0.86930751E-01 0.21411157E+04</pdfrwt>
<totfact> 0.67728543E+00</totfact>
</mgrwt>
</event>
<event>
 6    1  0.2325157E-005  0.1953463E+04  0.7818608E-02  0.8628693E-01
         -2   -1    0    0    0  501 -0.00000000000E+00  0.00000000000E+00  0.80442070892E+03  0.80442070892E+03  0.00000000000E+00 0. -1.
          2   -1    0    0  501    0  0.00000000000E+00 -0.00000000000E+00 -0.11859520109E+04  0.11859520109E+04  0.00000000000E+00 0.  1.
         23    2    1    2    0    0  0.63822507053E+03 -0.69744840561E+03  0.50658632989E+02  0.95087589011E+03  0.88505040295E+02 0.  0.
         11    1    3    3    0    0  0.38137951293E+03 -0.41389397558E+03 -0.13350314628E+02  0.56297139075E+03  0.00000000000E+00 0. -1.
        -11    1    3    3    0    0  0.25684555760E+03 -0.28355443003E+03  0.64008947616E+02  0.38790449936E+03  0.00000000000E+00 0.  1.
         22    1    1    2    0    0 -0.63822507053E+03  0.69744840561E+03 -0.43218993502E+03  0.10394968298E+04  0.00000000000E+00 0.  1.
<mgrwt>
<rscale>  0 0.19534629E+04</rscale>
<asrwt>0</asrwt>
<pdfrwt beam="1">  1        2 0.18245416E+00 0.19534629E+04</pdfrwt>
<pdfrwt beam="2">  1       -2 0.12375703E+00 0.19534629E+04</pdfrwt>
<totfact> 0.88557393E+00</totfact>
</mgrwt>
</event>
<event>
 6    1  0.2325157E-005  0.5375348E+04  0.7818608E-02  0.7773078E-01
          2   -1    0    0  501    0  0.00000000000E+00  0.00000000000E+00  0.33976114943E+04  0.33976114943E+04  0.00000000000E+00 0.  1.
         -2   -1    0    0    0  501 -0.00000000000E+00 -0.00000000000E+00 -0.21260794911E+04  0.21260794911E+04  0.00000000000E+00 0. -1.
         23    2    1    2    0    0  0.18988044501E+04  0.15433589310E+04 -0.50371647949E+03  0.25006259341E+04  0.10947438437E+03 0.  0.
         13    1    3    3    0    0  0.59778839733E+03  0.42515239227E+03 -0.13343449467E+03  0.74559391696E+03  0.00000000000E+00 0. -1.
        -13    1    3    3    0    0  0.13010160528E+04  0.11182065387E+04 -0.37028198482E+03  0.17550320171E+04  0.00000000000E+00 0.  1.
         22    1    1    2    0    0 -0.18988044501E+04 -0.15433589310E+04  0.17752484827E+04  0.30230650514E+04  0.00000000000E+00 0.  1.
<mgrwt>
<rscale>  0 0.53753482E+04</rscale>
<asrwt>0</asrwt>
<pdfrwt beam="1">  1        2 0.52270946E+00 0.53753482E+04</pdfrwt>
<pdfrwt beam="2">  1       -2 0.32708915E+00 0.53753482E+04</pdfrwt>
<totfact> 0.14613209E-02</totfact>
</mgrwt>
</event>
<event>
 6    1  0.2325157E-005  0.1159264E+04  0.7818608E-02  0.9149280E-01
          2   -1    0    0  501    0  0.00000000000E+00  0.00000000000E+00  0.71566779875E+03  0.71566779875E+03  0.00000000000E+00 0.  1.
         -2   -1    0    0    0  501 -0.00000000000E+00 -0.00000000000E+00 -0.46945385819E+03  0.46945385819E+03  0.00000000000E+00 0. -1.
         23    2    1    2    0    0 -0.55685772884E+03  0.46141443582E+02 -0.19484091308E+02  0.56640119735E+03  0.90615250156E+02 0.  0.
         13    1    3    3    0    0 -0.64657127673E+02 -0.23131189698E+02 -0.88301497144E+01  0.69235595179E+02  0.00000000000E+00 0.  1.
        -13    1    3    3    0    0 -0.49220060117E+03  0.69272633281E+02 -0.10653941593E+02  0.49716560217E+03  0.00000000000E+00 0. -1.
         22    1    1    2    0    0  0.55685772884E+03 -0.46141443582E+02  0.26569803186E+03  0.61872045959E+03  0.00000000000E+00 0.  1.
<mgrwt>
<rscale>  0 0.11592636E+04</rscale>
<asrwt>0</asrwt>
<pdfrwt beam="1">  1        2 0.11010274E+00 0.11592636E+04</pdfrwt>
<pdfrwt beam="2">  1       -2 0.72223670E-01 0.11592636E+04</pdfrwt>
<totfact> 0.68435753E+01</totfact>
</mgrwt>
</event>
<event>
 6    1  0.2325157E-005  0.4547457E+03  0.7818608E-02  0.1026316E+00
          2   -1    0    0  501    0  0.00000000000E+00  0.00000000000E+00  0.76903055140E+03  0.76903055140E+03  0.00000000000E+00 0.  1.
         -2   -1    0    0    0  501 -0.00000000000E+00 -0.00000000000E+00 -0.67225424761E+02  0.67225424761E+02  0.00000000000E+00 0. -1.
         23    2    1    2    0    0  0.49645165064E+02 -0.16989584169E+03  0.12536698563E+03  0.23325500614E+03  0.85800800502E+02 0.  0.
         13    1    3    3    0    0  0.45918326262E+02 -0.11093222213E+03  0.34587628255E+02  0.12494300549E+03  0.00000000000E+00 0.  1.
        -13    1    3    3    0    0  0.37268388019E+01 -0.58963619562E+02  0.90779357380E+02  0.10831200065E+03  0.00000000000E+00 0. -1.
         22    1    1    2    0    0 -0.49645165064E+02  0.16989584169E+03  0.57643814101E+03  0.60300097002E+03  0.00000000000E+00 0.  1.
<mgrwt>
<rscale>  0 0.45474567E+03</rscale>
<asrwt>0</asrwt>
<pdfrwt beam="1">  1        2 0.11831239E+00 0.45474567E+03</pdfrwt>
<pdfrwt beam="2">  1       -2 0.10342374E-01 0.45474567E+03</pdfrwt>
<totfact> 0.23553759E+03</totfact>
</mgrwt>
</event>
<event>
 6    1  0.2325157E-005  0.3710185E+04  0.7818608E-02  0.8065708E-01
          2   -1    0    0  501    0  0.00000000000E+00  0.00000000000E+00  0.31141496445E+04  0.31141496445E+04  0.00000000000E+00 0.  1.
         -2   -1    0    0    0  501 -0.00000000000E+00 -0.00000000000E+00 -0.11050749446E+04  0.11050749446E+04  0.00000000000E+00 0. -1.
         23    2    1    2    0    0 -0.19676200471E+03  0.89577916694E+03 -0.82714048323E+03  0.12384105782E+04  0.91453697635E+02 0.  0.
         11    1    3    3    0    0 -0.16906249287E+03  0.64804889767E+03 -0.55977587903E+03  0.87286799404E+03  0.00000000000E+00 0. -1.
        -11    1    3    3    0    0 -0.27699511837E+02  0.24773026926E+03 -0.26736460419E+03  0.36554258417E+03  0.00000000000E+00 0.  1.
         22    1    1    2    0    0  0.19676200471E+03 -0.89577916694E+03  0.28362151831E+04  0.29808140109E+04  0.00000000000E+00 0.  1.
<mgrwt>
<rscale>  0 0.37101853E+04</rscale>
<asrwt>0</asrwt>
<pdfrwt beam="1">  1        2 0.47909994E+00 0.37101853E+04</pdfrwt>
<pdfrwt beam="2">  1       -2 0.17001153E+00 0.37101853E+04</pdfrwt>
<totfact> 0.25344436E-01</totfact>
</mgrwt>
</event>
<event>
 6    1  0.2325157E-005  0.3192467E+04  0.7818608E-02  0.8190810E-01
         -2   -1    0    0    0  501 -0.00000000000E+00  0.00000000000E+00  0.23532941755E+04  0.23532941755E+04  0.00000000000E+00 0. -1.
          2   -1    0    0  501    0  0.00000000000E+00 -0.00000000000E+00 -0.10827208440E+04  0.10827208440E+04  0.00000000000E+00 0.  1.
         23    2    1    2    0    0  0.95621233962E+03  0.11916885864E+04  0.11282317905E+04  0.19015037489E+04  0.91355397258E+02 0.  0.
         13    1    3    3    0    0  0.30283326583E+03  0.42440924681E+03  0.34553677552E+03  0.62548130181E+03  0.00000000000E+00 0.  1.
        -13    1    3    3    0    0  0.65337907379E+03  0.76727933958E+03  0.78269501497E+03  0.12760224471E+04  0.00000000000E+00 0. -1.
         22    1    1    2    0    0 -0.95621233962E+03 -0.11916885864E+04  0.14234154106E+03  0.15345112706E+04  0.00000000000E+00 0.  1.
<mgrwt>
<rscale>  0 0.31924665E+04</rscale>
<asrwt>0</asrwt>
<pdfrwt beam="1">  1        2 0.16657244E+00 0.31924665E+04</pdfrwt>
<pdfrwt beam="2">  1       -2 0.36204526E+00 0.31924665E+04</pdfrwt>
<totfact> 0.24542597E-01</totfact>
</mgrwt>
</event>
<event>
 6    1  0.2325157E-005  0.2141148E+04  0.7818608E-02  0.8543331E-01
          1   -1    0    0  501    0  0.00000000000E+00  0.00000000000E+00  0.11648176140E+04  0.11648176140E+04  0.00000000000E+00 0. -1.
         -1   -1    0    0    0  501 -0.00000000000E+00 -0.00000000000E+00 -0.98395578261E+03  0.98395578261E+03  0.00000000000E+00 0.  1.
         23    2    1    2    0    0 -0.10181151742E+04  0.98369022753E+02  0.40071187544E+03  0.11025568730E+04  0.93950404340E+02 0.  0.
         13    1    3    3    0    0 -0.98002028081E+03  0.11259180857E+03  0.38652920419E+03  0.10594911476E+04  0.00000000000E+00 0. -1.
        -13    1    3    3    0    0 -0.38094893369E+02 -0.14222785821E+02  0.14182671256E+02  0.43065725366E+02  0.00000000000E+00 0.  1.
         22    1    1    2    0    0  0.10181151742E+04 -0.98369022753E+02 -0.21985004404E+03  0.10462165237E+04  0.00000000000E+00 0. -1.
<mgrwt>
<rscale>  0 0.21411483E+04</rscale>
<asrwt>0</asrwt>
<pdfrwt beam="1">  1        1 0.17920271E+00 0.21411483E+04</pdfrwt>
<pdfrwt beam="2">  1       -1 0.15137781E+00 0.21411483E+04</pdfrwt>
<totfact> 0.35380817E+00</totfact>
</mgrwt>
</event>
<event>
 6    1  0.2325157E-005  0.5052792E+04  0.7818608E-02  0.7820415E-01
         -2   -1    0    0    0  501 -0.00000000000E+00  0.00000000000E+00  0.22995069048E+04  0.22995069048E+04  0.00000000000E+00 0. -1.
          2   -1    0    0  501    0  0.00000000000E+00 -0.00000000000E+00 -0.27756721095E+04  0.27756721095E+04  0.00000000000E+00 0.  1.
         23    2    1    2    0    0 -0.20536259818E+04  0.11831839646E+04 -0.11144851495E+04  0.26206411109E+04  0.91535328634E+02 0.  0.
         13    1    3    3    0    0 -0.83980043444E+03  0.52780126069E+03 -0.49300151724E+03  0.11076504126E+04  0.00000000000E+00 0. -1.
        -13    1    3    3    0    0 -0.12138255474E+04  0.65538270395E+03 -0.62148363222E+03  0.15129906983E+04  0.00000000000E+00 0.  1.
         22    1    1    2    0    0  0.20536259818E+04 -0.11831839646E+04  0.63831994484E+03  0.24545379034E+04  0.00000000000E+00 0. -1.
<mgrwt>
<rscale>  0 0.50527922E+04</rscale>
<asrwt>0</asrwt>
<pdfrwt beam="1">  1        2 0.42702648E+00 0.50527922E+04</pdfrwt>
<pdfrwt beam="2">  1       -2 0.35377029E+00 0.50527922E+04</pdfrwt>
<totfact> 0.25540377E-02</totfact>
</mgrwt>
</event>
<event>
 6    1  0.2325157E-005  0.1488332E+04  0.7818608E-02  0.8892249E-01
          2   -1    0    0  501    0  0.00000000000E+00  0.00000000000E+00  0.11165354180E+04  0.11165354180E+04  0.00000000000E+00 0.  1.
         -2   -1    0    0    0  501 -0.00000000000E+00 -0.00000000000E+00 -0.49598368876E+03  0.49598368876E+03  0.00000000000E+00 0. -1.
         23    2    1    2    0    0 -0.38901620771E+03 -0.31186839849E+03  0.90589933012E+03  0.10380465128E+04  0.91057447135E+02 0.  0.
         11    1    3    3    0    0 -0.32999493891E+03 -0.21896041317E+03  0.73127205844E+03  0.83162440182E+03  0.00000000000E+00 0.  1.
        -11    1    3    3    0    0 -0.59021268799E+02 -0.92907985317E+02  0.17462727168E+03  0.20642211103E+03  0.00000000000E+00 0. -1.
         22    1    1    2    0    0  0.38901620771E+03  0.31186839849E+03 -0.28534760088E+03  0.57447259392E+03  0.00000000000E+00 0. -1.
<mgrwt>
<rscale>  0 0.14883324E+04</rscale>
<asrwt>0</asrwt>
<pdfrwt beam="1">  1        2 0.17177468E+00 0.14883324E+04</pdfrwt>
<pdfrwt beam="2">  1       -2 0.76305183E-01 0.14883324E+04</pdfrwt>
<totfact> 0.31630041E+01</totfact>
</mgrwt>
</event>
<event>
 6    1  0.2332112E-005  0.2531757E+04  0.7818608E-02  0.8391759E-01
         -1   -1    0    0    0  501 -0.00000000000E+00  0.00000000000E+00  0.67547297663E+03  0.67547297663E+03  0.00000000000E+00 0. -1.
          1   -1    0    0  501    0  0.00000000000E+00 -0.00000000000E+00 -0.23723344208E+04  0.23723344208E+04  0.00000000000E+00 0.  1.
         23    2    1    2    0    0 -0.31436698099E+03  0.81038944589E+02 -0.23204395620E+04  0.23447828044E+04  0.90403152280E+02 0.  0.
         11    1    3    3    0    0 -0.18580536936E+03  0.33641347495E+02 -0.10371545187E+04  0.10542034297E+04  0.00000000000E+00 0.  1.
        -11    1    3    3    0    0 -0.12856161163E+03  0.47397597094E+02 -0.12832850433E+04  0.12905793747E+04  0.00000000000E+00 0. -1.
         22    1    1    2    0    0  0.31436698099E+03 -0.81038944589E+02  0.62357811783E+03  0.70302459297E+03  0.00000000000E+00 0. -1.
<mgrwt>
<rscale>  0 0.25317565E+04</rscale>
<asrwt>0</asrwt>
<pdfrwt beam="1">  1        1 0.36497453E+00 0.25317565E+04</pdfrwt>
<pdfrwt beam="2">  1       -1 0.10391892E+00 0.25317565E+04</pdfrwt>
<totfact> 0.12821948E+00</totfact>
</mgrwt>
</event>
<event>
 6    1  0.2325157E-005  0.1330228E+04  0.7818608E-02  0.9005932E-01
          2   -1    0    0  501    0  0.00000000000E+00  0.00000000000E+00  0.12191555025E+04  0.12191555025E+04  0.00000000000E+00 0.  1.
         -2   -1    0    0    0  501 -0.00000000000E+00 -0.00000000000E+00 -0.36285497951E+03  0.36285497951E+03  0.00000000000E+00 0. -1.
         23    2    1    2    0    0 -0.43549740085E+03  0.23108341210E+02  0.10225310543E+04  0.11152936824E+04  0.90101383732E+02 0.  0.
         11    1    3    3    0    0 -0.14100315629E+03  0.49979958057E+02  0.34138666931E+03  0.37272609820E+03  0.00000000000E+00 0.  1.
        -11    1    3    3    0    0 -0.29449424456E+03 -0.26871616847E+02  0.68114438498E+03  0.74256758417E+03  0.00000000000E+00 0. -1.
         22    1    1    2    0    0  0.43549740085E+03 -0.23108341210E+02 -0.16623053126E+03  0.46671679968E+03  0.00000000000E+00 0. -1.
<mgrwt>
<rscale>  0 0.13302280E+04</rscale>
<asrwt>0</asrwt>
<pdfrwt beam="1">  1        2 0.18756238E+00 0.13302280E+04</pdfrwt>
<pdfrwt beam="2">  1       -2 0.55823844E-01 0.13302280E+04</pdfrwt>
<totfact> 0.54384117E+01</totfact>
</mgrwt>
</event>
<event>
 6    1  0.2325157E-005  0.1162026E+04  0.7818608E-02  0.9146760E-01
          2   -1    0    0  501    0  0.00000000000E+00  0.00000000000E+00  0.15618768540E+03  0.15618768540E+03  0.00000000000E+00 0.  1.
         -2   -1    0    0    0  501 -0.00000000000E+00 -0.00000000000E+00 -0.21613495102E+04  0.21613495102E+04  0.00000000000E+00 0. -1.
         23    2    1    2    0    0 -0.18090895306E+03 -0.30660811190E+03 -0.10102608494E+03  0.38040800543E+03  0.88132838219E+02 0.  0.
         13    1    3    3    0    0 -0.20146726006E+01 -0.61024609729E+02 -0.29156068185E+01  0.61127429697E+02  0.00000000000E+00 0.  1.
        -13    1    3    3    0    0 -0.17889428046E+03 -0.24558350218E+03 -0.98110478123E+02  0.31928057573E+03  0.00000000000E+00 0. -1.
         22    1    1    2    0    0  0.18090895306E+03  0.30660811190E+03 -0.19041357398E+04  0.19371291901E+04  0.00000000000E+00 0. -1.
<mgrwt>
<rscale>  0 0.11620261E+04</rscale>
<asrwt>0</asrwt>
<pdfrwt beam="1">  1        2 0.24028876E-01 0.11620261E+04</pdfrwt>
<pdfrwt beam="2">  1       -2 0.33251529E+00 0.11620261E+04</pdfrwt>
<totfact> 0.46113696E+00</totfact>
</mgrwt>
</event>
<event>
 6    1  0.2325157E-005  0.1409954E+04  0.7818608E-02  0.8946645E-01
         -2   -1    0    0    0  501 -0.00000000000E+00  0.00000000000E+00  0.12462883516E+04  0.12462883516E+04  0.00000000000E+00 0. -1.
          2   -1    0    0  501    0  0.00000000000E+00 -0.00000000000E+00 -0.39877804994E+03  0.39877804994E+03  0.00000000000E+00 0.  1.
         23    2    1    2    0    0  0.40383845462E+03 -0.77272362936E+02  0.10892816430E+04  0.11680864260E+04  0.93994071662E+02 0.  0.
         13    1    3    3    0    0  0.35966641329E+03 -0.45562220558E+02  0.87766708602E+03  0.94959747192E+03  0.00000000000E+00 0.  1.
        -13    1    3    3    0    0  0.44172041334E+02 -0.31710142378E+02  0.21161455693E+03  0.21848895412E+03  0.00000000000E+00 0. -1.
         22    1    1    2    0    0 -0.40383845462E+03  0.77272362936E+02 -0.24177134133E+03  0.47697997547E+03  0.00000000000E+00 0.  1.
<mgrwt>
<rscale>  0 0.14099538E+04</rscale>
<asrwt>0</asrwt>
<pdfrwt beam="1">  1        2 0.61350470E-01 0.14099538E+04</pdfrwt>
<pdfrwt beam="2">  1       -2 0.19173667E+00 0.14099538E+04</pdfrwt>
<totfact> 0.11698507E+01</totfact>
</mgrwt>
</event>
<event>
 6    1  0.2325157E-005  0.4856255E+04  0.7818608E-02  0.7851072E-01
         -2   -1    0    0    0  501 -0.00000000000E+00  0.00000000000E+00  0.22928348786E+04  0.22928348786E+04  0.00000000000E+00 0. -1.
          2   -1    0    0  501    0  0.00000000000E+00 -0.00000000000E+00 -0.25714029972E+04  0.25714029972E+04  0.00000000000E+00 0.  1.
         23    2    1    2    0    0  0.10705951758E+03  0.13450601391E+04 -0.21602914648E+04  0.25487398149E+04  0.92557617561E+02 0.  0.
         13    1    3    3    0    0 -0.19870102770E+01  0.46664387592E+03 -0.70771121503E+03  0.84771199061E+03  0.00000000000E+00 0.  1.
        -13    1    3    3    0    0  0.10904652786E+03  0.87841626323E+03 -0.14525802498E+04  0.17010278243E+04  0.00000000000E+00 0. -1.
         22    1    1    2    0    0 -0.10705951758E+03 -0.13450601391E+04  0.18817233462E+04  0.23154980609E+04  0.00000000000E+00 0. -1.
<mgrwt>
<rscale>  0 0.48562547E+04</rscale>
<asrwt>0</asrwt>
<pdfrwt beam="1">  1        2 0.39560046E+00 0.48562547E+04</pdfrwt>
<pdfrwt beam="2">  1       -2 0.35274383E+00 0.48562547E+04</pdfrwt>
<totfact> 0.34822934E-02</totfact>
</mgrwt>
</event>
<event>
 6    1  0.2325157E-005  0.1613818E+04  0.7818608E-02  0.8812104E-01
          3   -1    0    0  501    0  0.00000000000E+00  0.00000000000E+00  0.64316442897E+03  0.64316442897E+03  0.00000000000E+00 0.  1.
         -3   -1    0    0    0  501 -0.00000000000E+00 -0.00000000000E+00 -0.10123410202E+04  0.10123410202E+04  0.00000000000E+00 0. -1.
         23    2    1    2    0    0  0.36790997945E+03  0.65789200910E+03 -0.47281664803E+03  0.89463692576E+03  0.92951587720E+02 0.  0.
         13    1    3    3    0    0  0.20407240034E+03  0.43122332233E+03 -0.33423486016E+03  0.58250496998E+03  0.00000000000E+00 0.  1.
        -13    1    3    3    0    0  0.16383757911E+03  0.22666868677E+03 -0.13858178787E+03  0.31213195578E+03  0.00000000000E+00 0. -1.
         22    1    1    2    0    0 -0.36790997945E+03 -0.65789200910E+03  0.10364005675E+03  0.76086852345E+03  0.00000000000E+00 0.  1.
<mgrwt>
<rscale>  0 0.16138175E+04</rscale>
<asrwt>0</asrwt>
<pdfrwt beam="1">  1        3 0.98948374E-01 0.16138175E+04</pdfrwt>
<pdfrwt beam="2">  1       -3 0.15574477E+00 0.16138175E+04</pdfrwt>
<totfact> 0.65748201E-01</totfact>
</mgrwt>
</event>
<event>
 6    1  0.2325157E-005  0.1569678E+04  0.7818608E-02  0.8839395E-01
          2   -1    0    0  501    0  0.00000000000E+00  0.00000000000E+00  0.63064005369E+03  0.63064005369E+03  0.00000000000E+00 0. -1.
         -2   -1    0    0    0  501 -0.00000000000E+00 -0.00000000000E+00 -0.97674189374E+03  0.97674189374E+03  0.00000000000E+00 0.  1.
         23    2    1    2    0    0 -0.39538134903E+03 -0.82740516407E+02 -0.85959358931E+03  0.95404728528E+03  0.90181370279E+02 0.  0.
         11    1    3    3    0    0 -0.16070431870E+03 -0.28214836598E+02 -0.45230545433E+03  0.48083487713E+03  0.00000000000E+00 0. -1.
        -11    1    3    3    0    0 -0.23467703034E+03 -0.54525679810E+02 -0.40728813498E+03  0.47321240815E+03  0.00000000000E+00 0.  1.
         22    1    1    2    0    0  0.39538134903E+03  0.82740516407E+02  0.51349174925E+03  0.65333466215E+03  0.00000000000E+00 0. -1.
<mgrwt>
<rscale>  0 0.15696784E+04</rscale>
<asrwt>0</asrwt>
<pdfrwt beam="1">  1        2 0.97021547E-01 0.15696784E+04</pdfrwt>
<pdfrwt beam="2">  1       -2 0.15026798E+00 0.15696784E+04</pdfrwt>
<totfact> 0.13367773E+01</totfact>
</mgrwt>
</event>
<event>
 6    1  0.2325157E-005  0.1689762E+04  0.7818608E-02  0.8767225E-01
         -2   -1    0    0    0  501 -0.00000000000E+00  0.00000000000E+00  0.21160326900E+03  0.21160326900E+03  0.00000000000E+00 0. -1.
          2   -1    0    0  501    0  0.00000000000E+00 -0.00000000000E+00 -0.33734085845E+04  0.33734085845E+04  0.00000000000E+00 0.  1.
         23    2    1    2    0    0 -0.82977044109E+03  0.16411079455E+01 -0.18950195853E+04  0.20706579436E+04  0.89461794331E+02 0.  0.
         11    1    3    3    0    0 -0.18896128085E+03  0.37809228244E+02 -0.44670195450E+03  0.48649618658E+03  0.00000000000E+00 0. -1.
        -11    1    3    3    0    0 -0.64080916024E+03 -0.36168120298E+02 -0.14483176308E+04  0.15841617570E+04  0.00000000000E+00 0.  1.
         22    1    1    2    0    0  0.82977044109E+03 -0.16411079455E+01 -0.12667857302E+04  0.15143539099E+04  0.00000000000E+00 0. -1.
<mgrwt>
<rscale>  0 0.16897624E+04</rscale>
<asrwt>0</asrwt>
<pdfrwt beam="1">  1        2 0.51898591E+00 0.16897624E+04</pdfrwt>
<pdfrwt beam="2">  1       -2 0.32554351E-01 0.16897624E+04</pdfrwt>
<totfact> 0.83965636E+00</totfact>
</mgrwt>
</event>
<event>
 6    1  0.2325157E-005  0.1634705E+04  0.7818608E-02  0.8799507E-01
          2   -1    0    0  501    0  0.00000000000E+00  0.00000000000E+00  0.19151362364E+04  0.19151362364E+04  0.00000000000E+00 0.  1.
         -2   -1    0    0    0  501 -0.00000000000E+00 -0.00000000000E+00 -0.34883416822E+03  0.34883416822E+03  0.00000000000E+00 0. -1.
         23    2    1    2    0    0 -0.19005633198E+03  0.76764347809E+03  0.10571353356E+04  0.13234127614E+04  0.92131972226E+02 0.  0.
         11    1    3    3    0    0 -0.13877916811E+03  0.40597670657E+03  0.52592853406E+03  0.67873232331E+03  0.00000000000E+00 0. -1.
        -11    1    3    3    0    0 -0.51277163871E+02  0.36166677152E+03  0.53120680157E+03  0.64468043804E+03  0.00000000000E+00 0.  1.
         22    1    1    2    0    0  0.19005633198E+03 -0.76764347809E+03  0.50916673257E+03  0.94055764328E+03  0.00000000000E+00 0. -1.
<mgrwt>
<rscale>  0 0.16347048E+04</rscale>
<asrwt>0</asrwt>
<pdfrwt beam="1">  1        2 0.29463634E+00 0.16347048E+04</pdfrwt>
<pdfrwt beam="2">  1       -2 0.53666796E-01 0.16347048E+04</pdfrwt>
<totfact> 0.23304221E+01</totfact>
</mgrwt>
</event>
<event>
 6    1  0.2325157E-005  0.1076025E+04  0.7818608E-02  0.9228880E-01
          1   -1    0    0  501    0  0.00000000000E+00  0.00000000000E+00  0.54966313762E+03  0.54966313762E+03  0.00000000000E+00 0.  1.
         -1   -1    0    0    0  501 -0.00000000000E+00 -0.00000000000E+00 -0.52660884974E+03  0.52660884974E+03  0.00000000000E+00 0. -1.
         23    2    1    2    0    0 -0.39421845472E+03 -0.95438136993E+02  0.35887665872E+03  0.54968553407E+03  0.94048403317E+02 0.  0.
         13    1    3    3    0    0 -0.16152623364E+03 -0.55497806267E+02  0.94350317630E+02  0.19512230290E+03  0.00000000000E+00 0.  1.
        -13    1    3    3    0    0 -0.23269222108E+03 -0.39940330726E+02  0.26452634109E+03  0.35456323117E+03  0.00000000000E+00 0. -1.
         22    1    1    2    0    0  0.39421845472E+03  0.95438136993E+02 -0.33582237083E+03  0.52658645328E+03  0.00000000000E+00 0. -1.
<mgrwt>
<rscale>  0 0.10760250E+04</rscale>
<asrwt>0</asrwt>
<pdfrwt beam="1">  1        1 0.84563560E-01 0.10760250E+04</pdfrwt>
<pdfrwt beam="2">  1       -1 0.81016746E-01 0.10760250E+04</pdfrwt>
<totfact> 0.58866516E+01</totfact>
</mgrwt>
</event>
<event>
 6    1  0.2325157E-005  0.7849251E+03  0.7818608E-02  0.9582097E-01
         -2   -1    0    0    0  501 -0.00000000000E+00  0.00000000000E+00  0.14488630984E+03  0.14488630984E+03  0.00000000000E+00 0. -1.
          2   -1    0    0  501    0  0.00000000000E+00 -0.00000000000E+00 -0.10630877189E+04  0.10630877189E+04  0.00000000000E+00 0.  1.
         23    2    1    2    0    0 -0.38762302727E+02 -0.14259183247E+03 -0.10160813479E+04  0.10307300465E+04  0.90267250067E+02 0.  0.
         11    1    3    3    0    0 -0.56893928989E+02 -0.12892120425E+03 -0.71255340435E+03  0.72635387389E+03  0.00000000000E+00 0. -1.
        -11    1    3    3    0    0  0.18131626262E+02 -0.13670628228E+02 -0.30352794355E+03  0.30437617262E+03  0.00000000000E+00 0.  1.
         22    1    1    2    0    0  0.38762302727E+02  0.14259183247E+03  0.97879938859E+02  0.17724398222E+03  0.00000000000E+00 0. -1.
<mgrwt>
<rscale>  0 0.78492511E+03</rscale>
<asrwt>0</asrwt>
<pdfrwt beam="1">  1        2 0.16355196E+00 0.78492511E+03</pdfrwt>
<pdfrwt beam="2">  1       -2 0.22290201E-01 0.78492511E+03</pdfrwt>
<totfact> 0.40682391E+02</totfact>
</mgrwt>
</event>
<event>
 6    1  0.2325157E-005  0.2635550E+04  0.7818608E-02  0.8356225E-01
          2   -1    0    0  501    0  0.00000000000E+00  0.00000000000E+00  0.24906162345E+04  0.24906162345E+04  0.00000000000E+00 0.  1.
         -2   -1    0    0    0  501 -0.00000000000E+00 -0.00000000000E+00 -0.69722954515E+03  0.69722954515E+03  0.00000000000E+00 0. -1.
         23    2    1    2    0    0  0.30915906323E+03  0.83813691431E+02  0.24419129587E+04  0.24645267744E+04  0.91374300269E+02 0.  0.
         11    1    3    3    0    0  0.23262627675E+03  0.10266437753E+03  0.18685345769E+04  0.18857561942E+04  0.00000000000E+00 0.  1.
        -11    1    3    3    0    0  0.76532786482E+02 -0.18850686096E+02  0.57337838179E+03  0.57877058018E+03  0.00000000000E+00 0. -1.
         22    1    1    2    0    0 -0.30915906323E+03 -0.83813691431E+02 -0.64852626936E+03  0.72331900521E+03  0.00000000000E+00 0. -1.
<mgrwt>
<rscale>  0 0.26355502E+04</rscale>
<asrwt>0</asrwt>
<pdfrwt beam="1">  1        2 0.38317172E+00 0.26355502E+04</pdfrwt>
<pdfrwt beam="2">  1       -2 0.10726609E+00 0.26355502E+04</pdfrwt>
<totfact> 0.21703166E+00</totfact>
</mgrwt>
</event>
<event>
 6    1  0.2325157E-005  0.2813598E+04  0.7818608E-02  0.8299059E-01
         -2   -1    0    0    0  501 -0.00000000000E+00  0.00000000000E+00  0.47217071201E+03  0.47217071201E+03  0.00000000000E+00 0. -1.
          2   -1    0    0  501    0  0.00000000000E+00 -0.00000000000E+00 -0.41914577705E+04  0.41914577705E+04  0.00000000000E+00 0.  1.
         23    2    1    2    0    0  0.47409757529E+03  0.11686037290E+04 -0.83400659039E+03  0.15147800318E+04  0.92673434645E+02 0.  0.
         13    1    3    3    0    0  0.36700049901E+03  0.80632033200E+03 -0.55952661134E+03  0.10478128997E+04  0.00000000000E+00 0.  1.
        -13    1    3    3    0    0  0.10709707629E+03  0.36228339698E+03 -0.27447997905E+03  0.46696713201E+03  0.00000000000E+00 0. -1.
         22    1    1    2    0    0 -0.47409757529E+03 -0.11686037290E+04 -0.28852804681E+04  0.31488484507E+04  0.00000000000E+00 0.  1.
<mgrwt>
<rscale>  0 0.28135981E+04</rscale>
<asrwt>0</asrwt>
<pdfrwt beam="1">  1        2 0.64483966E+00 0.28135981E+04</pdfrwt>
<pdfrwt beam="2">  1       -2 0.72641647E-01 0.28135981E+04</pdfrwt>
<totfact> 0.35265238E-01</totfact>
</mgrwt>
</event>
<event>
 6    1  0.2325157E-005  0.1950306E+04  0.7818608E-02  0.8630213E-01
          2   -1    0    0  501    0  0.00000000000E+00  0.00000000000E+00  0.21588366090E+04  0.21588366090E+04  0.00000000000E+00 0.  1.
         -2   -1    0    0    0  501 -0.00000000000E+00 -0.00000000000E+00 -0.44047959195E+03  0.44047959195E+03  0.00000000000E+00 0. -1.
         23    2    1    2    0    0  0.62175295735E+03  0.73308509090E+03  0.65964744287E+03  0.11693314273E+04  0.90613174944E+02 0.  0.
         11    1    3    3    0    0  0.15820545170E+03  0.14787284638E+03  0.18361086223E+03  0.28391599527E+03  0.00000000000E+00 0. -1.
        -11    1    3    3    0    0  0.46354750565E+03  0.58521224452E+03  0.47603658064E+03  0.88541543201E+03  0.00000000000E+00 0.  1.
         22    1    1    2    0    0 -0.62175295735E+03 -0.73308509090E+03  0.10587095742E+04  0.14299847737E+04  0.00000000000E+00 0. -1.
<mgrwt>
<rscale>  0 0.19503061E+04</rscale>
<asrwt>0</asrwt>
<pdfrwt beam="1">  1        2 0.33212870E+00 0.19503061E+04</pdfrwt>
<pdfrwt beam="2">  1       -2 0.67766092E-01 0.19503061E+04</pdfrwt>
<totfact> 0.10135895E+01</totfact>
</mgrwt>
</event>
<event>
 6    1  0.2325157E-005  0.1433445E+04  0.7818608E-02  0.8929959E-01
          1   -1    0    0  501    0  0.00000000000E+00  0.00000000000E+00  0.14227775167E+04  0.14227775167E+04  0.00000000000E+00 0.  1.
         -1   -1    0    0    0  501 -0.00000000000E+00 -0.00000000000E+00 -0.36104806906E+03  0.36104806906E+03  0.00000000000E+00 0. -1.
         23    2    1    2    0    0  0.18860040112E+03 -0.68727651674E+03  0.58590795634E+03  0.92689780972E+03  0.89063430180E+02 0.  0.
         11    1    3    3    0    0  0.51850394363E+02 -0.23454622052E+03  0.14661499805E+03  0.28141846174E+03  0.00000000000E+00 0. -1.
        -11    1    3    3    0    0  0.13675000675E+03 -0.45273029623E+03  0.43929295829E+03  0.64547934798E+03  0.00000000000E+00 0.  1.
         22    1    1    2    0    0 -0.18860040112E+03  0.68727651674E+03  0.47582149129E+03  0.85692777604E+03  0.00000000000E+00 0. -1.
<mgrwt>
<rscale>  0 0.14334449E+04</rscale>
<asrwt>0</asrwt>
<pdfrwt beam="1">  1        1 0.21888885E+00 0.14334449E+04</pdfrwt>
<pdfrwt beam="2">  1       -1 0.55545858E-01 0.14334449E+04</pdfrwt>
<totfact> 0.23601058E+01</totfact>
</mgrwt>
</event>
<event>
 6    1  0.2325157E-005  0.2493582E+04  0.7818608E-02  0.8405276E-01
          2   -1    0    0  501    0  0.00000000000E+00  0.00000000000E+00  0.92609954475E+03  0.92609954475E+03  0.00000000000E+00 0.  1.
         -2   -1    0    0    0  501 -0.00000000000E+00 -0.00000000000E+00 -0.16785317666E+04  0.16785317666E+04  0.00000000000E+00 0. -1.
         23    2    1    2    0    0 -0.63182118397E+03 -0.56560027538E+03  0.57562756868E+03  0.10289268697E+04  0.90783949213E+02 0.  0.
         11    1    3    3    0    0 -0.51814103714E+03 -0.43873971021E+03  0.42104933599E+03  0.79890250408E+03  0.00000000000E+00 0. -1.
        -11    1    3    3    0    0 -0.11368014683E+03 -0.12686056517E+03  0.15457823269E+03  0.23002436567E+03  0.00000000000E+00 0.  1.
         22    1    1    2    0    0  0.63182118397E+03  0.56560027538E+03 -0.13280597905E+04  0.15757044416E+04  0.00000000000E+00 0. -1.
<mgrwt>
<rscale>  0 0.24935818E+04</rscale>
<asrwt>0</asrwt>
<pdfrwt beam="1">  1        2 0.14247685E+00 0.24935818E+04</pdfrwt>
<pdfrwt beam="2">  1       -2 0.25823566E+00 0.24935818E+04</pdfrwt>
<totfact> 0.14371604E+00</totfact>
</mgrwt>
</event>
<event>
 6    1  0.2325157E-005  0.1068073E+04  0.7818608E-02  0.9236881E-01
          1   -1    0    0  501    0  0.00000000000E+00  0.00000000000E+00  0.53089682850E+03  0.53089682850E+03  0.00000000000E+00 0.  1.
         -1   -1    0    0    0  501 -0.00000000000E+00 -0.00000000000E+00 -0.53719503380E+03  0.53719503380E+03  0.00000000000E+00 0. -1.
         23    2    1    2    0    0  0.19019455054E+03 -0.37245740391E+03 -0.32918791789E+03  0.53973946922E+03  0.89752574176E+02 0.  0.
         13    1    3    3    0    0  0.14266653267E+03 -0.24772055336E+03 -0.27175454988E+03  0.39442331001E+03  0.00000000000E+00 0.  1.
        -13    1    3    3    0    0  0.47528017870E+02 -0.12473685054E+03 -0.57433368015E+02  0.14531615921E+03  0.00000000000E+00 0. -1.
         22    1    1    2    0    0 -0.19019455054E+03  0.37245740391E+03  0.32288971259E+03  0.52835239308E+03  0.00000000000E+00 0.  1.
<mgrwt>
<rscale>  0 0.10680733E+04</rscale>
<asrwt>0</asrwt>
<pdfrwt beam="1">  1        1 0.81676435E-01 0.10680733E+04</pdfrwt>
<pdfrwt beam="2">  1       -1 0.82645390E-01 0.10680733E+04</pdfrwt>
<totfact> 0.59263103E+01</totfact>
</mgrwt>
</event>
<event>
 6    1  0.2325157E-005  0.1073747E+04  0.7818608E-02  0.9231164E-01
          1   -1    0    0  501    0  0.00000000000E+00  0.00000000000E+00  0.40561596240E+03  0.40561596240E+03  0.00000000000E+00 0.  1.
         -1   -1    0    0    0  501 -0.00000000000E+00 -0.00000000000E+00 -0.71060670478E+03  0.71060670478E+03  0.00000000000E+00 0. -1.
         23    2    1    2    0    0  0.28671881621E+03  0.14534832661E+03 -0.59529816124E+03  0.68308041218E+03  0.94260984055E+02 0.  0.
         11    1    3    3    0    0  0.21386266474E+03  0.11181054671E+03 -0.35103438112E+03  0.42598588528E+03  0.00000000000E+00 0.  1.
        -11    1    3    3    0    0  0.72856151468E+02  0.33537779903E+02 -0.24426378011E+03  0.25709452690E+03  0.00000000000E+00 0. -1.
         22    1    1    2    0    0 -0.28671881621E+03 -0.14534832661E+03  0.29030741886E+03  0.43314225499E+03  0.00000000000E+00 0.  1.
<mgrwt>
<rscale>  0 0.10737475E+04</rscale>
<asrwt>0</asrwt>
<pdfrwt beam="1">  1        1 0.62402456E-01 0.10737475E+04</pdfrwt>
<pdfrwt beam="2">  1       -1 0.10932411E+00 0.10737475E+04</pdfrwt>
<totfact> 0.45542494E+01</totfact>
</mgrwt>
</event>
<event>
 6    1  0.2325157E-005  0.1160607E+04  0.7818608E-02  0.9148053E-01
          2   -1    0    0  501    0  0.00000000000E+00  0.00000000000E+00  0.70259765318E+03  0.70259765318E+03  0.00000000000E+00 0.  1.
         -2   -1    0    0    0  501 -0.00000000000E+00 -0.00000000000E+00 -0.47929602100E+03  0.47929602100E+03  0.00000000000E+00 0. -1.
         23    2    1    2    0    0  0.39536915264E+02 -0.52129997888E+03 -0.13554894466E+03  0.54778755361E+03  0.91546992543E+02 0.  0.
         11    1    3    3    0    0  0.40377144982E+02 -0.11479483383E+03 -0.89200993739E+01  0.12201531003E+03  0.00000000000E+00 0.  1.
        -11    1    3    3    0    0 -0.84022971747E+00 -0.40650514505E+03 -0.12662884529E+03  0.42577224357E+03  0.00000000000E+00 0. -1.
         22    1    1    2    0    0 -0.39536915264E+02  0.52129997888E+03  0.35885057684E+03  0.63410612057E+03  0.00000000000E+00 0. -1.
<mgrwt>
<rscale>  0 0.11606072E+04</rscale>
<asrwt>0</asrwt>
<pdfrwt beam="1">  1        2 0.10809195E+00 0.11606072E+04</pdfrwt>
<pdfrwt beam="2">  1       -2 0.73737850E-01 0.11606072E+04</pdfrwt>
<totfact> 0.66922062E+01</totfact>
</mgrwt>
</event>
<event>
 6    1  0.2325157E-005  0.3275590E+04  0.7818608E-02  0.8169134E-01
          2   -1    0    0  501    0  0.00000000000E+00  0.00000000000E+00  0.13719663108E+04  0.13719663108E+04  0.00000000000E+00 0.  1.
         -2   -1    0    0    0  501 -0.00000000000E+00 -0.00000000000E+00 -0.19551301452E+04  0.19551301452E+04  0.00000000000E+00 0. -1.
         23    2    1    2    0    0 -0.83972808373E+03  0.13363067267E+04 -0.73100706375E+03  0.17419414027E+04  0.95548944682E+02 0.  0.
         11    1    3    3    0    0 -0.59393353436E+03  0.88546055160E+03 -0.52789038440E+03  0.11897334532E+04  0.00000000000E+00 0.  1.
        -11    1    3    3    0    0 -0.24579454937E+03  0.45084617513E+03 -0.20311667935E+03  0.55220794956E+03  0.00000000000E+00 0. -1.
         22    1    1    2    0    0  0.83972808373E+03 -0.13363067267E+04  0.14784322935E+03  0.15851550533E+04  0.00000000000E+00 0.  1.
<mgrwt>
<rscale>  0 0.32755901E+04</rscale>
<asrwt>0</asrwt>
<pdfrwt beam="1">  1        2 0.21107174E+00 0.32755901E+04</pdfrwt>
<pdfrwt beam="2">  1       -2 0.30078925E+00 0.32755901E+04</pdfrwt>
<totfact> 0.39497278E-01</totfact>
</mgrwt>
</event>
<event>
 6    1  0.2325157E-005  0.3252607E+04  0.7818608E-02  0.8175060E-01
          2   -1    0    0  501    0  0.00000000000E+00  0.00000000000E+00  0.14243254147E+04  0.14243254147E+04  0.00000000000E+00 0.  1.
         -2   -1    0    0    0  501 -0.00000000000E+00 -0.00000000000E+00 -0.18569227913E+04  0.18569227913E+04  0.00000000000E+00 0. -1.
         23    2    1    2    0    0  0.12727626881E+04 -0.10136418443E+03 -0.12308075728E+04  0.17754796065E+04  0.85094027686E+02 0.  0.
         11    1    3    3    0    0  0.42893705141E+03 -0.67060698218E+02 -0.38571233280E+03  0.58073930037E+03  0.00000000000E+00 0.  1.
        -11    1    3    3    0    0  0.84382563669E+03 -0.34303486215E+02 -0.84509524003E+03  0.11947403061E+04  0.00000000000E+00 0. -1.
         22    1    1    2    0    0 -0.12727626881E+04  0.10136418443E+03  0.79821019617E+03  0.15057685996E+04  0.00000000000E+00 0.  1.
<mgrwt>
<rscale>  0 0.32526065E+04</rscale>
<asrwt>0</asrwt>
<pdfrwt beam="1">  1        2 0.21912699E+00 0.32526065E+04</pdfrwt>
<pdfrwt beam="2">  1       -2 0.28568043E+00 0.32526065E+04</pdfrwt>
<totfact> 0.45683840E-01</totfact>
</mgrwt>
</event>
<event>
 6    1  0.2325157E-005  0.2727618E+04  0.7818608E-02  0.8326099E-01
         -2   -1    0    0    0  501 -0.00000000000E+00  0.00000000000E+00  0.79882306948E+03  0.79882306948E+03  0.00000000000E+00 0. -1.
          2   -1    0    0  501    0  0.00000000000E+00 -0.00000000000E+00 -0.23283937570E+04  0.23283937570E+04  0.00000000000E+00 0.  1.
         23    2    1    2    0    0 -0.20640976937E+03 -0.38106299206E+03  0.71462268753E+03  0.84156201846E+03  0.98625800806E+02 0.  0.
         13    1    3    3    0    0 -0.13691428942E+03 -0.26820824165E+03  0.57481563836E+03  0.64891771562E+03  0.00000000000E+00 0. -1.
        -13    1    3    3    0    0 -0.69495479945E+02 -0.11285475041E+03  0.13980704917E+03  0.19264430285E+03  0.00000000000E+00 0.  1.
         22    1    1    2    0    0  0.20640976937E+03  0.38106299206E+03 -0.22441933750E+04  0.22856548080E+04  0.00000000000E+00 0.  1.
<mgrwt>
<rscale>  0 0.27276178E+04</rscale>
<asrwt>0</asrwt>
<pdfrwt beam="1">  1        2 0.35821442E+00 0.27276178E+04</pdfrwt>
<pdfrwt beam="2">  1       -2 0.12289586E+00 0.27276178E+04</pdfrwt>
<totfact> 0.19127673E+00</totfact>
</mgrwt>
</event>
<event>
 6    1  0.2325157E-005  0.2746362E+04  0.7818608E-02  0.8320117E-01
          2   -1    0    0  501    0  0.00000000000E+00  0.00000000000E+00  0.14738655582E+04  0.14738655582E+04  0.00000000000E+00 0.  1.
         -2   -1    0    0    0  501 -0.00000000000E+00 -0.00000000000E+00 -0.12793749540E+04  0.12793749540E+04  0.00000000000E+00 0. -1.
         23    2    1    2    0    0 -0.10169362118E+04 -0.26369230998E+03  0.98150603583E+03  0.14405767384E+04  0.90633037741E+02 0.  0.
         13    1    3    3    0    0 -0.98209089728E+03 -0.23724623281E+03  0.93266859222E+03  0.13750123666E+04  0.00000000000E+00 0. -1.
        -13    1    3    3    0    0 -0.34845314552E+02 -0.26446077171E+02  0.48837443608E+02  0.65564371743E+02  0.00000000000E+00 0.  1.
         22    1    1    2    0    0  0.10169362118E+04  0.26369230998E+03 -0.78701543168E+03  0.13126637738E+04  0.00000000000E+00 0. -1.
<mgrwt>
<rscale>  0 0.27463625E+04</rscale>
<asrwt>0</asrwt>
<pdfrwt beam="1">  1        2 0.22674855E+00 0.27463625E+04</pdfrwt>
<pdfrwt beam="2">  1       -2 0.19682692E+00 0.27463625E+04</pdfrwt>
<totfact> 0.16022127E+00</totfact>
</mgrwt>
</event>
<event>
 6    1  0.2325157E-005  0.6086357E+04  0.7818608E-02  0.7679786E-01
         -2   -1    0    0    0  501 -0.00000000000E+00  0.00000000000E+00  0.26914679505E+04  0.26914679505E+04  0.00000000000E+00 0. -1.
          2   -1    0    0  501    0  0.00000000000E+00 -0.00000000000E+00 -0.34408489779E+04  0.34408489779E+04  0.00000000000E+00 0.  1.
         23    2    1    2    0    0 -0.30458613433E+03 -0.48509576815E+03 -0.33854217405E+04  0.34347622471E+04  0.91764459083E+02 0.  0.
         13    1    3    3    0    0 -0.12466152584E+03 -0.27795301425E+03 -0.16755512602E+04  0.17030180268E+04  0.00000000000E+00 0.  1.
        -13    1    3    3    0    0 -0.17992460849E+03 -0.20714275390E+03 -0.17098704803E+04  0.17317442203E+04  0.00000000000E+00 0. -1.
         22    1    1    2    0    0  0.30458613433E+03  0.48509576815E+03  0.26360407131E+04  0.26975546813E+04  0.00000000000E+00 0. -1.
<mgrwt>
<rscale>  0 0.60863568E+04</rscale>
<asrwt>0</asrwt>
<pdfrwt beam="1">  1        2 0.52936139E+00 0.60863568E+04</pdfrwt>
<pdfrwt beam="2">  1       -2 0.41407199E+00 0.60863568E+04</pdfrwt>
<totfact> 0.35861043E-03</totfact>
</mgrwt>
</event>
<event>
 6    1  0.2325157E-005  0.1269010E+04  0.7818608E-02  0.9054508E-01
         -2   -1    0    0    0  501 -0.00000000000E+00  0.00000000000E+00  0.44443357258E+03  0.44443357258E+03  0.00000000000E+00 0. -1.
          2   -1    0    0  501    0  0.00000000000E+00 -0.00000000000E+00 -0.90586502412E+03  0.90586502412E+03  0.00000000000E+00 0.  1.
         23    2    1    2    0    0  0.18224104228E+03  0.60380321539E+03 -0.20658097680E+03  0.67004946227E+03  0.92197947423E+02 0.  0.
         13    1    3    3    0    0  0.11155619802E+03  0.33035671021E+03 -0.16061883273E+03  0.38389940183E+03  0.00000000000E+00 0.  1.
        -13    1    3    3    0    0  0.70684844264E+02  0.27344650518E+03 -0.45962144061E+02  0.28615006044E+03  0.00000000000E+00 0. -1.
         22    1    1    2    0    0 -0.18224104228E+03 -0.60380321539E+03 -0.25485047474E+03  0.68024913442E+03  0.00000000000E+00 0.  1.
<mgrwt>
<rscale>  0 0.12690104E+04</rscale>
<asrwt>0</asrwt>
<pdfrwt beam="1">  1        2 0.13936385E+00 0.12690104E+04</pdfrwt>
<pdfrwt beam="2">  1       -2 0.68374396E-01 0.12690104E+04</pdfrwt>
<totfact> 0.55859151E+01</totfact>
</mgrwt>
</event>
<event>
 6    1  0.2579546E-005  0.3006131E+04  0.7818608E-02  0.8241982E-01
          2   -1    0    0  501    0  0.00000000000E+00  0.00000000000E+00  0.20135909315E+04  0.20135909315E+04  0.00000000000E+00 0.  1.
         -2   -1    0    0    0  501 -0.00000000000E+00 -0.00000000000E+00 -0.11219785153E+04  0.11219785153E+04  0.00000000000E+00 0. -1.
         23    2    1    2    0    0  0.11207623320E+04  0.90769046873E+03  0.88360084213E+03  0.16933231512E+04  0.81133559241E+02 0.  0.
         13    1    3    3    0    0  0.67363355022E+03  0.59498365375E+03  0.55976727198E+03  0.10588328985E+04  0.00000000000E+00 0.  1.
        -13    1    3    3    0    0  0.44712878176E+03  0.31270681498E+03  0.32383357015E+03  0.63449025270E+03  0.00000000000E+00 0. -1.
         22    1    1    2    0    0 -0.11207623320E+04 -0.90769046873E+03  0.80115740922E+01  0.14422462956E+04  0.00000000000E+00 0.  1.
<mgrwt>
<rscale>  0 0.30061309E+04</rscale>
<asrwt>0</asrwt>
<pdfrwt beam="1">  1        2 0.30978322E+00 0.30061309E+04</pdfrwt>
<pdfrwt beam="2">  1       -2 0.17261208E+00 0.30061309E+04</pdfrwt>
<totfact> 0.11474237E+00</totfact>
</mgrwt>
</event>
<event>
 6    1  0.2325157E-005  0.3831374E+04  0.7818608E-02  0.8039455E-01
          2   -1    0    0  501    0  0.00000000000E+00  0.00000000000E+00  0.28813712107E+04  0.28813712107E+04  0.00000000000E+00 0.  1.
         -2   -1    0    0    0  501 -0.00000000000E+00 -0.00000000000E+00 -0.12736493692E+04  0.12736493692E+04  0.00000000000E+00 0. -1.
         23    2    1    2    0    0 -0.16165483782E+04 -0.41839668438E+02  0.19160030228E+04  0.25088078040E+04  0.89832049337E+02 0.  0.
         11    1    3    3    0    0 -0.53668934689E+03 -0.97569633713E+01  0.70219936662E+03  0.88386345319E+03  0.00000000000E+00 0.  1.
        -11    1    3    3    0    0 -0.10798590313E+04 -0.32082705067E+02  0.12138036562E+04  0.16249443508E+04  0.00000000000E+00 0. -1.
         22    1    1    2    0    0  0.16165483782E+04  0.41839668438E+02 -0.30828118134E+03  0.16462127759E+04  0.00000000000E+00 0. -1.
<mgrwt>
<rscale>  0 0.38313740E+04</rscale>
<asrwt>0</asrwt>
<pdfrwt beam="1">  1        2 0.44328788E+00 0.38313740E+04</pdfrwt>
<pdfrwt beam="2">  1       -2 0.19594606E+00 0.38313740E+04</pdfrwt>
<totfact> 0.23325908E-01</totfact>
</mgrwt>
</event>
<event>
 6    1  0.2325157E-005  0.1862094E+04  0.7818608E-02  0.8673958E-01
          2   -1    0    0  501    0  0.00000000000E+00  0.00000000000E+00  0.15982160464E+04  0.15982160464E+04  0.00000000000E+00 0.  1.
         -2   -1    0    0    0  501 -0.00000000000E+00 -0.00000000000E+00 -0.54238533855E+03  0.54238533855E+03  0.00000000000E+00 0. -1.
         23    2    1    2    0    0  0.42554147759E+03  0.36813358063E+03  0.13785039611E+04  0.14919675046E+04  0.95320415226E+02 0.  0.
         13    1    3    3    0    0  0.32530436032E+03  0.22334532868E+03  0.95361085167E+03  0.10320269953E+04  0.00000000000E+00 0.  1.
        -13    1    3    3    0    0  0.10023711727E+03  0.14478825195E+03  0.42489310945E+03  0.45994050924E+03  0.00000000000E+00 0. -1.
         22    1    1    2    0    0 -0.42554147759E+03 -0.36813358063E+03 -0.32267325330E+03  0.64863388034E+03  0.00000000000E+00 0. -1.
<mgrwt>
<rscale>  0 0.18620945E+04</rscale>
<asrwt>0</asrwt>
<pdfrwt beam="1">  1        2 0.24587939E+00 0.18620945E+04</pdfrwt>
<pdfrwt beam="2">  1       -2 0.83443899E-01 0.18620945E+04</pdfrwt>
<totfact> 0.13194641E+01</totfact>
</mgrwt>
</event>
<event>
 6    1  0.2325157E-005  0.2812724E+04  0.7818608E-02  0.8299329E-01
         -2   -1    0    0    0  501 -0.00000000000E+00  0.00000000000E+00  0.10050660980E+04  0.10050660980E+04  0.00000000000E+00 0. -1.
          2   -1    0    0  501    0  0.00000000000E+00 -0.00000000000E+00 -0.19678852357E+04  0.19678852357E+04  0.00000000000E+00 0.  1.
         23    2    1    2    0    0 -0.61666568167E+01  0.66963751397E+03  0.82336314533E+03  0.10653613421E+04  0.92819677206E+02 0.  0.
         11    1    3    3    0    0 -0.25111278161E+02  0.48291936598E+02  0.67169612015E+02  0.86454868050E+02  0.00000000000E+00 0. -1.
        -11    1    3    3    0    0  0.18944621344E+02  0.62134557737E+03  0.75619353331E+03  0.97890647409E+03  0.00000000000E+00 0.  1.
         22    1    1    2    0    0  0.61666568167E+01 -0.66963751397E+03 -0.17861822830E+04  0.19075899916E+04  0.00000000000E+00 0.  1.
<mgrwt>
<rscale>  0 0.28127245E+04</rscale>
<asrwt>0</asrwt>
<pdfrwt beam="1">  1        2 0.30275158E+00 0.28127245E+04</pdfrwt>
<pdfrwt beam="2">  1       -2 0.15462555E+00 0.28127245E+04</pdfrwt>
<totfact> 0.16722547E+00</totfact>
</mgrwt>
</event>
<event>
 6    1  0.2325157E-005  0.2595076E+04  0.7818608E-02  0.8369876E-01
         -2   -1    0    0    0  501 -0.00000000000E+00  0.00000000000E+00  0.13418093515E+04  0.13418093515E+04  0.00000000000E+00 0. -1.
          2   -1    0    0  501    0  0.00000000000E+00 -0.00000000000E+00 -0.12547274665E+04  0.12547274665E+04  0.00000000000E+00 0.  1.
         23    2    1    2    0    0  0.10482099741E+04 -0.48623352985E+03  0.63068219893E+03  0.13195605079E+04  0.91174023551E+02 0.  0.
         13    1    3    3    0    0  0.99398969964E+03 -0.47446443282E+03  0.61679498928E+03  0.12623660641E+04  0.00000000000E+00 0. -1.
        -13    1    3    3    0    0  0.54220274476E+02 -0.11769097032E+02  0.13887209654E+02  0.57194443796E+02  0.00000000000E+00 0.  1.
         22    1    1    2    0    0 -0.10482099741E+04  0.48623352985E+03 -0.54360031391E+03  0.12769763101E+04  0.00000000000E+00 0.  1.
<mgrwt>
<rscale>  0 0.25950761E+04</rscale>
<asrwt>0</asrwt>
<pdfrwt beam="1">  1        2 0.19303500E+00 0.25950761E+04</pdfrwt>
<pdfrwt beam="2">  1       -2 0.20643221E+00 0.25950761E+04</pdfrwt>
<totfact> 0.18778746E+00</totfact>
</mgrwt>
</event>
<event>
 6    1  0.4848107E-005  0.3591956E+04  0.7818608E-02  0.8092337E-01
         -2   -1    0    0    0  501 -0.00000000000E+00  0.00000000000E+00  0.10487107505E+04  0.10487107505E+04  0.00000000000E+00 0. -1.
          2   -1    0    0  501    0  0.00000000000E+00 -0.00000000000E+00 -0.30757166791E+04  0.30757166791E+04  0.00000000000E+00 0.  1.
         23    2    1    2    0    0 -0.75787860091E+03  0.75261716316E+02 -0.28802991695E+04  0.29806819795E+04  0.91090379712E+02 0.  0.
         13    1    3    3    0    0 -0.45001698603E+03  0.80269814691E+02 -0.18253989414E+04  0.18817650826E+04  0.00000000000E+00 0. -1.
        -13    1    3    3    0    0 -0.30786161488E+03 -0.50080983752E+01 -0.10549002280E+04  0.10989168968E+04  0.00000000000E+00 0.  1.
         22    1    1    2    0    0  0.75787860091E+03 -0.75261716316E+02  0.85329324097E+03  0.11437454502E+04  0.00000000000E+00 0. -1.
<mgrwt>
<rscale>  0 0.35919561E+04</rscale>
<asrwt>0</asrwt>
<pdfrwt beam="1">  1        2 0.47318717E+00 0.35919561E+04</pdfrwt>
<pdfrwt beam="2">  1       -2 0.16134012E+00 0.35919561E+04</pdfrwt>
<totfact> 0.31290914E-01</totfact>
</mgrwt>
</event>
<event>
 6    1  0.2325157E-005  0.3651276E+04  0.7818608E-02  0.8078846E-01
          2   -1    0    0  501    0  0.00000000000E+00  0.00000000000E+00  0.26458115003E+04  0.26458115003E+04  0.00000000000E+00 0.  1.
         -2   -1    0    0    0  501 -0.00000000000E+00 -0.00000000000E+00 -0.12597094589E+04  0.12597094589E+04  0.00000000000E+00 0. -1.
         23    2    1    2    0    0 -0.13611999065E+04 -0.15000028335E+03  0.19829788374E+04  0.24116577860E+04  0.92319751877E+02 0.  0.
         11    1    3    3    0    0 -0.58852178623E+02 -0.23595576145E+02  0.76628343922E+02  0.99459706588E+02  0.00000000000E+00 0. -1.
        -11    1    3    3    0    0 -0.13023477279E+04 -0.12640470721E+03  0.19063504934E+04  0.23121980794E+04  0.00000000000E+00 0.  1.
         22    1    1    2    0    0  0.13611999065E+04  0.15000028335E+03 -0.59687679596E+03  0.14938631732E+04  0.00000000000E+00 0. -1.
<mgrwt>
<rscale>  0 0.36512758E+04</rscale>
<asrwt>0</asrwt>
<pdfrwt beam="1">  1        2 0.40704792E+00 0.36512758E+04</pdfrwt>
<pdfrwt beam="2">  1       -2 0.19380146E+00 0.36512758E+04</pdfrwt>
<totfact> 0.33922299E-01</totfact>
</mgrwt>
</event>
<event>
 6    1  0.2325157E-005  0.1059220E+04  0.7818608E-02  0.9245876E-01
         -2   -1    0    0    0  501 -0.00000000000E+00  0.00000000000E+00  0.21260270730E+03  0.21260270730E+03  0.00000000000E+00 0. -1.
          2   -1    0    0  501    0  0.00000000000E+00 -0.00000000000E+00 -0.13193009506E+04  0.13193009506E+04  0.00000000000E+00 0.  1.
         23    2    1    2    0    0  0.19511899725E+03 -0.32130952017E+03 -0.10887650668E+04  0.11555622841E+04  0.92755543479E+02 0.  0.
         11    1    3    3    0    0  0.61812706800E+02 -0.18796021646E+03 -0.52100789509E+03  0.55731416673E+03  0.00000000000E+00 0. -1.
        -11    1    3    3    0    0  0.13330629045E+03 -0.13334930371E+03 -0.56775717173E+03  0.59824811736E+03  0.00000000000E+00 0.  1.
         22    1    1    2    0    0 -0.19511899725E+03  0.32130952017E+03 -0.17933176511E+02  0.37634137383E+03  0.00000000000E+00 0. -1.
<mgrwt>
<rscale>  0 0.10592204E+04</rscale>
<asrwt>0</asrwt>
<pdfrwt beam="1">  1        2 0.20296938E+00 0.10592204E+04</pdfrwt>
<pdfrwt beam="2">  1       -2 0.32708109E-01 0.10592204E+04</pdfrwt>
<totfact> 0.13956804E+02</totfact>
</mgrwt>
</event>
<event>
 6    1  0.2325157E-005  0.1746148E+04  0.7818608E-02  0.8735473E-01
          2   -1    0    0  501    0  0.00000000000E+00  0.00000000000E+00  0.13073826534E+04  0.13073826534E+04  0.00000000000E+00 0. -1.
         -2   -1    0    0    0  501 -0.00000000000E+00 -0.00000000000E+00 -0.58304145021E+03  0.58304145021E+03  0.00000000000E+00 0.  1.
         23    2    1    2    0    0 -0.85823825317E+03 -0.14471329628E+03  0.33113079049E+03  0.93536951562E+03  0.88055056753E+02 0.  0.
         11    1    3    3    0    0 -0.15976897871E+03  0.73765547893E+01  0.63052575625E+02  0.17191907228E+03  0.00000000000E+00 0.  1.
        -11    1    3    3    0    0 -0.69846927445E+03 -0.15208985107E+03  0.26807821487E+03  0.76345044334E+03  0.00000000000E+00 0. -1.
         22    1    1    2    0    0  0.85823825317E+03  0.14471329628E+03  0.39321041266E+03  0.95505458794E+03  0.00000000000E+00 0.  1.
<mgrwt>
<rscale>  0 0.17461481E+04</rscale>
<asrwt>0</asrwt>
<pdfrwt beam="1">  1        2 0.20113579E+00 0.17461481E+04</pdfrwt>
<pdfrwt beam="2">  1       -2 0.89698685E-01 0.17461481E+04</pdfrwt>
<totfact> 0.16529945E+01</totfact>
</mgrwt>
</event>
<event>
 6    1  0.2325157E-005  0.5717771E+04  0.7818608E-02  0.7726415E-01
          2   -1    0    0  501    0  0.00000000000E+00  0.00000000000E+00  0.20312000200E+04  0.20312000200E+04  0.00000000000E+00 0. -1.
         -2   -1    0    0    0  501 -0.00000000000E+00 -0.00000000000E+00 -0.40238418072E+04  0.40238418072E+04  0.00000000000E+00 0.  1.
         23    2    1    2    0    0 -0.78952580306E+03 -0.27414179779E+04 -0.81203595733E+03  0.29675584429E+04  0.90979076614E+02 0.  0.
         13    1    3    3    0    0 -0.23756266748E+03 -0.87315960741E+03 -0.21592167240E+03  0.93030419198E+03  0.00000000000E+00 0.  1.
        -13    1    3    3    0    0 -0.55196313558E+03 -0.18682583705E+04 -0.59611428493E+03  0.20372542509E+04  0.00000000000E+00 0. -1.
         22    1    1    2    0    0  0.78952580306E+03  0.27414179779E+04 -0.11806058299E+04  0.30874833844E+04  0.00000000000E+00 0.  1.
<mgrwt>
<rscale>  0 0.57177714E+04</rscale>
<asrwt>0</asrwt>
<pdfrwt beam="1">  1        2 0.31249231E+00 0.57177714E+04</pdfrwt>
<pdfrwt beam="2">  1       -2 0.61905258E+00 0.57177714E+04</pdfrwt>
<totfact> 0.19348602E-03</totfact>
</mgrwt>
</event>
<event>
 6    1  0.2325157E-005  0.2504030E+04  0.7818608E-02  0.8401551E-01
         -2   -1    0    0    0  501 -0.00000000000E+00  0.00000000000E+00  0.37823527677E+04  0.37823527677E+04  0.00000000000E+00 0. -1.
          2   -1    0    0  501    0  0.00000000000E+00 -0.00000000000E+00 -0.41443571552E+03  0.41443571552E+03  0.00000000000E+00 0.  1.
         23    2    1    2    0    0  0.79102848834E+03 -0.60052629465E+03  0.29593973712E+04  0.31228954580E+04  0.89918521327E+02 0.  0.
         11    1    3    3    0    0  0.33717107470E+03 -0.21597292650E+03  0.10962560014E+04  0.11670929094E+04  0.00000000000E+00 0. -1.
        -11    1    3    3    0    0  0.45385741364E+03 -0.38455336815E+03  0.18631413699E+04  0.19558025486E+04  0.00000000000E+00 0.  1.
         22    1    1    2    0    0 -0.79102848834E+03  0.60052629465E+03  0.40851968089E+03  0.10738930252E+04  0.00000000000E+00 0.  1.
<mgrwt>
<rscale>  0 0.25040304E+04</rscale>
<asrwt>0</asrwt>
<pdfrwt beam="1">  1        2 0.63759344E-01 0.25040304E+04</pdfrwt>
<pdfrwt beam="2">  1       -2 0.58190040E+00 0.25040304E+04</pdfrwt>
<totfact> 0.40423419E-02</totfact>
</mgrwt>
</event>
<event>
 6    1  0.2325157E-005  0.1387173E+04  0.7818608E-02  0.8963156E-01
          2   -1    0    0  501    0  0.00000000000E+00  0.00000000000E+00  0.14469296405E+04  0.14469296405E+04  0.00000000000E+00 0.  1.
         -2   -1    0    0    0  501 -0.00000000000E+00 -0.00000000000E+00 -0.33247118526E+03  0.33247118526E+03  0.00000000000E+00 0. -1.
         23    2    1    2    0    0  0.15138626754E+03  0.54737043587E+03  0.10641220389E+04  0.12092552734E+04  0.86083718014E+02 0.  0.
         11    1    3    3    0    0  0.12208505558E+03  0.28035161442E+03  0.56873022218E+03  0.64572118915E+03  0.00000000000E+00 0.  1.
        -11    1    3    3    0    0  0.29301211960E+02  0.26701882145E+03  0.49539181676E+03  0.56353408428E+03  0.00000000000E+00 0. -1.
         22    1    1    2    0    0 -0.15138626754E+03 -0.54737043587E+03  0.50336416325E+02  0.57014555236E+03  0.00000000000E+00 0. -1.
<mgrwt>
<rscale>  0 0.13871733E+04</rscale>
<asrwt>0</asrwt>
<pdfrwt beam="1">  1        2 0.22260456E+00 0.13871733E+04</pdfrwt>
<pdfrwt beam="2">  1       -2 0.51149414E-01 0.13871733E+04</pdfrwt>
<totfact> 0.47864015E+01</totfact>
</mgrwt>
</event>
<event>
 6    1  0.2325157E-005  0.2686781E+04  0.7818608E-02  0.8339307E-01
          2   -1    0    0  501    0  0.00000000000E+00  0.00000000000E+00  0.98143217982E+03  0.98143217982E+03  0.00000000000E+00 0.  1.
         -2   -1    0    0    0  501 -0.00000000000E+00 -0.00000000000E+00 -0.18388418360E+04  0.18388418360E+04  0.00000000000E+00 0. -1.
         23    2    1    2    0    0  0.97587592916E+03  0.54887624946E+03 -0.12039037014E+04  0.16482428346E+04  0.11713817997E+03 0.  0.
         13    1    3    3    0    0  0.61915125521E+03  0.28435677354E+03 -0.74820353432E+03  0.10119365495E+04  0.00000000000E+00 0. -1.
        -13    1    3    3    0    0  0.35672467396E+03  0.26451947592E+03 -0.45570016707E+03  0.63630628507E+03  0.00000000000E+00 0.  1.
         22    1    1    2    0    0 -0.97587592916E+03 -0.54887624946E+03  0.34649404524E+03  0.11720311812E+04  0.00000000000E+00 0.  1.
<mgrwt>
<rscale>  0 0.26867814E+04</rscale>
<asrwt>0</asrwt>
<pdfrwt beam="1">  1        2 0.15098957E+00 0.26867814E+04</pdfrwt>
<pdfrwt beam="2">  1       -2 0.28289874E+00 0.26867814E+04</pdfrwt>
<totfact> 0.91947825E-01</totfact>
</mgrwt>
</event>
<event>
 6    1  0.2325157E-005  0.3423572E+04  0.7818608E-02  0.8132145E-01
         -2   -1    0    0    0  501 -0.00000000000E+00  0.00000000000E+00  0.25486011000E+04  0.25486011000E+04  0.00000000000E+00 0.  1.
          2   -1    0    0  501    0  0.00000000000E+00 -0.00000000000E+00 -0.11497330237E+04  0.11497330237E+04  0.00000000000E+00 0. -1.
         23    2    1    2    0    0  0.79048663107E+03  0.38529439062E+02  0.23381148758E+04  0.24701085004E+04  0.91110919140E+02 0.  0.
         13    1    3    3    0    0  0.57059320917E+03  0.68637953573E+02  0.16878956805E+04  0.17830534505E+04  0.00000000000E+00 0.  1.
        -13    1    3    3    0    0  0.21989342189E+03 -0.30108514511E+02  0.65021919527E+03  0.68705504986E+03  0.00000000000E+00 0. -1.
         22    1    1    2    0    0 -0.79048663107E+03 -0.38529439062E+02 -0.93924679946E+03  0.12282256234E+04  0.00000000000E+00 0. -1.
<mgrwt>
<rscale>  0 0.34235717E+04</rscale>
<asrwt>0</asrwt>
<pdfrwt beam="1">  1        2 0.17688200E+00 0.34235717E+04</pdfrwt>
<pdfrwt beam="2">  1       -2 0.39209248E+00 0.34235717E+04</pdfrwt>
<totfact> 0.14025900E-01</totfact>
</mgrwt>
</event>
<event>
 6    1  0.2325157E-005  0.1336528E+04  0.7818608E-02  0.9001090E-01
         -2   -1    0    0    0  501 -0.00000000000E+00  0.00000000000E+00  0.74891969129E+03  0.74891969129E+03  0.00000000000E+00 0. -1.
          2   -1    0    0  501    0  0.00000000000E+00 -0.00000000000E+00 -0.59629421678E+03  0.59629421678E+03  0.00000000000E+00 0.  1.
         23    2    1    2    0    0  0.21785404498E+03 -0.19317170547E+03  0.67853887440E+03  0.74408114662E+03  0.92011173106E+02 0.  0.
         11    1    3    3    0    0  0.35740188814E+02 -0.66777846722E+02  0.25536510972E+03  0.26636062241E+03  0.00000000000E+00 0.  1.
        -11    1    3    3    0    0  0.18211385617E+03 -0.12639385875E+03  0.42317376468E+03  0.47772052421E+03  0.00000000000E+00 0. -1.
         22    1    1    2    0    0 -0.21785404498E+03  0.19317170547E+03 -0.52591339989E+03  0.60113276145E+03  0.00000000000E+00 0.  1.
<mgrwt>
<rscale>  0 0.13365276E+04</rscale>
<asrwt>0</asrwt>
<pdfrwt beam="1">  1        2 0.91737572E-01 0.13365276E+04</pdfrwt>
<pdfrwt beam="2">  1       -2 0.11521841E+00 0.13365276E+04</pdfrwt>
<totfact> 0.28671419E+01</totfact>
</mgrwt>
</event>
<event>
 6    1  0.2325157E-005  0.1230278E+04  0.7818608E-02  0.9086760E-01
         -2   -1    0    0    0  501 -0.00000000000E+00  0.00000000000E+00  0.23288350973E+03  0.23288350973E+03  0.00000000000E+00 0. -1.
          2   -1    0    0  501    0  0.00000000000E+00 -0.00000000000E+00 -0.16248287383E+04  0.16248287383E+04  0.00000000000E+00 0.  1.
         23    2    1    2    0    0 -0.58166628427E+03 -0.42803978451E+02 -0.97876742959E+03  0.11429509310E+04  0.90461608195E+02 0.  0.
         11    1    3    3    0    0 -0.57970414999E+03 -0.42338938104E+02 -0.94722177427E+03  0.11113408914E+04  0.00000000000E+00 0. -1.
        -11    1    3    3    0    0 -0.19621342732E+01 -0.46504034703E+00 -0.31545655322E+02  0.31610039593E+02  0.00000000000E+00 0.  1.
         22    1    1    2    0    0  0.58166628427E+03  0.42803978451E+02 -0.41317779902E+03  0.71476131710E+03  0.00000000000E+00 0. -1.
<mgrwt>
<rscale>  0 0.12302777E+04</rscale>
<asrwt>0</asrwt>
<pdfrwt beam="1">  1        2 0.24997364E+00 0.12302777E+04</pdfrwt>
<pdfrwt beam="2">  1       -2 0.35828233E-01 0.12302777E+04</pdfrwt>
<totfact> 0.77881089E+01</totfact>
</mgrwt>
</event>
<event>
 6    1  0.2325157E-005  0.1397894E+04  0.7818608E-02  0.8955344E-01
         -2   -1    0    0    0  501 -0.00000000000E+00  0.00000000000E+00  0.60555684776E+03  0.60555684776E+03  0.00000000000E+00 0. -1.
          2   -1    0    0  501    0  0.00000000000E+00 -0.00000000000E+00 -0.80674033911E+03  0.80674033911E+03  0.00000000000E+00 0.  1.
         23    2    1    2    0    0 -0.14122189196E+03  0.53508580110E+03  0.32178504637E+03  0.65087973977E+03  0.11763665355E+03 0.  0.
         11    1    3    3    0    0 -0.14263300645E+03  0.49715119668E+03  0.26129266320E+03  0.57946297787E+03  0.00000000000E+00 0.  1.
        -11    1    3    3    0    0  0.14111144892E+01  0.37934604427E+02  0.60492383175E+02  0.71416761893E+02  0.00000000000E+00 0. -1.
         22    1    1    2    0    0  0.14122189196E+03 -0.53508580110E+03 -0.52296853773E+03  0.76141744711E+03  0.00000000000E+00 0.  1.
<mgrwt>
<rscale>  0 0.13978943E+04</rscale>
<asrwt>0</asrwt>
<pdfrwt beam="1">  1        2 0.12411390E+00 0.13978943E+04</pdfrwt>
<pdfrwt beam="2">  1       -2 0.93162592E-01 0.13978943E+04</pdfrwt>
<totfact> 0.32354575E+01</totfact>
</mgrwt>
</event>
<event>
 6    1  0.2325157E-005  0.1123076E+04  0.7818608E-02  0.9182988E-01
         -2   -1    0    0    0  501 -0.00000000000E+00  0.00000000000E+00  0.94913726999E+03  0.94913726999E+03  0.00000000000E+00 0. -1.
          2   -1    0    0  501    0  0.00000000000E+00 -0.00000000000E+00 -0.33222278717E+03  0.33222278717E+03  0.00000000000E+00 0.  1.
         23    2    1    2    0    0 -0.42572030470E+03 -0.45445296678E+02  0.71891914826E+03  0.84123734178E+03  0.86789807265E+02 0.  0.
         13    1    3    3    0    0 -0.20170028816E+03  0.10454673752E+02  0.39245605282E+03  0.44137745733E+03  0.00000000000E+00 0.  1.
        -13    1    3    3    0    0 -0.22402001654E+03 -0.55899970430E+02  0.32646309544E+03  0.39985988445E+03  0.00000000000E+00 0. -1.
         22    1    1    2    0    0  0.42572030470E+03  0.45445296678E+02 -0.10200466544E+03  0.44012271539E+03  0.00000000000E+00 0.  1.
<mgrwt>
<rscale>  0 0.11230762E+04</rscale>
<asrwt>0</asrwt>
<pdfrwt beam="1">  1        2 0.51111199E-01 0.11230762E+04</pdfrwt>
<pdfrwt beam="2">  1       -2 0.14602112E+00 0.11230762E+04</pdfrwt>
<totfact> 0.31213563E+01</totfact>
</mgrwt>
</event>
<event>
 6    1  0.2325157E-005  0.2072646E+04  0.7818608E-02  0.8573390E-01
         -2   -1    0    0    0  501 -0.00000000000E+00  0.00000000000E+00  0.93361431013E+03  0.93361431013E+03  0.00000000000E+00 0. -1.
          2   -1    0    0  501    0  0.00000000000E+00 -0.00000000000E+00 -0.11503312520E+04  0.11503312520E+04  0.00000000000E+00 0.  1.
         23    2    1    2    0    0 -0.48238316569E+03 -0.91372792007E+03 -0.60022395167E+02  0.10388879506E+04  0.89962522972E+02 0.  0.
         13    1    3    3    0    0 -0.39144810474E+03 -0.77853579953E+03 -0.22518817319E+02  0.87169760065E+03  0.00000000000E+00 0. -1.
        -13    1    3    3    0    0 -0.90935060947E+02 -0.13519212055E+03 -0.37503577849E+02  0.16719034996E+03  0.00000000000E+00 0.  1.
         22    1    1    2    0    0  0.48238316569E+03  0.91372792007E+03 -0.15669454673E+03  0.10450576115E+04  0.00000000000E+00 0. -1.
<mgrwt>
<rscale>  0 0.20726463E+04</rscale>
<asrwt>0</asrwt>
<pdfrwt beam="1">  1        2 0.17697404E+00 0.20726463E+04</pdfrwt>
<pdfrwt beam="2">  1       -2 0.14363297E+00 0.20726463E+04</pdfrwt>
<totfact> 0.62965374E+00</totfact>
</mgrwt>
</event>
<event>
 6    1  0.2325157E-005  0.3067954E+04  0.7818608E-02  0.8224588E-01
         -2   -1    0    0    0  501 -0.00000000000E+00  0.00000000000E+00  0.14476967288E+04  0.14476967288E+04  0.00000000000E+00 0. -1.
          2   -1    0    0  501    0  0.00000000000E+00 -0.00000000000E+00 -0.16253996192E+04  0.16253996192E+04  0.00000000000E+00 0.  1.
         23    2    1    2    0    0 -0.69876102048E+03  0.90895255180E+03 -0.11076634878E+04  0.15968550337E+04  0.92552101412E+02 0.  0.
         13    1    3    3    0    0 -0.20072679358E+03  0.33038662845E+03 -0.38810289808E+03  0.54778684670E+03  0.00000000000E+00 0. -1.
        -13    1    3    3    0    0 -0.49803422689E+03  0.57856592336E+03 -0.71956058967E+03  0.10490681870E+04  0.00000000000E+00 0.  1.
         22    1    1    2    0    0  0.69876102048E+03 -0.90895255180E+03  0.92996059743E+03  0.14762413143E+04  0.00000000000E+00 0. -1.
<mgrwt>
<rscale>  0 0.30679542E+04</rscale>
<asrwt>0</asrwt>
<pdfrwt beam="1">  1        2 0.25006148E+00 0.30679542E+04</pdfrwt>
<pdfrwt beam="2">  1       -2 0.22272258E+00 0.30679542E+04</pdfrwt>
<totfact> 0.87281317E-01</totfact>
</mgrwt>
</event>
<event>
 6    1  0.2325157E-005  0.4375230E+04  0.7818608E-02  0.7932852E-01
         -2   -1    0    0    0  501 -0.00000000000E+00  0.00000000000E+00  0.17943644344E+04  0.17943644344E+04  0.00000000000E+00 0. -1.
          2   -1    0    0  501    0  0.00000000000E+00 -0.00000000000E+00 -0.26670500019E+04  0.26670500019E+04  0.00000000000E+00 0.  1.
         23    2    1    2    0    0 -0.26348608828E+03  0.54578964129E+03  0.17058683655E+04  0.18125936352E+04  0.90540347248E+02 0.  0.
         11    1    3    3    0    0 -0.40911393359E+02  0.10928476357E+03  0.23722114059E+03  0.26436862749E+03  0.00000000000E+00 0.  1.
        -11    1    3    3    0    0 -0.22257469492E+03  0.43650487772E+03  0.14686472249E+04  0.15482250077E+04  0.00000000000E+00 0. -1.
         22    1    1    2    0    0  0.26348608828E+03 -0.54578964129E+03 -0.25785539330E+04  0.26488208012E+04  0.00000000000E+00 0.  1.
<mgrwt>
<rscale>  0 0.43752301E+04</rscale>
<asrwt>0</asrwt>
<pdfrwt beam="1">  1        2 0.41031538E+00 0.43752301E+04</pdfrwt>
<pdfrwt beam="2">  1       -2 0.27605607E+00 0.43752301E+04</pdfrwt>
<totfact> 0.94634914E-02</totfact>
</mgrwt>
</event>
<event>
 6    1  0.2325157E-005  0.6973806E+03  0.7818608E-02  0.9721722E-01
         -2   -1    0    0    0  501 -0.00000000000E+00  0.00000000000E+00  0.52888684456E+02  0.52888684456E+02  0.00000000000E+00 0. -1.
          2   -1    0    0  501    0  0.00000000000E+00 -0.00000000000E+00 -0.22988838304E+04  0.22988838304E+04  0.00000000000E+00 0.  1.
         23    2    1    2    0    0  0.31570379848E+03  0.31078688081E+02 -0.70590799763E+03  0.77935297871E+03  0.91924920923E+02 0.  0.
         11    1    3    3    0    0  0.90033482251E+02  0.45030384544E+02 -0.16790171067E+03  0.19576707564E+03  0.00000000000E+00 0. -1.
        -11    1    3    3    0    0  0.22567031623E+03 -0.13951696462E+02 -0.53800628695E+03  0.58358590307E+03  0.00000000000E+00 0.  1.
         22    1    1    2    0    0 -0.31570379848E+03 -0.31078688081E+02 -0.15400871483E+04  0.15724195361E+04  0.00000000000E+00 0.  1.
<mgrwt>
<rscale>  0 0.69738065E+03</rscale>
<asrwt>0</asrwt>
<pdfrwt beam="1">  1        2 0.35367445E+00 0.69738065E+03</pdfrwt>
<pdfrwt beam="2">  1       -2 0.81367203E-02 0.69738065E+03</pdfrwt>
<totfact> 0.45053182E+02</totfact>
</mgrwt>
</event>
<event>
 6    1  0.2325157E-005  0.7309604E+03  0.7818608E-02  0.9665703E-01
          2   -1    0    0  501    0  0.00000000000E+00  0.00000000000E+00  0.88383221781E+03  0.88383221781E+03  0.00000000000E+00 0.  1.
         -2   -1    0    0    0  501 -0.00000000000E+00 -0.00000000000E+00 -0.15113252484E+03  0.15113252484E+03  0.00000000000E+00 0. -1.
         23    2    1    2    0    0 -0.19648810151E+03 -0.28173156633E+03  0.52492716640E+03  0.63353022459E+03  0.88497265119E+02 0.  0.
         13    1    3    3    0    0 -0.95088545987E+02 -0.12728332979E+03  0.16563434494E+03  0.22951604267E+03  0.00000000000E+00 0.  1.
        -13    1    3    3    0    0 -0.10139955552E+03 -0.15444823653E+03  0.35929282147E+03  0.40401418191E+03  0.00000000000E+00 0. -1.
         22    1    1    2    0    0  0.19648810151E+03  0.28173156633E+03  0.20777252657E+03  0.40143451807E+03  0.00000000000E+00 0. -1.
<mgrwt>
<rscale>  0 0.73096045E+03</rscale>
<asrwt>0</asrwt>
<pdfrwt beam="1">  1        2 0.13597418E+00 0.73096045E+03</pdfrwt>
<pdfrwt beam="2">  1       -2 0.23251158E-01 0.73096045E+03</pdfrwt>
<totfact> 0.49413102E+02</totfact>
</mgrwt>
</event>
<event>
 6    1  0.2325157E-005  0.1431944E+04  0.7818608E-02  0.8931015E-01
          2   -1    0    0  501    0  0.00000000000E+00  0.00000000000E+00  0.14640240572E+04  0.14640240572E+04  0.00000000000E+00 0.  1.
         -2   -1    0    0    0  501 -0.00000000000E+00 -0.00000000000E+00 -0.35014190444E+03  0.35014190444E+03  0.00000000000E+00 0. -1.
         23    2    1    2    0    0 -0.39891026549E+03  0.39269323746E+03 -0.33399539094E+00  0.56724374936E+03  0.91804035723E+02 0.  0.
         11    1    3    3    0    0 -0.32813654813E+03  0.28765221813E+03  0.28659511573E+02  0.43730854144E+03  0.00000000000E+00 0.  1.
        -11    1    3    3    0    0 -0.70773717359E+02  0.10504101933E+03 -0.28993506964E+02  0.12993520792E+03  0.00000000000E+00 0. -1.
         22    1    1    2    0    0  0.39891026549E+03 -0.39269323746E+03  0.11142161481E+04  0.12469222122E+04  0.00000000000E+00 0.  1.
<mgrwt>
<rscale>  0 0.14319444E+04</rscale>
<asrwt>0</asrwt>
<pdfrwt beam="1">  1        2 0.22523447E+00 0.14319444E+04</pdfrwt>
<pdfrwt beam="2">  1       -2 0.53867986E-01 0.14319444E+04</pdfrwt>
<totfact> 0.41929396E+01</totfact>
</mgrwt>
</event>
<event>
 6    1  0.2325157E-005  0.1642537E+04  0.7818608E-02  0.8794834E-01
          2   -1    0    0  501    0  0.00000000000E+00  0.00000000000E+00  0.20132837941E+04  0.20132837941E+04  0.00000000000E+00 0.  1.
         -2   -1    0    0    0  501 -0.00000000000E+00 -0.00000000000E+00 -0.33501563240E+03  0.33501563240E+03  0.00000000000E+00 0. -1.
         23    2    1    2    0    0  0.75417314390E+02 -0.75359983087E+03  0.39645202207E+03  0.85945655627E+03  0.88830681197E+02 0.  0.
         13    1    3    3    0    0  0.96287786288E+01 -0.49744784438E+03  0.24324212633E+03  0.55381748192E+03  0.00000000000E+00 0. -1.
        -13    1    3    3    0    0  0.65788535761E+02 -0.25615198648E+03  0.15320989574E+03  0.30563907435E+03  0.00000000000E+00 0.  1.
         22    1    1    2    0    0 -0.75417314390E+02  0.75359983087E+03  0.12818161396E+04  0.14888428702E+04  0.00000000000E+00 0.  1.
<mgrwt>
<rscale>  0 0.16425365E+04</rscale>
<asrwt>0</asrwt>
<pdfrwt beam="1">  1        2 0.30973596E+00 0.16425365E+04</pdfrwt>
<pdfrwt beam="2">  1       -2 0.51540868E-01 0.16425365E+04</pdfrwt>
<totfact> 0.22329723E+01</totfact>
</mgrwt>
</event>
<event>
 6    1  0.2325157E-005  0.2029291E+04  0.7818608E-02  0.8593047E-01
         -2   -1    0    0    0  501 -0.00000000000E+00  0.00000000000E+00  0.47784388243E+03  0.47784388243E+03  0.00000000000E+00 0. -1.
          2   -1    0    0  501    0  0.00000000000E+00 -0.00000000000E+00 -0.21544815699E+04  0.21544815699E+04  0.00000000000E+00 0.  1.
         23    2    1    2    0    0 -0.22707954056E+03 -0.91356026489E+03 -0.13235019043E+04  0.16269089433E+04  0.94962854110E+02 0.  0.
         11    1    3    3    0    0 -0.17386822622E+03 -0.55360624296E+03 -0.76127215260E+03  0.95720704273E+03  0.00000000000E+00 0.  1.
        -11    1    3    3    0    0 -0.53211314336E+02 -0.35995402193E+03 -0.56222975172E+03  0.66970190054E+03  0.00000000000E+00 0. -1.
         22    1    1    2    0    0  0.22707954056E+03  0.91356026489E+03 -0.35313578317E+03  0.10054165091E+04  0.00000000000E+00 0. -1.
<mgrwt>
<rscale>  0 0.20292913E+04</rscale>
<asrwt>0</asrwt>
<pdfrwt beam="1">  1        2 0.33145870E+00 0.20292913E+04</pdfrwt>
<pdfrwt beam="2">  1       -2 0.73514445E-01 0.20292913E+04</pdfrwt>
<totfact> 0.84732266E+00</totfact>
</mgrwt>
</event>
<event>
 6    1  0.2325157E-005  0.4332228E+04  0.7818608E-02  0.7940686E-01
          2   -1    0    0  501    0  0.00000000000E+00  0.00000000000E+00  0.10380675800E+04  0.10380675800E+04  0.00000000000E+00 0.  1.
         -2   -1    0    0    0  501 -0.00000000000E+00 -0.00000000000E+00 -0.45199848515E+04  0.45199848515E+04  0.00000000000E+00 0. -1.
         23    2    1    2    0    0  0.50804638215E+03 -0.15970083166E+04 -0.35004719045E+04  0.38820778005E+04  0.93154737705E+02 0.  0.
         11    1    3    3    0    0  0.83302169249E+02 -0.18255621018E+03 -0.37789899902E+03  0.42787109594E+03  0.00000000000E+00 0. -1.
        -11    1    3    3    0    0  0.42474421290E+03 -0.14144521064E+04 -0.31225729055E+04  0.34542067045E+04  0.00000000000E+00 0.  1.
         22    1    1    2    0    0 -0.50804638215E+03  0.15970083166E+04  0.18554632978E+02  0.16759746311E+04  0.00000000000E+00 0.  1.
<mgrwt>
<rscale>  0 0.43322279E+04</rscale>
<asrwt>0</asrwt>
<pdfrwt beam="1">  1        2 0.15970270E+00 0.43322279E+04</pdfrwt>
<pdfrwt beam="2">  1       -2 0.69538229E+00 0.43322279E+04</pdfrwt>
<totfact> 0.43323649E-03</totfact>
</mgrwt>
</event>
<event>
 6    1  0.2325157E-005  0.1906528E+04  0.7818608E-02  0.8651614E-01
          2   -1    0    0  501    0  0.00000000000E+00  0.00000000000E+00  0.22114963656E+04  0.22114963656E+04  0.00000000000E+00 0.  1.
         -2   -1    0    0    0  501 -0.00000000000E+00 -0.00000000000E+00 -0.41090378994E+03  0.41090378994E+03  0.00000000000E+00 0. -1.
         23    2    1    2    0    0 -0.22586854190E+02  0.16492468473E+03  0.21903230701E+04  0.21986075460E+04  0.93003614892E+02 0.  0.
         11    1    3    3    0    0  0.17339906317E+01  0.15378402111E+03  0.15222750832E+04  0.15300241700E+04  0.00000000000E+00 0.  1.
        -11    1    3    3    0    0 -0.24320844822E+02  0.11140663617E+02  0.66804798687E+03  0.66858337599E+03  0.00000000000E+00 0. -1.
         22    1    1    2    0    0  0.22586854190E+02 -0.16492468473E+03 -0.38973049443E+03  0.42379260954E+03  0.00000000000E+00 0. -1.
<mgrwt>
<rscale>  0 0.19065280E+04</rscale>
<asrwt>0</asrwt>
<pdfrwt beam="1">  1        2 0.34023020E+00 0.19065280E+04</pdfrwt>
<pdfrwt beam="2">  1       -2 0.63215969E-01 0.19065280E+04</pdfrwt>
<totfact> 0.11038083E+01</totfact>
</mgrwt>
</event>
<event>
 6    1  0.2325157E-005  0.2958145E+04  0.7818608E-02  0.8255785E-01
         -2   -1    0    0    0  501 -0.00000000000E+00  0.00000000000E+00  0.10886152427E+04  0.10886152427E+04  0.00000000000E+00 0. -1.
          2   -1    0    0  501    0  0.00000000000E+00 -0.00000000000E+00 -0.20095768553E+04  0.20095768553E+04  0.00000000000E+00 0.  1.
         23    2    1    2    0    0 -0.13023654082E+04 -0.69790998056E+03 -0.47930596145E+03  0.15560203463E+04  0.90725497646E+02 0.  0.
         13    1    3    3    0    0 -0.25998302318E+03 -0.17895037387E+03 -0.89025748619E+02  0.32793290864E+03  0.00000000000E+00 0. -1.
        -13    1    3    3    0    0 -0.10423823850E+04 -0.51895960669E+03 -0.39028021283E+03  0.12280874377E+04  0.00000000000E+00 0.  1.
         22    1    1    2    0    0  0.13023654082E+04  0.69790998056E+03 -0.44165565122E+03  0.15421717517E+04  0.00000000000E+00 0.  1.
<mgrwt>
<rscale>  0 0.29581454E+04</rscale>
<asrwt>0</asrwt>
<pdfrwt beam="1">  1        2 0.30916567E+00 0.29581454E+04</pdfrwt>
<pdfrwt beam="2">  1       -2 0.16747927E+00 0.29581454E+04</pdfrwt>
<totfact> 0.12595474E+00</totfact>
</mgrwt>
</event>
<event>
 6    1  0.2325157E-005  0.2828145E+03  0.7818608E-02  0.1094162E+00
          2   -1    0    0  501    0  0.00000000000E+00  0.00000000000E+00  0.43018846523E+03  0.43018846523E+03  0.00000000000E+00 0.  1.
         -2   -1    0    0    0  501 -0.00000000000E+00 -0.00000000000E+00 -0.46481971939E+02  0.46481971939E+02  0.00000000000E+00 0. -1.
         23    2    1    2    0    0  0.72971950832E+02  0.90013185469E+02  0.30035491819E+03  0.33393023878E+03  0.88707656489E+02 0.  0.
         13    1    3    3    0    0  0.39746561891E+02  0.88862943242E+02  0.14226529573E+03  0.17238278984E+03  0.00000000000E+00 0.  1.
        -13    1    3    3    0    0  0.33225388941E+02  0.11502422265E+01  0.15808962246E+03  0.16154744893E+03  0.00000000000E+00 0. -1.
         22    1    1    2    0    0 -0.72971950832E+02 -0.90013185469E+02  0.83351575099E+02  0.14274019840E+03  0.00000000000E+00 0. -1.
<mgrwt>
<rscale>  0 0.28281448E+03</rscale>
<asrwt>0</asrwt>
<pdfrwt beam="1">  1        2 0.66182838E-01 0.28281448E+03</pdfrwt>
<pdfrwt beam="2">  1       -2 0.71510729E-02 0.28281448E+03</pdfrwt>
<totfact> 0.82634573E+03</totfact>
</mgrwt>
</event>
<event>
 6    1  0.2325157E-005  0.3756439E+04  0.7818608E-02  0.8055568E-01
         -2   -1    0    0    0  501 -0.00000000000E+00  0.00000000000E+00  0.14144572002E+04  0.14144572002E+04  0.00000000000E+00 0. -1.
          2   -1    0    0  501    0  0.00000000000E+00 -0.00000000000E+00 -0.24940369605E+04  0.24940369605E+04  0.00000000000E+00 0.  1.
         23    2    1    2    0    0  0.18149333821E+04 -0.46483953382E+03 -0.42058914153E+03  0.19224610267E+04  0.94351466489E+02 0.  0.
         11    1    3    3    0    0  0.13806651482E+04 -0.32811273843E+03 -0.28541376501E+03  0.14475341923E+04  0.00000000000E+00 0.  1.
        -11    1    3    3    0    0  0.43426823390E+03 -0.13672679539E+03 -0.13517537652E+03  0.47492683434E+03  0.00000000000E+00 0. -1.
         22    1    1    2    0    0 -0.18149333821E+04  0.46483953382E+03 -0.65899061883E+03  0.19860331340E+04  0.00000000000E+00 0.  1.
<mgrwt>
<rscale>  0 0.37564390E+04</rscale>
<asrwt>0</asrwt>
<pdfrwt beam="1">  1        2 0.38369799E+00 0.37564390E+04</pdfrwt>
<pdfrwt beam="2">  1       -2 0.21760880E+00 0.37564390E+04</pdfrwt>
<totfact> 0.28898831E-01</totfact>
</mgrwt>
</event>
<event>
 6    1  0.2325157E-005  0.3063659E+04  0.7818608E-02  0.8225783E-01
         -2   -1    0    0    0  501 -0.00000000000E+00  0.00000000000E+00  0.17376307452E+04  0.17376307452E+04  0.00000000000E+00 0. -1.
          2   -1    0    0  501    0  0.00000000000E+00 -0.00000000000E+00 -0.13504033514E+04  0.13504033514E+04  0.00000000000E+00 0.  1.
         23    2    1    2    0    0 -0.11639825790E+04 -0.41923254844E+03  0.11017846488E+04  0.16593271832E+04  0.93946341032E+02 0.  0.
         13    1    3    3    0    0 -0.74021052860E+03 -0.31197994113E+03  0.69494845725E+03  0.10621659327E+04  0.00000000000E+00 0. -1.
        -13    1    3    3    0    0 -0.42377205035E+03 -0.10725260731E+03  0.40683619152E+03  0.59716125056E+03  0.00000000000E+00 0.  1.
         22    1    1    2    0    0  0.11639825790E+04  0.41923254844E+03 -0.71455725494E+03  0.14287069134E+04  0.00000000000E+00 0.  1.
<mgrwt>
<rscale>  0 0.30636595E+04</rscale>
<asrwt>0</asrwt>
<pdfrwt beam="1">  1        2 0.20775436E+00 0.30636595E+04</pdfrwt>
<pdfrwt beam="2">  1       -2 0.26732780E+00 0.30636595E+04</pdfrwt>
<totfact> 0.66223290E-01</totfact>
</mgrwt>
</event>
<event>
 6    1  0.2325157E-005  0.3126919E+04  0.7818608E-02  0.8208389E-01
          2   -1    0    0  501    0  0.00000000000E+00  0.00000000000E+00  0.22598082161E+04  0.22598082161E+04  0.00000000000E+00 0.  1.
         -2   -1    0    0    0  501 -0.00000000000E+00 -0.00000000000E+00 -0.10816873646E+04  0.10816873646E+04  0.00000000000E+00 0. -1.
         23    2    1    2    0    0  0.68572133367E+03 -0.96450520266E+03  0.16792378135E+04  0.20563488019E+04  0.90811493014E+02 0.  0.
         13    1    3    3    0    0  0.22288315550E+03 -0.34289342682E+03  0.51256268421E+03  0.65572349996E+03  0.00000000000E+00 0.  1.
        -13    1    3    3    0    0  0.46283817818E+03 -0.62161177584E+03  0.11666751293E+04  0.14006253020E+04  0.00000000000E+00 0. -1.
         22    1    1    2    0    0 -0.68572133367E+03  0.96450520266E+03 -0.50111696208E+03  0.12851467788E+04  0.00000000000E+00 0.  1.
<mgrwt>
<rscale>  0 0.31269192E+04</rscale>
<asrwt>0</asrwt>
<pdfrwt beam="1">  1        2 0.34766280E+00 0.31269192E+04</pdfrwt>
<pdfrwt beam="2">  1       -2 0.16641344E+00 0.31269192E+04</pdfrwt>
<totfact> 0.91520469E-01</totfact>
</mgrwt>
</event>
<event>
 6    1  0.2325157E-005  0.2902734E+04  0.7818608E-02  0.8272065E-01
         -2   -1    0    0    0  501 -0.00000000000E+00  0.00000000000E+00  0.79845553037E+03  0.79845553037E+03  0.00000000000E+00 0. -1.
          2   -1    0    0  501    0  0.00000000000E+00 -0.00000000000E+00 -0.26381750887E+04  0.26381750887E+04  0.00000000000E+00 0.  1.
         23    2    1    2    0    0  0.69333604555E+03 -0.11541910382E+04 -0.28384751179E+03  0.13790568901E+04  0.91414832039E+02 0.  0.
         13    1    3    3    0    0  0.43599678606E+03 -0.68649114042E+03 -0.13051094948E+03  0.82364822058E+03  0.00000000000E+00 0.  1.
        -13    1    3    3    0    0  0.25733925949E+03 -0.46769989779E+03 -0.15333656232E+03  0.55540866955E+03  0.00000000000E+00 0. -1.
         22    1    1    2    0    0 -0.69333604555E+03  0.11541910382E+04 -0.15558720465E+04  0.20575737289E+04  0.00000000000E+00 0.  1.
<mgrwt>
<rscale>  0 0.29027335E+04</rscale>
<asrwt>0</asrwt>
<pdfrwt beam="1">  1        2 0.40587309E+00 0.29027335E+04</pdfrwt>
<pdfrwt beam="2">  1       -2 0.12283931E+00 0.29027335E+04</pdfrwt>
<totfact> 0.12485491E+00</totfact>
</mgrwt>
</event>
<event>
 6    1  0.2325157E-005  0.1068474E+04  0.7818608E-02  0.9236476E-01
          2   -1    0    0  501    0  0.00000000000E+00  0.00000000000E+00  0.27664223594E+04  0.27664223594E+04  0.00000000000E+00 0.  1.
         -2   -1    0    0    0  501 -0.00000000000E+00 -0.00000000000E+00 -0.10316909197E+03  0.10316909197E+03  0.00000000000E+00 0. -1.
         23    2    1    2    0    0 -0.24454843239E+03  0.31221994191E+03  0.22870381433E+04  0.23229443554E+04  0.90784257505E+02 0.  0.
         11    1    3    3    0    0 -0.83132642770E+02  0.14677284669E+03  0.75863676524E+03  0.77716346183E+03  0.00000000000E+00 0. -1.
        -11    1    3    3    0    0 -0.16141578962E+03  0.16544709522E+03  0.15284013781E+04  0.15457808936E+04  0.00000000000E+00 0.  1.
         22    1    1    2    0    0  0.24454843239E+03 -0.31221994191E+03  0.37621512411E+03  0.54664709595E+03  0.00000000000E+00 0. -1.
<mgrwt>
<rscale>  0 0.10684742E+04</rscale>
<asrwt>0</asrwt>
<pdfrwt beam="1">  1        2 0.42560338E+00 0.10684742E+04</pdfrwt>
<pdfrwt beam="2">  1       -2 0.15872170E-01 0.10684742E+04</pdfrwt>
<totfact> 0.78037699E+01</totfact>
</mgrwt>
</event>
<event>
 6    1  0.2325157E-005  0.9695538E+03  0.7818608E-02  0.9342583E-01
          2   -1    0    0  501    0  0.00000000000E+00  0.00000000000E+00  0.28687220095E+04  0.28687220095E+04  0.00000000000E+00 0.  1.
         -2   -1    0    0    0  501 -0.00000000000E+00 -0.00000000000E+00 -0.81921029787E+02  0.81921029787E+02  0.00000000000E+00 0. -1.
         23    2    1    2    0    0 -0.37134744238E+03 -0.59886356881E+02  0.23158684839E+04  0.23479302434E+04  0.89689991245E+02 0.  0.
         11    1    3    3    0    0 -0.18836614017E+03 -0.66727291639E+02  0.10446850102E+04  0.10636263934E+04  0.00000000000E+00 0.  1.
        -11    1    3    3    0    0 -0.18298130221E+03  0.68409347581E+01  0.12711834737E+04  0.12843038500E+04  0.00000000000E+00 0. -1.
         22    1    1    2    0    0  0.37134744238E+03  0.59886356881E+02  0.47093249584E+03  0.60271279589E+03  0.00000000000E+00 0. -1.
<mgrwt>
<rscale>  0 0.96955384E+03</rscale>
<asrwt>0</asrwt>
<pdfrwt beam="1">  1        2 0.44134177E+00 0.96955384E+03</pdfrwt>
<pdfrwt beam="2">  1       -2 0.12603238E-01 0.96955384E+03</pdfrwt>
<totfact> 0.10102422E+02</totfact>
</mgrwt>
</event>
<event>
 6    1  0.2325157E-005  0.3438050E+04  0.7818608E-02  0.8128630E-01
          2   -1    0    0  501    0  0.00000000000E+00  0.00000000000E+00  0.19337138647E+04  0.19337138647E+04  0.00000000000E+00 0.  1.
         -2   -1    0    0    0  501 -0.00000000000E+00 -0.00000000000E+00 -0.15281717282E+04  0.15281717282E+04  0.00000000000E+00 0. -1.
         23    2    1    2    0    0  0.66514623384E+03  0.15318515416E+04 -0.20219876880E+03  0.16847143389E+04  0.91593688707E+02 0.  0.
         11    1    3    3    0    0  0.65712137488E+02  0.19919601578E+03 -0.17181879975E+01  0.20976198389E+03  0.00000000000E+00 0.  1.
        -11    1    3    3    0    0  0.59943409635E+03  0.13326555258E+04 -0.20048058080E+03  0.14749523550E+04  0.00000000000E+00 0. -1.
         22    1    1    2    0    0 -0.66514623384E+03 -0.15318515416E+04  0.60774090531E+03  0.17771712540E+04  0.00000000000E+00 0.  1.
<mgrwt>
<rscale>  0 0.34380499E+04</rscale>
<asrwt>0</asrwt>
<pdfrwt beam="1">  1        2 0.29749444E+00 0.34380499E+04</pdfrwt>
<pdfrwt beam="2">  1       -2 0.23510334E+00 0.34380499E+04</pdfrwt>
<totfact> 0.47724984E-01</totfact>
</mgrwt>
</event>
<event>
 6    1  0.2325157E-005  0.2010050E+04  0.7818608E-02  0.8601936E-01
          2   -1    0    0  501    0  0.00000000000E+00  0.00000000000E+00  0.82136396581E+03  0.82136396581E+03  0.00000000000E+00 0.  1.
         -2   -1    0    0    0  501 -0.00000000000E+00 -0.00000000000E+00 -0.12297538592E+04  0.12297538592E+04  0.00000000000E+00 0. -1.
         23    2    1    2    0    0  0.61058416083E+03  0.27332696908E+03  0.55796088201E+03  0.87580745299E+03  0.90541147354E+02 0.  0.
         11    1    3    3    0    0  0.10058960045E+03  0.73723014556E+02  0.74439374007E+02  0.14523970186E+03  0.00000000000E+00 0. -1.
        -11    1    3    3    0    0  0.50999456038E+03  0.19960395452E+03  0.48352150801E+03  0.73056775112E+03  0.00000000000E+00 0.  1.
         22    1    1    2    0    0 -0.61058416083E+03 -0.27332696908E+03 -0.96635077539E+03  0.11753103720E+04  0.00000000000E+00 0. -1.
<mgrwt>
<rscale>  0 0.20100503E+04</rscale>
<asrwt>0</asrwt>
<pdfrwt beam="1">  1        2 0.12636369E+00 0.20100503E+04</pdfrwt>
<pdfrwt beam="2">  1       -2 0.18919290E+00 0.20100503E+04</pdfrwt>
<totfact> 0.48421411E+00</totfact>
</mgrwt>
</event>
<event>
 6    1  0.2325157E-005  0.1142243E+04  0.7818608E-02  0.9164970E-01
         -2   -1    0    0    0  501 -0.00000000000E+00  0.00000000000E+00  0.36296184510E+03  0.36296184510E+03  0.00000000000E+00 0. -1.
          2   -1    0    0  501    0  0.00000000000E+00 -0.00000000000E+00 -0.89866082732E+03  0.89866082732E+03  0.00000000000E+00 0.  1.
         23    2    1    2    0    0 -0.21488565580E+03  0.52432234534E+03 -0.23577314065E+03  0.62049454378E+03  0.91294786923E+02 0.  0.
         11    1    3    3    0    0 -0.15384138723E+03  0.36649058717E+03 -0.11904211212E+03  0.41491390356E+03  0.00000000000E+00 0. -1.
        -11    1    3    3    0    0 -0.61044268570E+02  0.15783175817E+03 -0.11673102853E+03  0.20558064022E+03  0.00000000000E+00 0.  1.
         22    1    1    2    0    0  0.21488565580E+03 -0.52432234534E+03 -0.29992584158E+03  0.64112812864E+03  0.00000000000E+00 0.  1.
<mgrwt>
<rscale>  0 0.11422427E+04</rscale>
<asrwt>0</asrwt>
<pdfrwt beam="1">  1        2 0.13825551E+00 0.11422427E+04</pdfrwt>
<pdfrwt beam="2">  1       -2 0.55840285E-01 0.11422427E+04</pdfrwt>
<totfact> 0.87663617E+01</totfact>
</mgrwt>
</event>
<event>
 6    1  0.2325157E-005  0.3043799E+04  0.7818608E-02  0.8231333E-01
          2   -1    0    0  501    0  0.00000000000E+00  0.00000000000E+00  0.25988906018E+04  0.25988906018E+04  0.00000000000E+00 0.  1.
         -2   -1    0    0    0  501 -0.00000000000E+00 -0.00000000000E+00 -0.89121782822E+03  0.89121782822E+03  0.00000000000E+00 0. -1.
         23    2    1    2    0    0 -0.84868310832E+03  0.11357961147E+04  0.22497183435E+03  0.14385973022E+04  0.93027086765E+02 0.  0.
         11    1    3    3    0    0 -0.39908205494E+03  0.55207574850E+03  0.15387223150E+03  0.69837724926E+03  0.00000000000E+00 0.  1.
        -11    1    3    3    0    0 -0.44960105338E+03  0.58372036625E+03  0.71099602858E+02  0.74022005289E+03  0.00000000000E+00 0. -1.
         22    1    1    2    0    0  0.84868310832E+03 -0.11357961147E+04  0.14827009392E+04  0.20515111279E+04  0.00000000000E+00 0.  1.
<mgrwt>
<rscale>  0 0.30437987E+04</rscale>
<asrwt>0</asrwt>
<pdfrwt beam="1">  1        2 0.39982932E+00 0.30437987E+04</pdfrwt>
<pdfrwt beam="2">  1       -2 0.13711044E+00 0.30437987E+04</pdfrwt>
<totfact> 0.98528359E-01</totfact>
</mgrwt>
</event>
<event>
 6    1  0.2325157E-005  0.3921433E+04  0.7818608E-02  0.8020586E-01
          2   -1    0    0  501    0  0.00000000000E+00  0.00000000000E+00  0.27764485740E+04  0.27764485740E+04  0.00000000000E+00 0.  1.
         -2   -1    0    0    0  501 -0.00000000000E+00 -0.00000000000E+00 -0.13846497313E+04  0.13846497313E+04  0.00000000000E+00 0. -1.
         23    2    1    2    0    0 -0.86170097342E+03  0.27477970598E+03 -0.11484521849E+04  0.14646362273E+04  0.90467689010E+02 0.  0.
         11    1    3    3    0    0 -0.24320671056E+03  0.36836243762E+02 -0.32774489655E+03  0.40978424827E+03  0.00000000000E+00 0.  1.
        -11    1    3    3    0    0 -0.61849426287E+03  0.23794346222E+03 -0.82070728839E+03  0.10548519790E+04  0.00000000000E+00 0. -1.
         22    1    1    2    0    0  0.86170097342E+03 -0.27477970598E+03  0.25402510276E+04  0.26964620779E+04  0.00000000000E+00 0.  1.
<mgrwt>
<rscale>  0 0.39214328E+04</rscale>
<asrwt>0</asrwt>
<pdfrwt beam="1">  1        2 0.42714593E+00 0.39214328E+04</pdfrwt>
<pdfrwt beam="2">  1       -2 0.21302304E+00 0.39214328E+04</pdfrwt>
<totfact> 0.20765781E-01</totfact>
</mgrwt>
</event>
<event>
 6    1  0.2325157E-005  0.3008176E+04  0.7818608E-02  0.8241400E-01
          2   -1    0    0  501    0  0.00000000000E+00  0.00000000000E+00  0.22064826859E+04  0.22064826859E+04  0.00000000000E+00 0.  1.
         -2   -1    0    0    0  501 -0.00000000000E+00 -0.00000000000E+00 -0.10252879806E+04  0.10252879806E+04  0.00000000000E+00 0. -1.
         23    2    1    2    0    0  0.95162277183E+03 -0.91873649576E+03 -0.17490909851E+03  0.13373894547E+04  0.91404115690E+02 0.  0.
         13    1    3    3    0    0  0.61371159492E+03 -0.54559050017E+03 -0.79344769798E+02  0.82498879272E+03  0.00000000000E+00 0. -1.
        -13    1    3    3    0    0  0.33791117692E+03 -0.37314599559E+03 -0.95564328715E+02  0.51240066201E+03  0.00000000000E+00 0.  1.
         22    1    1    2    0    0 -0.95162277183E+03  0.91873649576E+03  0.13561038038E+04  0.18943812117E+04  0.00000000000E+00 0.  1.
<mgrwt>
<rscale>  0 0.30081756E+04</rscale>
<asrwt>0</asrwt>
<pdfrwt beam="1">  1        2 0.33945887E+00 0.30081756E+04</pdfrwt>
<pdfrwt beam="2">  1       -2 0.15773661E+00 0.30081756E+04</pdfrwt>
<totfact> 0.11469367E+00</totfact>
</mgrwt>
</event>
<event>
 6    1  0.2325157E-005  0.4824339E+04  0.7818608E-02  0.7856191E-01
         -2   -1    0    0    0  501 -0.00000000000E+00  0.00000000000E+00  0.14147066205E+04  0.14147066205E+04  0.00000000000E+00 0. -1.
          2   -1    0    0  501    0  0.00000000000E+00 -0.00000000000E+00 -0.41129109920E+04  0.41129109920E+04  0.00000000000E+00 0.  1.
         23    2    1    2    0    0 -0.67644961072E+03  0.20345026350E+04 -0.26138354957E+04  0.33819468188E+04  0.92969023002E+02 0.  0.
         13    1    3    3    0    0 -0.58846161039E+03  0.17096737323E+04 -0.21584138106E+04  0.28156742560E+04  0.00000000000E+00 0.  1.
        -13    1    3    3    0    0 -0.87988000320E+02  0.32482890273E+03 -0.45542168505E+03  0.56627256287E+03  0.00000000000E+00 0. -1.
         22    1    1    2    0    0  0.67644961072E+03 -0.20345026350E+04 -0.84368875844E+02  0.21456707937E+04  0.00000000000E+00 0. -1.
<mgrwt>
<rscale>  0 0.48243393E+04</rscale>
<asrwt>0</asrwt>
<pdfrwt beam="1">  1        2 0.63275555E+00 0.48243393E+04</pdfrwt>
<pdfrwt beam="2">  1       -2 0.21764717E+00 0.48243393E+04</pdfrwt>
<totfact> 0.20732826E-02</totfact>
</mgrwt>
</event>
<event>
 6    1  0.2325157E-005  0.1818412E+04  0.7818608E-02  0.8696569E-01
         -2   -1    0    0    0  501 -0.00000000000E+00  0.00000000000E+00  0.80769702381E+03  0.80769702381E+03  0.00000000000E+00 0. -1.
          2   -1    0    0  501    0  0.00000000000E+00 -0.00000000000E+00 -0.10234719373E+04  0.10234719373E+04  0.00000000000E+00 0.  1.
         23    2    1    2    0    0  0.41316287949E+03 -0.51864552382E+03  0.51491134853E+03  0.84445767716E+03  0.90985313694E+02 0.  0.
         11    1    3    3    0    0  0.21134867655E+03 -0.19975298454E+03  0.24834701054E+03  0.38242091412E+03  0.00000000000E+00 0.  1.
        -11    1    3    3    0    0  0.20181420294E+03 -0.31889253927E+03  0.26656433799E+03  0.46203676304E+03  0.00000000000E+00 0. -1.
         22    1    1    2    0    0 -0.41316287949E+03  0.51864552382E+03 -0.73068626203E+03  0.98671128396E+03  0.00000000000E+00 0.  1.
<mgrwt>
<rscale>  0 0.18184117E+04</rscale>
<asrwt>0</asrwt>
<pdfrwt beam="1">  1        2 0.15745722E+00 0.18184117E+04</pdfrwt>
<pdfrwt beam="2">  1       -2 0.12426108E+00 0.18184117E+04</pdfrwt>
<totfact> 0.11163494E+01</totfact>
</mgrwt>
</event>
<event>
 6    1  0.2325157E-005  0.1412649E+04  0.7818608E-02  0.8944713E-01
          2   -1    0    0  501    0  0.00000000000E+00  0.00000000000E+00  0.91051988922E+03  0.91051988922E+03  0.00000000000E+00 0.  1.
         -2   -1    0    0    0  501 -0.00000000000E+00 -0.00000000000E+00 -0.54792283177E+03  0.54792283177E+03  0.00000000000E+00 0. -1.
         23    2    1    2    0    0 -0.35159462486E+03 -0.60569421340E+03  0.25120895884E+03  0.74929423944E+03  0.88609569916E+02 0.  0.
         11    1    3    3    0    0 -0.10693050162E+03 -0.25544674262E+03  0.73057975159E+02  0.28639943824E+03  0.00000000000E+00 0. -1.
        -11    1    3    3    0    0 -0.24466412324E+03 -0.35024747078E+03  0.17815098368E+03  0.46289480120E+03  0.00000000000E+00 0.  1.
         22    1    1    2    0    0  0.35159462486E+03  0.60569421340E+03  0.11138809862E+03  0.70914848155E+03  0.00000000000E+00 0.  1.
<mgrwt>
<rscale>  0 0.14126495E+04</rscale>
<asrwt>0</asrwt>
<pdfrwt beam="1">  1        2 0.14007998E+00 0.14126495E+04</pdfrwt>
<pdfrwt beam="2">  1       -2 0.84295820E-01 0.14126495E+04</pdfrwt>
<totfact> 0.34454712E+01</totfact>
</mgrwt>
</event>
<event>
 6    1  0.2325157E-005  0.4218008E+04  0.7818608E-02  0.7961956E-01
          2   -1    0    0  501    0  0.00000000000E+00  0.00000000000E+00  0.34440902745E+04  0.34440902745E+04  0.00000000000E+00 0.  1.
         -2   -1    0    0    0  501 -0.00000000000E+00 -0.00000000000E+00 -0.12914576868E+04  0.12914576868E+04  0.00000000000E+00 0. -1.
         23    2    1    2    0    0 -0.98434213653E+03  0.17140114502E+03 -0.10070755472E+04  0.14216283347E+04  0.92293931978E+02 0.  0.
         11    1    3    3    0    0 -0.94145527663E+03  0.14998896206E+03 -0.93689909604E+03  0.13366430499E+04  0.00000000000E+00 0.  1.
        -11    1    3    3    0    0 -0.42886859896E+02  0.21412182952E+02 -0.70176451190E+02  0.84985284798E+02  0.00000000000E+00 0. -1.
         22    1    1    2    0    0  0.98434213653E+03 -0.17140114502E+03  0.31597081349E+04  0.33139196267E+04  0.00000000000E+00 0.  1.
<mgrwt>
<rscale>  0 0.42180075E+04</rscale>
<asrwt>0</asrwt>
<pdfrwt beam="1">  1        2 0.52986004E+00 0.42180075E+04</pdfrwt>
<pdfrwt beam="2">  1       -2 0.19868580E+00 0.42180075E+04</pdfrwt>
<totfact> 0.93353658E-02</totfact>
</mgrwt>
</event>
<event>
 6    1  0.2325157E-005  0.3814748E+04  0.7818608E-02  0.8042997E-01
         -2   -1    0    0    0  501 -0.00000000000E+00  0.00000000000E+00  0.98175285785E+03  0.98175285785E+03  0.00000000000E+00 0. -1.
          2   -1    0    0  501    0  0.00000000000E+00 -0.00000000000E+00 -0.37056933418E+04  0.37056933418E+04  0.00000000000E+00 0.  1.
         23    2    1    2    0    0 -0.49954231844E+02 -0.83957618500E+03  0.73925941977E+03  0.11235807183E+04  0.92442118124E+02 0.  0.
         11    1    3    3    0    0 -0.58595388194E+02 -0.77755112105E+03  0.70954609655E+03  0.10542650656E+04  0.00000000000E+00 0.  1.
        -11    1    3    3    0    0  0.86411563507E+01 -0.62025063950E+02  0.29713323220E+02  0.69315652762E+02  0.00000000000E+00 0. -1.
         22    1    1    2    0    0  0.49954231844E+02  0.83957618500E+03 -0.34631999037E+04  0.35638654813E+04  0.00000000000E+00 0.  1.
<mgrwt>
<rscale>  0 0.38147477E+04</rscale>
<asrwt>0</asrwt>
<pdfrwt beam="1">  1        2 0.57010665E+00 0.38147477E+04</pdfrwt>
<pdfrwt beam="2">  1       -2 0.15103891E+00 0.38147477E+04</pdfrwt>
<totfact> 0.13586185E-01</totfact>
</mgrwt>
</event>
<event>
 6    1  0.2325157E-005  0.2680783E+03  0.7818608E-02  0.1102385E+00
         -2   -1    0    0    0  501 -0.00000000000E+00  0.00000000000E+00  0.27199298421E+03  0.27199298421E+03  0.00000000000E+00 0. -1.
          2   -1    0    0  501    0  0.00000000000E+00 -0.00000000000E+00 -0.66054982244E+02  0.66054982244E+02  0.00000000000E+00 0.  1.
         23    2    1    2    0    0  0.11468389409E+03  0.16695403239E+02  0.14777488017E+03  0.20837884604E+03  0.90295050883E+02 0.  0.
         11    1    3    3    0    0  0.75833938576E+02  0.36231181873E+02  0.41875807608E+02  0.93899244101E+02  0.00000000000E+00 0. -1.
        -11    1    3    3    0    0  0.38849955513E+02 -0.19535778635E+02  0.10589907256E+03  0.11447960194E+03  0.00000000000E+00 0.  1.
         22    1    1    2    0    0 -0.11468389409E+03 -0.16695403239E+02  0.58163121797E+02  0.12966912042E+03  0.00000000000E+00 0.  1.
<mgrwt>
<rscale>  0 0.26807829E+03</rscale>
<asrwt>0</asrwt>
<pdfrwt beam="1">  1        2 0.10162305E-01 0.26807829E+03</pdfrwt>
<pdfrwt beam="2">  1       -2 0.41845074E-01 0.26807829E+03</pdfrwt>
<totfact> 0.34095497E+03</totfact>
</mgrwt>
</event>
<event>
 6    1  0.2325157E-005  0.1801958E+04  0.7818608E-02  0.8705259E-01
         -2   -1    0    0    0  501 -0.00000000000E+00  0.00000000000E+00  0.52659803665E+03  0.52659803665E+03  0.00000000000E+00 0. -1.
          2   -1    0    0  501    0  0.00000000000E+00 -0.00000000000E+00 -0.15415228420E+04  0.15415228420E+04  0.00000000000E+00 0.  1.
         23    2    1    2    0    0  0.62569024210E+03  0.13066036785E+03 -0.12337960100E+04  0.13924989319E+04  0.90775934924E+02 0.  0.
         13    1    3    3    0    0  0.45239064675E+03  0.13524637675E+03 -0.89356445301E+03  0.10106464819E+04  0.00000000000E+00 0.  1.
        -13    1    3    3    0    0  0.17329959534E+03 -0.45860089075E+01 -0.34023155697E+03  0.38185245001E+03  0.00000000000E+00 0. -1.
         22    1    1    2    0    0 -0.62569024210E+03 -0.13066036785E+03  0.21887120458E+03  0.67562194678E+03  0.00000000000E+00 0. -1.
<mgrwt>
<rscale>  0 0.18019577E+04</rscale>
<asrwt>0</asrwt>
<pdfrwt beam="1">  1        2 0.23715736E+00 0.18019577E+04</pdfrwt>
<pdfrwt beam="2">  1       -2 0.81015084E-01 0.18019577E+04</pdfrwt>
<totfact> 0.15253114E+01</totfact>
</mgrwt>
</event>
<event>
 6    1  0.2325157E-005  0.2270003E+04  0.7818608E-02  0.8489843E-01
          2   -1    0    0  501    0  0.00000000000E+00  0.00000000000E+00  0.26643512716E+04  0.26643512716E+04  0.00000000000E+00 0. -1.
         -2   -1    0    0    0  501 -0.00000000000E+00 -0.00000000000E+00 -0.48350564252E+03  0.48350564252E+03  0.00000000000E+00 0.  1.
         23    2    1    2    0    0 -0.34345027017E+03  0.10758702329E+04  0.96458490795E+03  0.14881144679E+04  0.92767336802E+02 0.  0.
         13    1    3    3    0    0 -0.94456120821E+02  0.17935343450E+03  0.17448721654E+03  0.26746102886E+03  0.00000000000E+00 0.  1.
        -13    1    3    3    0    0 -0.24899414935E+03  0.89651679838E+03  0.79009769141E+03  0.12206534390E+04  0.00000000000E+00 0. -1.
         22    1    1    2    0    0  0.34345027017E+03 -0.10758702329E+04  0.12162607211E+04  0.16597424462E+04  0.00000000000E+00 0.  1.
<mgrwt>
<rscale>  0 0.22700034E+04</rscale>
<asrwt>0</asrwt>
<pdfrwt beam="1">  1        2 0.40990019E+00 0.22700034E+04</pdfrwt>
<pdfrwt beam="2">  1       -2 0.74385485E-01 0.22700034E+04</pdfrwt>
<totfact> 0.41218663E+00</totfact>
</mgrwt>
</event>
<event>
 6    1  0.2325157E-005  0.2122707E+04  0.7818608E-02  0.8551306E-01
          2   -1    0    0  501    0  0.00000000000E+00  0.00000000000E+00  0.79473738836E+03  0.79473738836E+03  0.00000000000E+00 0.  1.
         -2   -1    0    0    0  501 -0.00000000000E+00 -0.00000000000E+00 -0.14174131812E+04  0.14174131812E+04  0.00000000000E+00 0. -1.
         23    2    1    2    0    0  0.84329857003E+03 -0.28862389493E+03 -0.90872235623E+03  0.12760528891E+04  0.89880054272E+02 0.  0.
         11    1    3    3    0    0  0.59036232935E+03 -0.23840069727E+03 -0.61521994974E+03  0.88535764465E+03  0.00000000000E+00 0. -1.
        -11    1    3    3    0    0  0.25293624068E+03 -0.50223197662E+02 -0.29350240649E+03  0.39069524446E+03  0.00000000000E+00 0.  1.
         22    1    1    2    0    0 -0.84329857003E+03  0.28862389493E+03  0.28604656338E+03  0.93609768046E+03  0.00000000000E+00 0.  1.
<mgrwt>
<rscale>  0 0.21227070E+04</rscale>
<asrwt>0</asrwt>
<pdfrwt beam="1">  1        2 0.12226729E+00 0.21227070E+04</pdfrwt>
<pdfrwt beam="2">  1       -2 0.21806356E+00 0.21227070E+04</pdfrwt>
<totfact> 0.32485623E+00</totfact>
</mgrwt>
</event>
<event>
 6    1  0.2325157E-005  0.2053590E+04  0.7818608E-02  0.8581967E-01
         -2   -1    0    0    0  501 -0.00000000000E+00  0.00000000000E+00  0.82465996706E+03  0.82465996706E+03  0.00000000000E+00 0. -1.
          2   -1    0    0  501    0  0.00000000000E+00 -0.00000000000E+00 -0.12784760139E+04  0.12784760139E+04  0.00000000000E+00 0.  1.
         23    2    1    2    0    0  0.38880490963E+03 -0.43484529545E+03  0.63561281039E+03  0.86737106654E+03  0.89828913022E+02 0.  0.
         13    1    3    3    0    0  0.17975663387E+03 -0.15718334886E+03  0.30821379860E+03  0.38989075166E+03  0.00000000000E+00 0. -1.
        -13    1    3    3    0    0  0.20904827576E+03 -0.27766194659E+03  0.32739901179E+03  0.47748031489E+03  0.00000000000E+00 0.  1.
         22    1    1    2    0    0 -0.38880490963E+03  0.43484529545E+03 -0.10894288573E+04  0.12357649144E+04  0.00000000000E+00 0.  1.
<mgrwt>
<rscale>  0 0.20535900E+04</rscale>
<asrwt>0</asrwt>
<pdfrwt beam="1">  1        2 0.19668862E+00 0.20535900E+04</pdfrwt>
<pdfrwt beam="2">  1       -2 0.12687077E+00 0.20535900E+04</pdfrwt>
<totfact> 0.72723960E+00</totfact>
</mgrwt>
</event>
<event>
 6    1  0.2325157E-005  0.1346841E+04  0.7818608E-02  0.8993223E-01
          2   -1    0    0  501    0  0.00000000000E+00  0.00000000000E+00  0.31236016910E+04  0.31236016910E+04  0.00000000000E+00 0.  1.
         -2   -1    0    0    0  501 -0.00000000000E+00 -0.00000000000E+00 -0.14518333919E+03  0.14518333919E+03  0.00000000000E+00 0. -1.
         23    2    1    2    0    0 -0.40407735568E+03  0.53403900170E+03  0.14298465597E+04  0.15816126145E+04  0.92526285950E+02 0.  0.
         11    1    3    3    0    0 -0.17028455813E+03  0.22061734112E+03  0.70379939890E+03  0.75696924365E+03  0.00000000000E+00 0.  1.
        -11    1    3    3    0    0 -0.23379279755E+03  0.31342166057E+03  0.72604716077E+03  0.82464337090E+03  0.00000000000E+00 0. -1.
         22    1    1    2    0    0  0.40407735568E+03 -0.53403900170E+03  0.15485717922E+04  0.16871724157E+04  0.00000000000E+00 0. -1.
<mgrwt>
<rscale>  0 0.13468406E+04</rscale>
<asrwt>0</asrwt>
<pdfrwt beam="1">  1        2 0.48055406E+00 0.13468406E+04</pdfrwt>
<pdfrwt beam="2">  1       -2 0.22335901E-01 0.13468406E+04</pdfrwt>
<totfact> 0.25259099E+01</totfact>
</mgrwt>
</event>
<event>
 6    1  0.2325157E-005  0.1753943E+04  0.7818608E-02  0.8731183E-01
         -2   -1    0    0    0  501 -0.00000000000E+00  0.00000000000E+00  0.11658088931E+04  0.11658088931E+04  0.00000000000E+00 0. -1.
          2   -1    0    0  501    0  0.00000000000E+00 -0.00000000000E+00 -0.65969577346E+03  0.65969577346E+03  0.00000000000E+00 0.  1.
         23    2    1    2    0    0 -0.44084796138E+03  0.67123574133E+03 -0.10694869878E+03  0.81518336188E+03  0.90451886759E+02 0.  0.
         13    1    3    3    0    0 -0.27976526992E+03  0.42778991610E+03 -0.11178790316E+03  0.52322973335E+03  0.00000000000E+00 0.  1.
        -13    1    3    3    0    0 -0.16108269147E+03  0.24344582524E+03  0.48392043783E+01  0.29195362854E+03  0.00000000000E+00 0. -1.
         22    1    1    2    0    0  0.44084796138E+03 -0.67123574133E+03  0.61306181844E+03  0.10103213047E+04  0.00000000000E+00 0. -1.
<mgrwt>
<rscale>  0 0.17539432E+04</rscale>
<asrwt>0</asrwt>
<pdfrwt beam="1">  1        2 0.10149166E+00 0.17539432E+04</pdfrwt>
<pdfrwt beam="2">  1       -2 0.17935521E+00 0.17539432E+04</pdfrwt>
<totfact> 0.76565410E+00</totfact>
</mgrwt>
</event>
<event>
 6    1  0.2325157E-005  0.1878932E+04  0.7818608E-02  0.8665415E-01
          2   -1    0    0  501    0  0.00000000000E+00  0.00000000000E+00  0.18693694221E+04  0.18693694221E+04  0.00000000000E+00 0.  1.
         -2   -1    0    0    0  501 -0.00000000000E+00 -0.00000000000E+00 -0.47213605745E+03  0.47213605745E+03  0.00000000000E+00 0. -1.
         23    2    1    2    0    0  0.25440808187E+02 -0.54365707976E+03  0.16511757860E+04  0.17409249200E+04  0.90707474183E+02 0.  0.
         11    1    3    3    0    0 -0.28059205122E+02 -0.28612208011E+03  0.92016702688E+03  0.96403346471E+03  0.00000000000E+00 0. -1.
        -11    1    3    3    0    0  0.53500013309E+02 -0.25753499965E+03  0.73100875910E+03  0.77689145532E+03  0.00000000000E+00 0.  1.
         22    1    1    2    0    0 -0.25440808187E+02  0.54365707976E+03 -0.25394242134E+03  0.60058055951E+03  0.00000000000E+00 0. -1.
<mgrwt>
<rscale>  0 0.18789324E+04</rscale>
<asrwt>0</asrwt>
<pdfrwt beam="1">  1        2 0.28759529E+00 0.18789324E+04</pdfrwt>
<pdfrwt beam="2">  1       -2 0.72636318E-01 0.18789324E+04</pdfrwt>
<totfact> 0.12696436E+01</totfact>
</mgrwt>
</event>
<event>
 6    1  0.2325157E-005  0.1809248E+04  0.7818608E-02  0.8701397E-01
         -1   -1    0    0    0  501 -0.00000000000E+00  0.00000000000E+00  0.83547130229E+03  0.83547130229E+03  0.00000000000E+00 0. -1.
          1   -1    0    0  501    0  0.00000000000E+00 -0.00000000000E+00 -0.97950001845E+03  0.97950001845E+03  0.00000000000E+00 0.  1.
         23    2    1    2    0    0  0.17355929752E+03  0.88540790053E+03 -0.93281216215E+02  0.91128703470E+03  0.87593916663E+02 0.  0.
         13    1    3    3    0    0  0.62043453027E+02  0.51211914154E+03 -0.31454714262E+02  0.51682183027E+03  0.00000000000E+00 0.  1.
        -13    1    3    3    0    0  0.11151584449E+03  0.37328875899E+03 -0.61826501953E+02  0.39446520443E+03  0.00000000000E+00 0. -1.
         22    1    1    2    0    0 -0.17355929752E+03 -0.88540790053E+03 -0.50747499948E+02  0.90368428604E+03  0.00000000000E+00 0.  1.
<mgrwt>
<rscale>  0 0.18092475E+04</rscale>
<asrwt>0</asrwt>
<pdfrwt beam="1">  1        1 0.15069231E+00 0.18092475E+04</pdfrwt>
<pdfrwt beam="2">  1       -1 0.12853405E+00 0.18092475E+04</pdfrwt>
<totfact> 0.77280436E+00</totfact>
</mgrwt>
</event>
<event>
 6    1  0.2325157E-005  0.1687619E+04  0.7818608E-02  0.8768457E-01
          2   -1    0    0  501    0  0.00000000000E+00  0.00000000000E+00  0.19447439743E+04  0.19447439743E+04  0.00000000000E+00 0.  1.
         -2   -1    0    0    0  501 -0.00000000000E+00 -0.00000000000E+00 -0.36612259113E+03  0.36612259113E+03  0.00000000000E+00 0. -1.
         23    2    1    2    0    0 -0.67634583195E+03 -0.15146684053E+03  0.14447114941E+04  0.16049503193E+04  0.91040309910E+02 0.  0.
         11    1    3    3    0    0 -0.39080339132E+03 -0.94087171970E+02  0.73367580187E+03  0.83657627796E+03  0.00000000000E+00 0.  1.
        -11    1    3    3    0    0 -0.28554244063E+03 -0.57379668557E+02  0.71103569222E+03  0.76837404132E+03  0.00000000000E+00 0. -1.
         22    1    1    2    0    0  0.67634583195E+03  0.15146684053E+03  0.13390988908E+03  0.70591624614E+03  0.00000000000E+00 0. -1.
<mgrwt>
<rscale>  0 0.16876193E+04</rscale>
<asrwt>0</asrwt>
<pdfrwt beam="1">  1        2 0.29919137E+00 0.16876193E+04</pdfrwt>
<pdfrwt beam="2">  1       -2 0.56326554E-01 0.16876193E+04</pdfrwt>
<totfact> 0.20205747E+01</totfact>
</mgrwt>
</event>
<event>
 6    1  0.2325157E-005  0.2787161E+04  0.7818608E-02  0.8307265E-01
         -2   -1    0    0    0  501 -0.00000000000E+00  0.00000000000E+00  0.97279236154E+03  0.97279236154E+03  0.00000000000E+00 0. -1.
          2   -1    0    0  501    0  0.00000000000E+00 -0.00000000000E+00 -0.19963841201E+04  0.19963841201E+04  0.00000000000E+00 0.  1.
         23    2    1    2    0    0  0.12728573875E+04 -0.24334360094E+03  0.29729873406E+02  0.12991859136E+04  0.87281931126E+02 0.  0.
         13    1    3    3    0    0  0.71585192208E+03 -0.13870932055E+03 -0.26551870812E+02  0.72965008861E+03  0.00000000000E+00 0.  1.
        -13    1    3    3    0    0  0.55700546546E+03 -0.10463428039E+03  0.56281744217E+02  0.56953582496E+03  0.00000000000E+00 0. -1.
         22    1    1    2    0    0 -0.12728573875E+04  0.24334360094E+03 -0.10533216320E+04  0.16699905681E+04  0.00000000000E+00 0. -1.
<mgrwt>
<rscale>  0 0.27871614E+04</rscale>
<asrwt>0</asrwt>
<pdfrwt beam="1">  1        2 0.30713601E+00 0.27871614E+04</pdfrwt>
<pdfrwt beam="2">  1       -2 0.14966037E+00 0.27871614E+04</pdfrwt>
<totfact> 0.17625125E+00</totfact>
</mgrwt>
</event>
<event>
 6    1  0.2325157E-005  0.2002504E+04  0.7818608E-02  0.8605451E-01
         -2   -1    0    0    0  501 -0.00000000000E+00  0.00000000000E+00  0.38472708945E+03  0.38472708945E+03  0.00000000000E+00 0. -1.
          2   -1    0    0  501    0  0.00000000000E+00 -0.00000000000E+00 -0.26057564098E+04  0.26057564098E+04  0.00000000000E+00 0.  1.
         23    2    1    2    0    0  0.93365131503E+03 -0.24413937991E+03 -0.72607337364E+03  0.12111009947E+04  0.90962962672E+02 0.  0.
         13    1    3    3    0    0  0.64391436957E+03 -0.19382531718E+03 -0.46204171688E+03  0.81589001530E+03  0.00000000000E+00 0. -1.
        -13    1    3    3    0    0  0.28973694546E+03 -0.50314062729E+02 -0.26403165676E+03  0.39521097941E+03  0.00000000000E+00 0.  1.
         22    1    1    2    0    0 -0.93365131503E+03  0.24413937991E+03 -0.14949559468E+04  0.17793825046E+04  0.00000000000E+00 0.  1.
<mgrwt>
<rscale>  0 0.20025035E+04</rscale>
<asrwt>0</asrwt>
<pdfrwt beam="1">  1        2 0.40088560E+00 0.20025035E+04</pdfrwt>
<pdfrwt beam="2">  1       -2 0.59188783E-01 0.20025035E+04</pdfrwt>
<totfact> 0.74826671E+00</totfact>
</mgrwt>
</event>
<event>
 6    1  0.2325157E-005  0.1863484E+04  0.7818608E-02  0.8673249E-01
          2   -1    0    0  501    0  0.00000000000E+00  0.00000000000E+00  0.24893690324E+04  0.24893690324E+04  0.00000000000E+00 0.  1.
         -2   -1    0    0    0  501 -0.00000000000E+00 -0.00000000000E+00 -0.34874013343E+03  0.34874013343E+03  0.00000000000E+00 0. -1.
         23    2    1    2    0    0  0.32674350303E+03  0.46733237552E+03 -0.45054051902E+02  0.57926635862E+03  0.91426367418E+02 0.  0.
         13    1    3    3    0    0  0.98884458442E+02  0.93362478432E+02 -0.38337621076E+02  0.14129565347E+03  0.00000000000E+00 0. -1.
        -13    1    3    3    0    0  0.22785904459E+03  0.37396989708E+03 -0.67164308261E+01  0.43797070515E+03  0.00000000000E+00 0.  1.
         22    1    1    2    0    0 -0.32674350303E+03 -0.46733237552E+03  0.21856829509E+04  0.22588428072E+04  0.00000000000E+00 0.  1.
<mgrwt>
<rscale>  0 0.18634837E+04</rscale>
<asrwt>0</asrwt>
<pdfrwt beam="1">  1        2 0.38297984E+00 0.18634837E+04</pdfrwt>
<pdfrwt beam="2">  1       -2 0.53652330E-01 0.18634837E+04</pdfrwt>
<totfact> 0.10865980E+01</totfact>
</mgrwt>
</event>
<event>
 6    1  0.2325157E-005  0.9169077E+03  0.7818608E-02  0.9404689E-01
         -2   -1    0    0    0  501 -0.00000000000E+00  0.00000000000E+00  0.44467766858E+03  0.44467766858E+03  0.00000000000E+00 0. -1.
          2   -1    0    0  501    0  0.00000000000E+00 -0.00000000000E+00 -0.47265678309E+03  0.47265678309E+03  0.00000000000E+00 0.  1.
         23    2    1    2    0    0  0.61136120735E+02 -0.28805398620E+03  0.33137447263E+03  0.45274030103E+03  0.91934840203E+02 0.  0.
         11    1    3    3    0    0  0.44912546424E+02 -0.11620642796E+03  0.80888256845E+02  0.14853949246E+03  0.00000000000E+00 0. -1.
        -11    1    3    3    0    0  0.16223574311E+02 -0.17184755824E+03  0.25048621579E+03  0.30420080857E+03  0.00000000000E+00 0.  1.
         22    1    1    2    0    0 -0.61136120735E+02  0.28805398620E+03 -0.35935358713E+03  0.46459415064E+03  0.00000000000E+00 0.  1.
<mgrwt>
<rscale>  0 0.91690766E+03</rscale>
<asrwt>0</asrwt>
<pdfrwt beam="1">  1        2 0.72716428E-01 0.91690766E+03</pdfrwt>
<pdfrwt beam="2">  1       -2 0.68411949E-01 0.91690766E+03</pdfrwt>
<totfact> 0.12887791E+02</totfact>
</mgrwt>
</event>
<event>
 6    1  0.2325157E-005  0.2067915E+04  0.7818608E-02  0.8575510E-01
          2   -1    0    0  501    0  0.00000000000E+00  0.00000000000E+00  0.46655171028E+04  0.46655171028E+04  0.00000000000E+00 0.  1.
         -2   -1    0    0    0  501 -0.00000000000E+00 -0.00000000000E+00 -0.22914239152E+03  0.22914239152E+03  0.00000000000E+00 0. -1.
         23    2    1    2    0    0  0.72172350666E+03  0.69919656882E+03  0.27783539619E+04  0.29558986872E+04  0.91244996459E+02 0.  0.
         11    1    3    3    0    0  0.37225405834E+03  0.32563217969E+03  0.14773922013E+04  0.15579785355E+04  0.00000000000E+00 0. -1.
        -11    1    3    3    0    0  0.34946944832E+03  0.37356438914E+03  0.13009617606E+04  0.13979201518E+04  0.00000000000E+00 0.  1.
         22    1    1    2    0    0 -0.72172350666E+03 -0.69919656882E+03  0.16580207494E+04  0.19387608071E+04  0.00000000000E+00 0. -1.
<mgrwt>
<rscale>  0 0.20679146E+04</rscale>
<asrwt>0</asrwt>
<pdfrwt beam="1">  1        2 0.71777179E+00 0.20679146E+04</pdfrwt>
<pdfrwt beam="2">  1       -2 0.35252679E-01 0.20679146E+04</pdfrwt>
<totfact> 0.59316790E-01</totfact>
</mgrwt>
</event>
<event>
 6    1  0.2325157E-005  0.1136728E+04  0.7818608E-02  0.9170115E-01
         -2   -1    0    0    0  501 -0.00000000000E+00  0.00000000000E+00  0.22174026870E+03  0.22174026870E+03  0.00000000000E+00 0. -1.
          2   -1    0    0  501    0  0.00000000000E+00 -0.00000000000E+00 -0.14568299709E+04  0.14568299709E+04  0.00000000000E+00 0.  1.
         23    2    1    2    0    0  0.29071010908E+03  0.62093761374E+02 -0.13304248772E+04  0.13663895254E+04  0.92854609178E+02 0.  0.
         11    1    3    3    0    0  0.21060212811E+03  0.86448939440E+02 -0.98332430948E+03  0.10093331329E+04  0.00000000000E+00 0.  1.
        -11    1    3    3    0    0  0.80107980973E+02 -0.24355178065E+02 -0.34710056772E+03  0.35705639250E+03  0.00000000000E+00 0. -1.
         22    1    1    2    0    0 -0.29071010908E+03 -0.62093761374E+02  0.95335175030E+02  0.31218071420E+03  0.00000000000E+00 0. -1.
<mgrwt>
<rscale>  0 0.11367284E+04</rscale>
<asrwt>0</asrwt>
<pdfrwt beam="1">  1        2 0.22412768E+00 0.11367284E+04</pdfrwt>
<pdfrwt beam="2">  1       -2 0.34113888E-01 0.11367284E+04</pdfrwt>
<totfact> 0.10696138E+02</totfact>
</mgrwt>
</event>
<event>
 6    1  0.2325157E-005  0.2597033E+04  0.7818608E-02  0.8369210E-01
         -2   -1    0    0    0  501 -0.00000000000E+00  0.00000000000E+00  0.64918454413E+03  0.64918454413E+03  0.00000000000E+00 0. -1.
          2   -1    0    0  501    0  0.00000000000E+00 -0.00000000000E+00 -0.25973275143E+04  0.25973275143E+04  0.00000000000E+00 0.  1.
         23    2    1    2    0    0 -0.19282081172E+03  0.12824223753E+04 -0.97292636821E+03  0.16239109261E+04  0.93348614185E+02 0.  0.
         13    1    3    3    0    0  0.15448033436E+01  0.21256403384E+03 -0.17105803776E+03  0.27284923893E+03  0.00000000000E+00 0. -1.
        -13    1    3    3    0    0 -0.19436561506E+03  0.10698583414E+04 -0.80186833045E+03  0.13510616871E+04  0.00000000000E+00 0.  1.
         22    1    1    2    0    0  0.19282081172E+03 -0.12824223753E+04 -0.97521660194E+03  0.16226011324E+04  0.00000000000E+00 0. -1.
<mgrwt>
<rscale>  0 0.25970328E+04</rscale>
<asrwt>0</asrwt>
<pdfrwt beam="1">  1        2 0.39958884E+00 0.25970328E+04</pdfrwt>
<pdfrwt beam="2">  1       -2 0.99874546E-01 0.25970328E+04</pdfrwt>
<totfact> 0.22383255E+00</totfact>
</mgrwt>
</event>
<event>
 6    1  0.2325157E-005  0.1224513E+04  0.7818608E-02  0.9091667E-01
         -2   -1    0    0    0  501 -0.00000000000E+00  0.00000000000E+00  0.40408054953E+03  0.40408054953E+03  0.00000000000E+00 0. -1.
          2   -1    0    0  501    0  0.00000000000E+00 -0.00000000000E+00 -0.92768168055E+03  0.92768168055E+03  0.00000000000E+00 0.  1.
         23    2    1    2    0    0  0.76435842970E+02  0.55128308500E+03  0.46647041906E+01  0.56441597802E+03  0.93745180593E+02 0.  0.
         13    1    3    3    0    0 -0.11900114041E+01  0.28150649508E+03 -0.22359591432E+02  0.28239559881E+03  0.00000000000E+00 0. -1.
        -13    1    3    3    0    0  0.77625854374E+02  0.26977658992E+03  0.27024295623E+02  0.28202037921E+03  0.00000000000E+00 0.  1.
         22    1    1    2    0    0 -0.76435842970E+02 -0.55128308500E+03 -0.52826583521E+03  0.76734625206E+03  0.00000000000E+00 0. -1.
<mgrwt>
<rscale>  0 0.12245132E+04</rscale>
<asrwt>0</asrwt>
<pdfrwt beam="1">  1        2 0.14272026E+00 0.12245132E+04</pdfrwt>
<pdfrwt beam="2">  1       -2 0.62166239E-01 0.12245132E+04</pdfrwt>
<totfact> 0.66487612E+01</totfact>
</mgrwt>
</event>
<event>
 6    1  0.2325157E-005  0.2013020E+04  0.7818608E-02  0.8600557E-01
          2   -1    0    0  501    0  0.00000000000E+00  0.00000000000E+00  0.27842687069E+04  0.27842687069E+04  0.00000000000E+00 0.  1.
         -2   -1    0    0    0  501 -0.00000000000E+00 -0.00000000000E+00 -0.36385224495E+03  0.36385224495E+03  0.00000000000E+00 0. -1.
         23    2    1    2    0    0 -0.10620443726E+03 -0.43701300695E+03 -0.19209698318E+03  0.49718031657E+03  0.89595008260E+02 0.  0.
         13    1    3    3    0    0 -0.53763250558E+02 -0.10041374781E+03 -0.77480328713E+02  0.13775561403E+03  0.00000000000E+00 0. -1.
        -13    1    3    3    0    0 -0.52441186705E+02 -0.33659925914E+03 -0.11461665447E+03  0.35942470255E+03  0.00000000000E+00 0.  1.
         22    1    1    2    0    0  0.10620443726E+03  0.43701300695E+03  0.26125134451E+04  0.26509406353E+04  0.00000000000E+00 0.  1.
<mgrwt>
<rscale>  0 0.20130200E+04</rscale>
<asrwt>0</asrwt>
<pdfrwt beam="1">  1        2 0.42834902E+00 0.20130200E+04</pdfrwt>
<pdfrwt beam="2">  1       -2 0.55977270E-01 0.20130200E+04</pdfrwt>
<totfact> 0.65831746E+00</totfact>
</mgrwt>
</event>
<event>
 6    1  0.2325157E-005  0.2113855E+04  0.7818608E-02  0.8555165E-01
          2   -1    0    0  501    0  0.00000000000E+00  0.00000000000E+00  0.91399145966E+03  0.91399145966E+03  0.00000000000E+00 0.  1.
         -2   -1    0    0    0  501 -0.00000000000E+00 -0.00000000000E+00 -0.12222163650E+04  0.12222163650E+04  0.00000000000E+00 0. -1.
         23    2    1    2    0    0  0.80007944091E+03 -0.68003137069E+03 -0.25676272095E+03  0.10849142722E+04  0.92423515997E+02 0.  0.
         11    1    3    3    0    0  0.22864383014E+03 -0.25036058348E+03 -0.89085806811E+02  0.35056340909E+03  0.00000000000E+00 0. -1.
        -11    1    3    3    0    0  0.57143561077E+03 -0.42967078721E+03 -0.16767691413E+03  0.73435086313E+03  0.00000000000E+00 0.  1.
         22    1    1    2    0    0 -0.80007944091E+03  0.68003137069E+03 -0.51462184357E+02  0.10512935524E+04  0.00000000000E+00 0. -1.
<mgrwt>
<rscale>  0 0.21138546E+04</rscale>
<asrwt>0</asrwt>
<pdfrwt beam="1">  1        2 0.14061407E+00 0.21138546E+04</pdfrwt>
<pdfrwt beam="2">  1       -2 0.18803329E+00 0.21138546E+04</pdfrwt>
<totfact> 0.42189142E+00</totfact>
</mgrwt>
</event>
<event>
 6    1  0.2325157E-005  0.9662694E+03  0.7818608E-02  0.9346334E-01
          2   -1    0    0  501    0  0.00000000000E+00  0.00000000000E+00  0.97137243564E+03  0.97137243564E+03  0.00000000000E+00 0.  1.
         -2   -1    0    0    0  501 -0.00000000000E+00 -0.00000000000E+00 -0.24029827143E+03  0.24029827143E+03  0.00000000000E+00 0. -1.
         23    2    1    2    0    0  0.12807071898E+03  0.10802804205E+03  0.93134401972E+03  0.95055735629E+03  0.89919061327E+02 0.  0.
         11    1    3    3    0    0 -0.12377538689E+02  0.14874197536E+02  0.15007059764E+03  0.15131301825E+03  0.00000000000E+00 0. -1.
        -11    1    3    3    0    0  0.14044825767E+03  0.93153844515E+02  0.78127342208E+03  0.79924433804E+03  0.00000000000E+00 0.  1.
         22    1    1    2    0    0 -0.12807071898E+03 -0.10802804205E+03 -0.20026985551E+03  0.26111335078E+03  0.00000000000E+00 0. -1.
<mgrwt>
<rscale>  0 0.96626936E+03</rscale>
<asrwt>0</asrwt>
<pdfrwt beam="1">  1        2 0.14944191E+00 0.96626936E+03</pdfrwt>
<pdfrwt beam="2">  1       -2 0.36968965E-01 0.96626936E+03</pdfrwt>
<totfact> 0.18105261E+02</totfact>
</mgrwt>
</event>
<event>
 6    1  0.2325157E-005  0.1542460E+04  0.7818608E-02  0.8856699E-01
          2   -1    0    0  501    0  0.00000000000E+00  0.00000000000E+00  0.54524506454E+03  0.54524506454E+03  0.00000000000E+00 0.  1.
         -2   -1    0    0    0  501 -0.00000000000E+00 -0.00000000000E+00 -0.10908773027E+04  0.10908773027E+04  0.00000000000E+00 0. -1.
         23    2    1    2    0    0  0.67131865377E+03  0.12844188689E+03 -0.64649180954E+03  0.94522533705E+03  0.91286498435E+02 0.  0.
         11    1    3    3    0    0  0.36117981043E+02  0.74051692689E+01 -0.69132831309E+02  0.78349814622E+02  0.00000000000E+00 0. -1.
        -11    1    3    3    0    0  0.63520067272E+03  0.12103671763E+03 -0.57735897823E+03  0.86687552243E+03  0.00000000000E+00 0.  1.
         22    1    1    2    0    0 -0.67131865377E+03 -0.12844188689E+03  0.10085957137E+03  0.69089703020E+03  0.00000000000E+00 0.  1.
<mgrwt>
<rscale>  0 0.15424597E+04</rscale>
<asrwt>0</asrwt>
<pdfrwt beam="1">  1        2 0.83883857E-01 0.15424597E+04</pdfrwt>
<pdfrwt beam="2">  1       -2 0.16782728E+00 0.15424597E+04</pdfrwt>
<totfact> 0.11821758E+01</totfact>
</mgrwt>
</event>
<event>
 6    1  0.2325157E-005  0.4996987E+04  0.7818608E-02  0.7828972E-01
         -2   -1    0    0    0  501 -0.00000000000E+00  0.00000000000E+00  0.25146103037E+04  0.25146103037E+04  0.00000000000E+00 0. -1.
          2   -1    0    0  501    0  0.00000000000E+00 -0.00000000000E+00 -0.24824803084E+04  0.24824803084E+04  0.00000000000E+00 0.  1.
         23    2    1    2    0    0  0.21628958113E+04  0.12476571990E+04  0.75510696829E+02  0.24997623073E+04  0.91339753211E+02 0.  0.
         13    1    3    3    0    0  0.17951385053E+04  0.10165036443E+04  0.31872832532E+02  0.20632057070E+04  0.00000000000E+00 0.  1.
        -13    1    3    3    0    0  0.36775730604E+03  0.23115355473E+03  0.43637864297E+02  0.43655660024E+03  0.00000000000E+00 0. -1.
         22    1    1    2    0    0 -0.21628958113E+04 -0.12476571990E+04 -0.43380701512E+02  0.24973283048E+04  0.00000000000E+00 0.  1.
<mgrwt>
<rscale>  0 0.49969873E+04</rscale>
<asrwt>0</asrwt>
<pdfrwt beam="1">  1        2 0.38192005E+00 0.49969873E+04</pdfrwt>
<pdfrwt beam="2">  1       -2 0.38686312E+00 0.49969873E+04</pdfrwt>
<totfact> 0.23466101E-02</totfact>
</mgrwt>
</event>
<event>
 6    1  0.2325157E-005  0.1480931E+04  0.7818608E-02  0.8897234E-01
         -2   -1    0    0    0  501 -0.00000000000E+00  0.00000000000E+00  0.55275034105E+03  0.55275034105E+03  0.00000000000E+00 0. -1.
          2   -1    0    0  501    0  0.00000000000E+00 -0.00000000000E+00 -0.99192882728E+03  0.99192882728E+03  0.00000000000E+00 0.  1.
         23    2    1    2    0    0  0.70275767305E+03 -0.91305374559E+02 -0.68648565810E+01  0.71455863923E+03  0.91334025397E+02 0.  0.
         11    1    3    3    0    0  0.49537782550E+03 -0.75473830804E+02  0.35330498283E+02  0.50233826576E+03  0.00000000000E+00 0.  1.
        -11    1    3    3    0    0  0.20737984754E+03 -0.15831543755E+02 -0.42195354864E+02  0.21222037347E+03  0.00000000000E+00 0. -1.
         22    1    1    2    0    0 -0.70275767305E+03  0.91305374559E+02 -0.43231362965E+03  0.83012052910E+03  0.00000000000E+00 0.  1.
<mgrwt>
<rscale>  0 0.14809308E+04</rscale>
<asrwt>0</asrwt>
<pdfrwt beam="1">  1        2 0.15260443E+00 0.14809308E+04</pdfrwt>
<pdfrwt beam="2">  1       -2 0.85038515E-01 0.14809308E+04</pdfrwt>
<totfact> 0.29696306E+01</totfact>
</mgrwt>
</event>
<event>
 6    1  0.2325157E-005  0.1647274E+04  0.7818608E-02  0.8792021E-01
         -2   -1    0    0    0  501 -0.00000000000E+00  0.00000000000E+00  0.34990856482E+03  0.34990856482E+03  0.00000000000E+00 0. -1.
          2   -1    0    0  501    0  0.00000000000E+00 -0.00000000000E+00 -0.19387291099E+04  0.19387291099E+04  0.00000000000E+00 0.  1.
         23    2    1    2    0    0 -0.70070244477E+03  0.39129472835E+03 -0.10379418769E+04  0.13152093067E+04  0.91414988922E+02 0.  0.
         11    1    3    3    0    0 -0.64080171495E+03  0.37672527308E+03 -0.98460047835E+03  0.12336883201E+04  0.00000000000E+00 0.  1.
        -11    1    3    3    0    0 -0.59900729822E+02  0.14569455264E+02 -0.53341398543E+02  0.81520986613E+02  0.00000000000E+00 0. -1.
         22    1    1    2    0    0  0.70070244477E+03 -0.39129472835E+03 -0.55087866822E+03  0.97342836801E+03  0.00000000000E+00 0. -1.
<mgrwt>
<rscale>  0 0.16472740E+04</rscale>
<asrwt>0</asrwt>
<pdfrwt beam="1">  1        2 0.29826602E+00 0.16472740E+04</pdfrwt>
<pdfrwt beam="2">  1       -2 0.53832087E-01 0.16472740E+04</pdfrwt>
<totfact> 0.22446542E+01</totfact>
</mgrwt>
</event>
<event>
 6    1  0.2325157E-005  0.1681247E+04  0.7818608E-02  0.8772133E-01
         -2   -1    0    0    0  501 -0.00000000000E+00  0.00000000000E+00  0.42565397606E+03  0.42565397606E+03  0.00000000000E+00 0. -1.
          2   -1    0    0  501    0  0.00000000000E+00 -0.00000000000E+00 -0.16601469162E+04  0.16601469162E+04  0.00000000000E+00 0.  1.
         23    2    1    2    0    0 -0.50395426967E+03  0.46172809478E+03 -0.12208162102E+04  0.14021710272E+04  0.92350588801E+02 0.  0.
         11    1    3    3    0    0 -0.30527461069E+03  0.32605899968E+03 -0.73569008941E+03  0.86066658286E+03  0.00000000000E+00 0. -1.
        -11    1    3    3    0    0 -0.19867965898E+03  0.13566909509E+03 -0.48512612075E+03  0.54150444439E+03  0.00000000000E+00 0.  1.
         22    1    1    2    0    0  0.50395426967E+03 -0.46172809478E+03 -0.13676729996E+02  0.68362986503E+03  0.00000000000E+00 0. -1.
<mgrwt>
<rscale>  0 0.16812473E+04</rscale>
<asrwt>0</asrwt>
<pdfrwt beam="1">  1        2 0.25540722E+00 0.16812473E+04</pdfrwt>
<pdfrwt beam="2">  1       -2 0.65485227E-01 0.16812473E+04</pdfrwt>
<totfact> 0.21129220E+01</totfact>
</mgrwt>
</event>
<event>
 6    1  0.2325157E-005  0.3311706E+04  0.7818608E-02  0.8159923E-01
          2   -1    0    0  501    0  0.00000000000E+00  0.00000000000E+00  0.30821964889E+04  0.30821964889E+04  0.00000000000E+00 0.  1.
         -2   -1    0    0    0  501 -0.00000000000E+00 -0.00000000000E+00 -0.88957623867E+03  0.88957623867E+03  0.00000000000E+00 0. -1.
         23    2    1    2    0    0 -0.30384286522E+03  0.15851034501E+04  0.65984798092E+03  0.17459550657E+04  0.89923852129E+02 0.  0.
         11    1    3    3    0    0 -0.25685733680E+03  0.12396892559E+04  0.55134100588E+03  0.13808627910E+04  0.00000000000E+00 0.  1.
        -11    1    3    3    0    0 -0.46985528417E+02  0.34541419420E+03  0.10850697504E+03  0.36509227473E+03  0.00000000000E+00 0. -1.
         22    1    1    2    0    0  0.30384286522E+03 -0.15851034501E+04  0.15327722693E+04  0.22258176619E+04  0.00000000000E+00 0. -1.
<mgrwt>
<rscale>  0 0.33117058E+04</rscale>
<asrwt>0</asrwt>
<pdfrwt beam="1">  1        2 0.47418407E+00 0.33117058E+04</pdfrwt>
<pdfrwt beam="2">  1       -2 0.13685788E+00 0.33117058E+04</pdfrwt>
<totfact> 0.49059890E-01</totfact>
</mgrwt>
</event>
<event>
 6    1  0.2325157E-005  0.2505168E+04  0.7818608E-02  0.8401147E-01
         -2   -1    0    0    0  501 -0.00000000000E+00  0.00000000000E+00  0.38110572775E+03  0.38110572775E+03  0.00000000000E+00 0. -1.
          2   -1    0    0  501    0  0.00000000000E+00 -0.00000000000E+00 -0.41168789131E+04  0.41168789131E+04  0.00000000000E+00 0.  1.
         23    2    1    2    0    0 -0.10897633612E+04 -0.37211278162E+03 -0.99457507504E+03  0.15247340316E+04  0.97888617153E+02 0.  0.
         11    1    3    3    0    0 -0.76237776960E+03 -0.28032613595E+03 -0.75327817325E+03  0.11078044107E+04  0.00000000000E+00 0.  1.
        -11    1    3    3    0    0 -0.32738559164E+03 -0.91786645668E+02 -0.24129690179E+03  0.41692962086E+03  0.00000000000E+00 0. -1.
         22    1    1    2    0    0  0.10897633612E+04  0.37211278162E+03 -0.27411981103E+04  0.29732506093E+04  0.00000000000E+00 0.  1.
<mgrwt>
<rscale>  0 0.25051676E+04</rscale>
<asrwt>0</asrwt>
<pdfrwt beam="1">  1        2 0.63336601E+00 0.25051676E+04</pdfrwt>
<pdfrwt beam="2">  1       -2 0.58631649E-01 0.25051676E+04</pdfrwt>
<totfact> 0.66663634E-01</totfact>
</mgrwt>
</event>
<event>
 6    1  0.2325157E-005  0.1507234E+04  0.7818608E-02  0.8879656E-01
         -2   -1    0    0    0  501 -0.00000000000E+00  0.00000000000E+00  0.80216222551E+03  0.80216222551E+03  0.00000000000E+00 0.  1.
          2   -1    0    0  501    0  0.00000000000E+00 -0.00000000000E+00 -0.70800996387E+03  0.70800996387E+03  0.00000000000E+00 0. -1.
         23    2    1    2    0    0 -0.58298883005E+03  0.35657505592E+03 -0.26447774148E+03  0.73839681688E+03  0.90882544881E+02 0.  0.
         11    1    3    3    0    0 -0.46159607369E+03  0.26246523510E+03 -0.16769575814E+03  0.55684899406E+03  0.00000000000E+00 0.  1.
        -11    1    3    3    0    0 -0.12139275636E+03  0.94109820813E+02 -0.96781983337E+02  0.18154782282E+03  0.00000000000E+00 0. -1.
         22    1    1    2    0    0  0.58298883005E+03 -0.35657505592E+03  0.35863000312E+03  0.77177537251E+03  0.00000000000E+00 0.  1.
<mgrwt>
<rscale>  0 0.15072344E+04</rscale>
<asrwt>0</asrwt>
<pdfrwt beam="1">  1        2 0.10892461E+00 0.15072344E+04</pdfrwt>
<pdfrwt beam="2">  1       -2 0.12340957E+00 0.15072344E+04</pdfrwt>
<totfact> 0.19305902E+01</totfact>
</mgrwt>
</event>
<event>
 6    1  0.2325157E-005  0.3867826E+04  0.7818608E-02  0.8031754E-01
         -2   -1    0    0    0  501 -0.00000000000E+00  0.00000000000E+00  0.89160824892E+03  0.89160824892E+03  0.00000000000E+00 0. -1.
          2   -1    0    0  501    0  0.00000000000E+00 -0.00000000000E+00 -0.41946893976E+04  0.41946893976E+04  0.00000000000E+00 0.  1.
         23    2    1    2    0    0 -0.13228936060E+04  0.14088516212E+04 -0.16935316855E+04  0.25712310753E+04  0.90935633066E+02 0.  0.
         13    1    3    3    0    0 -0.78239547833E+03  0.78081972572E+03 -0.93175341751E+03  0.14456785810E+04  0.00000000000E+00 0. -1.
        -13    1    3    3    0    0 -0.54049812763E+03  0.62803189549E+03 -0.76177826796E+03  0.11255524942E+04  0.00000000000E+00 0.  1.
         22    1    1    2    0    0  0.13228936060E+04 -0.14088516212E+04 -0.16095494632E+04  0.25150665712E+04  0.00000000000E+00 0.  1.
<mgrwt>
<rscale>  0 0.38678261E+04</rscale>
<asrwt>0</asrwt>
<pdfrwt beam="1">  1        2 0.64533684E+00 0.38678261E+04</pdfrwt>
<pdfrwt beam="2">  1       -2 0.13717050E+00 0.38678261E+04</pdfrwt>
<totfact> 0.70644879E-02</totfact>
</mgrwt>
</event>
<event>
 6    1  0.2325157E-005  0.5964091E+04  0.7818608E-02  0.7694870E-01
          2   -1    0    0  501    0  0.00000000000E+00  0.00000000000E+00  0.22414099810E+04  0.22414099810E+04  0.00000000000E+00 0.  1.
         -2   -1    0    0    0  501 -0.00000000000E+00 -0.00000000000E+00 -0.39674111838E+04  0.39674111838E+04  0.00000000000E+00 0. -1.
         23    2    1    2    0    0 -0.85610513553E+03 -0.28472293332E+04 -0.63389736117E+03  0.30414371213E+04  0.94249771171E+02 0.  0.
         11    1    3    3    0    0 -0.35700361251E+03 -0.12190523475E+04 -0.31761230439E+03  0.13093577743E+04  0.00000000000E+00 0.  1.
        -11    1    3    3    0    0 -0.49910152302E+03 -0.16281769857E+04 -0.31628505678E+03  0.17320793469E+04  0.00000000000E+00 0. -1.
         22    1    1    2    0    0  0.85610513553E+03  0.28472293332E+04 -0.10921038415E+04  0.31673840436E+04  0.00000000000E+00 0.  1.
<mgrwt>
<rscale>  0 0.59640909E+04</rscale>
<asrwt>0</asrwt>
<pdfrwt beam="1">  1        2 0.34483231E+00 0.59640909E+04</pdfrwt>
<pdfrwt beam="2">  1       -2 0.61037095E+00 0.59640909E+04</pdfrwt>
<totfact> 0.15618114E-03</totfact>
</mgrwt>
</event>
<event>
 6    1  0.2325157E-005  0.4717282E+03  0.7818608E-02  0.1021434E+00
          2   -1    0    0  501    0  0.00000000000E+00  0.00000000000E+00  0.29227846374E+03  0.29227846374E+03  0.00000000000E+00 0.  1.
         -2   -1    0    0    0  501 -0.00000000000E+00 -0.00000000000E+00 -0.19033857819E+03  0.19033857819E+03  0.00000000000E+00 0. -1.
         23    2    1    2    0    0 -0.15592082493E+03 -0.86775290323E+02 -0.90843981528E+02  0.21992544697E+03  0.90957784643E+02 0.  0.
         11    1    3    3    0    0 -0.11428478569E+03 -0.99821985402E+02 -0.48961911692E+02  0.15944500559E+03  0.00000000000E+00 0.  1.
        -11    1    3    3    0    0 -0.41636039237E+02  0.13046695079E+02 -0.41882069836E+02  0.60480441380E+02  0.00000000000E+00 0. -1.
         22    1    1    2    0    0  0.15592082493E+03  0.86775290323E+02  0.19278386708E+03  0.26269159496E+03  0.00000000000E+00 0.  1.
<mgrwt>
<rscale>  0 0.47172817E+03</rscale>
<asrwt>0</asrwt>
<pdfrwt beam="1">  1        2 0.44965918E-01 0.47172817E+03</pdfrwt>
<pdfrwt beam="2">  1       -2 0.29282858E-01 0.47172817E+03</pdfrwt>
<totfact> 0.12105073E+03</totfact>
</mgrwt>
</event>
<event>
 6    1  0.2325157E-005  0.2000278E+04  0.7818608E-02  0.8606491E-01
          2   -1    0    0  501    0  0.00000000000E+00  0.00000000000E+00  0.16337376834E+04  0.16337376834E+04  0.00000000000E+00 0.  1.
         -2   -1    0    0    0  501 -0.00000000000E+00 -0.00000000000E+00 -0.61226359893E+03  0.61226359893E+03  0.00000000000E+00 0. -1.
         23    2    1    2    0    0 -0.35712322789E+03 -0.91003952853E+03  0.73751542148E+03  0.12279927039E+04  0.91258646648E+02 0.  0.
         13    1    3    3    0    0 -0.17733309382E+03 -0.49278431408E+03  0.44848555048E+03  0.68950902485E+03  0.00000000000E+00 0.  1.
        -13    1    3    3    0    0 -0.17979013408E+03 -0.41725521445E+03  0.28902987100E+03  0.53848367907E+03  0.00000000000E+00 0. -1.
         22    1    1    2    0    0  0.35712322789E+03  0.91003952853E+03  0.28395866297E+03  0.10180085784E+04  0.00000000000E+00 0. -1.
<mgrwt>
<rscale>  0 0.20002781E+04</rscale>
<asrwt>0</asrwt>
<pdfrwt beam="1">  1        2 0.25134426E+00 0.20002781E+04</pdfrwt>
<pdfrwt beam="2">  1       -2 0.94194401E-01 0.20002781E+04</pdfrwt>
<totfact> 0.94317643E+00</totfact>
</mgrwt>
</event>
<event>
 6    1  0.2325157E-005  0.4401115E+04  0.7818608E-02  0.7928181E-01
         -2   -1    0    0    0  501 -0.00000000000E+00  0.00000000000E+00  0.15565175416E+04  0.15565175416E+04  0.00000000000E+00 0. -1.
          2   -1    0    0  501    0  0.00000000000E+00 -0.00000000000E+00 -0.31110821528E+04  0.31110821528E+04  0.00000000000E+00 0.  1.
         23    2    1    2    0    0  0.15536002932E+04  0.11373874559E+04 -0.19054510364E+04  0.27104473296E+04  0.91961832325E+02 0.  0.
         13    1    3    3    0    0  0.82369923513E+03  0.65933866475E+03 -0.10507672213E+04  0.14890667071E+04  0.00000000000E+00 0.  1.
        -13    1    3    3    0    0  0.72990105802E+03  0.47804879115E+03 -0.85468381510E+03  0.12213806225E+04  0.00000000000E+00 0. -1.
         22    1    1    2    0    0 -0.15536002932E+04 -0.11373874559E+04  0.35088642517E+03  0.19571523648E+04  0.00000000000E+00 0. -1.
<mgrwt>
<rscale>  0 0.44011153E+04</rscale>
<asrwt>0</asrwt>
<pdfrwt beam="1">  1        2 0.47862801E+00 0.44011153E+04</pdfrwt>
<pdfrwt beam="2">  1       -2 0.23946424E+00 0.44011153E+04</pdfrwt>
<totfact> 0.84337743E-02</totfact>
</mgrwt>
</event>
<event>
 6    1  0.2325157E-005  0.1830282E+04  0.7818608E-02  0.8690359E-01
          2   -1    0    0  501    0  0.00000000000E+00  0.00000000000E+00  0.12495766647E+04  0.12495766647E+04  0.00000000000E+00 0.  1.
         -2   -1    0    0    0  501 -0.00000000000E+00 -0.00000000000E+00 -0.67021378163E+03  0.67021378163E+03  0.00000000000E+00 0. -1.
         23    2    1    2    0    0 -0.64579464174E+03  0.25299177705E+03 -0.33213889789E+03  0.77441231870E+03  0.91338016820E+02 0.  0.
         11    1    3    3    0    0 -0.49090563619E+03  0.21661425907E+03 -0.22082835227E+03  0.58023722910E+03  0.00000000000E+00 0.  1.
        -11    1    3    3    0    0 -0.15488900555E+03  0.36377517984E+02 -0.11131054562E+03  0.19417508960E+03  0.00000000000E+00 0. -1.
         22    1    1    2    0    0  0.64579464174E+03 -0.25299177705E+03  0.91150178092E+03  0.11453781276E+04  0.00000000000E+00 0.  1.
<mgrwt>
<rscale>  0 0.18302825E+04</rscale>
<asrwt>0</asrwt>
<pdfrwt beam="1">  1        2 0.19224256E+00 0.18302825E+04</pdfrwt>
<pdfrwt beam="2">  1       -2 0.10310981E+00 0.18302825E+04</pdfrwt>
<totfact> 0.12799918E+01</totfact>
</mgrwt>
</event>
<event>
 6    1  0.2325157E-005  0.8053798E+03  0.7818608E-02  0.9552263E-01
          2   -1    0    0  501    0  0.00000000000E+00  0.00000000000E+00  0.83358660825E+03  0.83358660825E+03  0.00000000000E+00 0.  1.
         -2   -1    0    0    0  501 -0.00000000000E+00 -0.00000000000E+00 -0.19453187845E+03  0.19453187845E+03  0.00000000000E+00 0. -1.
         23    2    1    2    0    0 -0.28715910174E+03  0.27045981186E+03  0.25941205153E+03  0.48063568085E+03  0.90039911602E+02 0.  0.
         13    1    3    3    0    0 -0.13501424755E+03  0.99172395761E+02  0.15733619240E+03  0.22982316802E+03  0.00000000000E+00 0.  1.
        -13    1    3    3    0    0 -0.15214485420E+03  0.17128741610E+03  0.10207585912E+03  0.25081251282E+03  0.00000000000E+00 0. -1.
         22    1    1    2    0    0  0.28715910174E+03 -0.27045981186E+03  0.37964267827E+03  0.54748280586E+03  0.00000000000E+00 0.  1.
<mgrwt>
<rscale>  0 0.80537983E+03</rscale>
<asrwt>0</asrwt>
<pdfrwt beam="1">  1        2 0.12824409E+00 0.80537983E+03</pdfrwt>
<pdfrwt beam="2">  1       -2 0.29927982E-01 0.80537983E+03</pdfrwt>
<totfact> 0.33711863E+02</totfact>
</mgrwt>
</event>
<event>
 6    1  0.2325157E-005  0.2790190E+04  0.7818608E-02  0.8306321E-01
          2   -1    0    0  501    0  0.00000000000E+00  0.00000000000E+00  0.21040801737E+04  0.21040801737E+04  0.00000000000E+00 0.  1.
         -2   -1    0    0    0  501 -0.00000000000E+00 -0.00000000000E+00 -0.92500736049E+03  0.92500736049E+03  0.00000000000E+00 0. -1.
         23    2    1    2    0    0 -0.13162770662E+04  0.21762308408E+03  0.15292935307E+03  0.13459608240E+04  0.90983684883E+02 0.  0.
         11    1    3    3    0    0 -0.10149300526E+04  0.20562551805E+03  0.12559100846E+03  0.10431385176E+04  0.00000000000E+00 0. -1.
        -11    1    3    3    0    0 -0.30134701359E+03  0.11997566035E+02  0.27338344609E+02  0.30282230644E+03  0.00000000000E+00 0.  1.
         22    1    1    2    0    0  0.13162770662E+04 -0.21762308408E+03  0.10261434601E+04  0.16831267102E+04  0.00000000000E+00 0.  1.
<mgrwt>
<rscale>  0 0.27901897E+04</rscale>
<asrwt>0</asrwt>
<pdfrwt beam="1">  1        2 0.32370464E+00 0.27901897E+04</pdfrwt>
<pdfrwt beam="2">  1       -2 0.14230882E+00 0.27901897E+04</pdfrwt>
<totfact> 0.17518916E+00</totfact>
</mgrwt>
</event>
<event>
 6    1  0.2325157E-005  0.2225762E+04  0.7818608E-02  0.8507781E-01
         -2   -1    0    0    0  501 -0.00000000000E+00  0.00000000000E+00  0.49499231003E+03  0.49499231003E+03  0.00000000000E+00 0. -1.
          2   -1    0    0  501    0  0.00000000000E+00 -0.00000000000E+00 -0.25020673681E+04  0.25020673681E+04  0.00000000000E+00 0.  1.
         23    2    1    2    0    0  0.48664981825E+03 -0.99377961829E+03 -0.87186065477E+03  0.14117717810E+04  0.92371992370E+02 0.  0.
         11    1    3    3    0    0  0.27503884318E+03 -0.48990941476E+03 -0.48481395072E+03  0.74209309843E+03  0.00000000000E+00 0. -1.
        -11    1    3    3    0    0  0.21161097507E+03 -0.50387020353E+03 -0.38704670404E+03  0.66967868257E+03  0.00000000000E+00 0.  1.
         22    1    1    2    0    0 -0.48664981825E+03  0.99377961829E+03 -0.11352144033E+04  0.15852878972E+04  0.00000000000E+00 0.  1.
<mgrwt>
<rscale>  0 0.22257620E+04</rscale>
<asrwt>0</asrwt>
<pdfrwt beam="1">  1        2 0.38493344E+00 0.22257620E+04</pdfrwt>
<pdfrwt beam="2">  1       -2 0.76152664E-01 0.22257620E+04</pdfrwt>
<totfact> 0.48878608E+00</totfact>
</mgrwt>
</event>
<event>
 6    1  0.2325157E-005  0.1531093E+04  0.7818608E-02  0.8864036E-01
          2   -1    0    0  501    0  0.00000000000E+00  0.00000000000E+00  0.15094883522E+04  0.15094883522E+04  0.00000000000E+00 0.  1.
         -2   -1    0    0    0  501 -0.00000000000E+00 -0.00000000000E+00 -0.38825187668E+03  0.38825187668E+03  0.00000000000E+00 0. -1.
         23    2    1    2    0    0 -0.42924405981E+03 -0.16408970017E+03  0.13172706736E+04  0.13981350854E+04  0.91672225224E+02 0.  0.
         11    1    3    3    0    0 -0.34445441883E+03 -0.13259400413E+03  0.93279685279E+03  0.10031649840E+04  0.00000000000E+00 0. -1.
        -11    1    3    3    0    0 -0.84789640978E+02 -0.31495696038E+02  0.38447382084E+03  0.39497010139E+03  0.00000000000E+00 0.  1.
         22    1    1    2    0    0  0.42924405981E+03  0.16408970017E+03 -0.19603419808E+03  0.49960514349E+03  0.00000000000E+00 0. -1.
<mgrwt>
<rscale>  0 0.15310933E+04</rscale>
<asrwt>0</asrwt>
<pdfrwt beam="1">  1        2 0.23222897E+00 0.15310933E+04</pdfrwt>
<pdfrwt beam="2">  1       -2 0.59731059E-01 0.15310933E+04</pdfrwt>
<totfact> 0.31596738E+01</totfact>
</mgrwt>
</event>
<event>
 6    1  0.2325157E-005  0.3174875E+04  0.7818608E-02  0.8195484E-01
          2   -1    0    0  501    0  0.00000000000E+00  0.00000000000E+00  0.16563606197E+04  0.16563606197E+04  0.00000000000E+00 0.  1.
         -2   -1    0    0    0  501 -0.00000000000E+00 -0.00000000000E+00 -0.15213823813E+04  0.15213823813E+04  0.00000000000E+00 0. -1.
         23    2    1    2    0    0  0.13571352617E+04 -0.75615150356E+03 -0.25254627182E+03  0.15765695373E+04  0.90612756111E+02 0.  0.
         13    1    3    3    0    0  0.95642505772E+03 -0.52331945025E+03 -0.21819766356E+03  0.11118553676E+04  0.00000000000E+00 0.  1.
        -13    1    3    3    0    0  0.40071020395E+03 -0.23283205331E+03 -0.34348608263E+02  0.46471416967E+03  0.00000000000E+00 0. -1.
         22    1    1    2    0    0 -0.13571352617E+04  0.75615150356E+03  0.38752451022E+03  0.16011734637E+04  0.00000000000E+00 0.  1.
<mgrwt>
<rscale>  0 0.31748750E+04</rscale>
<asrwt>0</asrwt>
<pdfrwt beam="1">  1        2 0.25482471E+00 0.31748750E+04</pdfrwt>
<pdfrwt beam="2">  1       -2 0.23405883E+00 0.31748750E+04</pdfrwt>
<totfact> 0.70585875E-01</totfact>
</mgrwt>
</event>
<event>
 6    1  0.2325157E-005  0.1749981E+04  0.7818608E-02  0.8733361E-01
          2   -1    0    0  501    0  0.00000000000E+00  0.00000000000E+00  0.24476046567E+04  0.24476046567E+04  0.00000000000E+00 0.  1.
         -2   -1    0    0    0  501 -0.00000000000E+00 -0.00000000000E+00 -0.31279886418E+03  0.31279886418E+03  0.00000000000E+00 0. -1.
         23    2    1    2    0    0 -0.15195126307E+03 -0.12170797731E+03  0.24120653672E+04  0.24216190911E+04  0.90981692432E+02 0.  0.
         11    1    3    3    0    0 -0.96072266819E+02 -0.67614481566E+02  0.91149828093E+03  0.91903792888E+03  0.00000000000E+00 0. -1.
        -11    1    3    3    0    0 -0.55878996251E+02 -0.54093495748E+02  0.15005670863E+04  0.15025811622E+04  0.00000000000E+00 0.  1.
         22    1    1    2    0    0  0.15195126307E+03  0.12170797731E+03 -0.27725957472E+03  0.33878442979E+03  0.00000000000E+00 0. -1.
<mgrwt>
<rscale>  0 0.17499805E+04</rscale>
<asrwt>0</asrwt>
<pdfrwt beam="1">  1        2 0.37655455E+00 0.17499805E+04</pdfrwt>
<pdfrwt beam="2">  1       -2 0.48122904E-01 0.17499805E+04</pdfrwt>
<totfact> 0.14490052E+01</totfact>
</mgrwt>
</event>
<event>
 6    1  0.2325157E-005  0.7043580E+03  0.7818608E-02  0.9709808E-01
          4   -1    0    0  501    0  0.00000000000E+00  0.00000000000E+00  0.43339130166E+03  0.43339130166E+03  0.00000000000E+00 0.  1.
         -4   -1    0    0    0  501 -0.00000000000E+00 -0.00000000000E+00 -0.28618486917E+03  0.28618486917E+03  0.00000000000E+00 0. -1.
         23    2    1    2    0    0  0.21796158535E+03  0.19737138766E+03 -0.11240613529E+03  0.32732446248E+03  0.89685267067E+02 0.  0.
         13    1    3    3    0    0  0.11232855202E+03  0.10337232744E+03 -0.10474782348E+02  0.15301392990E+03  0.00000000000E+00 0.  1.
        -13    1    3    3    0    0  0.10563303334E+03  0.93999060214E+02 -0.10193135295E+03  0.17431053257E+03  0.00000000000E+00 0. -1.
         22    1    1    2    0    0 -0.21796158535E+03 -0.19737138766E+03  0.25961256779E+03  0.39225170835E+03  0.00000000000E+00 0.  1.
<mgrwt>
<rscale>  0 0.70435796E+03</rscale>
<asrwt>0</asrwt>
<pdfrwt beam="1">  1        4 0.66675585E-01 0.70435796E+03</pdfrwt>
<pdfrwt beam="2">  1       -4 0.44028442E-01 0.70435796E+03</pdfrwt>
<totfact> 0.20753128E+01</totfact>
</mgrwt>
</event>
<event>
 6    1  0.2325157E-005  0.1760833E+04  0.7818608E-02  0.8727410E-01
          2   -1    0    0  501    0  0.00000000000E+00  0.00000000000E+00  0.18968238123E+04  0.18968238123E+04  0.00000000000E+00 0.  1.
         -2   -1    0    0    0  501 -0.00000000000E+00 -0.00000000000E+00 -0.40864786718E+03  0.40864786718E+03  0.00000000000E+00 0. -1.
         23    2    1    2    0    0  0.42073447552E+03  0.10843596800E+03 -0.25347279075E+03  0.51044628210E+03  0.86781871417E+02 0.  0.
         13    1    3    3    0    0  0.18603131213E+03  0.89063050802E+02 -0.13797900849E+03  0.24814931573E+03  0.00000000000E+00 0. -1.
        -13    1    3    3    0    0  0.23470316339E+03  0.19372917201E+02 -0.11549378226E+03  0.26229696637E+03  0.00000000000E+00 0.  1.
         22    1    1    2    0    0 -0.42073447552E+03 -0.10843596800E+03  0.17416487359E+04  0.17950253974E+04  0.00000000000E+00 0.  1.
<mgrwt>
<rscale>  0 0.17608328E+04</rscale>
<asrwt>0</asrwt>
<pdfrwt beam="1">  1        2 0.29181904E+00 0.17608328E+04</pdfrwt>
<pdfrwt beam="2">  1       -2 0.62868904E-01 0.17608328E+04</pdfrwt>
<totfact> 0.16930498E+01</totfact>
</mgrwt>
</event>
<event>
 6    1  0.2325157E-005  0.1882103E+04  0.7818608E-02  0.8663816E-01
          2   -1    0    0  501    0  0.00000000000E+00  0.00000000000E+00  0.25445138440E+04  0.25445138440E+04  0.00000000000E+00 0.  1.
         -2   -1    0    0    0  501 -0.00000000000E+00 -0.00000000000E+00 -0.34803435278E+03  0.34803435278E+03  0.00000000000E+00 0. -1.
         23    2    1    2    0    0 -0.30475702933E+03 -0.31369471500E+03 -0.17604126857E+03  0.48005239850E+03  0.90435368755E+02 0.  0.
         13    1    3    3    0    0 -0.40015172043E+02 -0.11999227701E+02 -0.35084876250E-01  0.41775551343E+02  0.00000000000E+00 0. -1.
        -13    1    3    3    0    0 -0.26474185728E+03 -0.30169548730E+03 -0.17600618369E+03  0.43827684715E+03  0.00000000000E+00 0.  1.
         22    1    1    2    0    0  0.30475702933E+03  0.31369471500E+03  0.23725207598E+04  0.24124957983E+04  0.00000000000E+00 0.  1.
<mgrwt>
<rscale>  0 0.18821033E+04</rscale>
<asrwt>0</asrwt>
<pdfrwt beam="1">  1        2 0.39146366E+00 0.18821033E+04</pdfrwt>
<pdfrwt beam="2">  1       -2 0.53543748E-01 0.18821033E+04</pdfrwt>
<totfact> 0.10121442E+01</totfact>
</mgrwt>
</event>
<event>
 6    1  0.2325157E-005  0.1031177E+04  0.7818608E-02  0.9274996E-01
          2   -1    0    0  501    0  0.00000000000E+00  0.00000000000E+00  0.22122428041E+04  0.22122428041E+04  0.00000000000E+00 0.  1.
         -2   -1    0    0    0  501 -0.00000000000E+00 -0.00000000000E+00 -0.12016391426E+03  0.12016391426E+03  0.00000000000E+00 0. -1.
         23    2    1    2    0    0  0.16142620768E+03  0.47822876747E+03  0.12442917490E+04  0.13457435485E+04  0.89457068775E+02 0.  0.
         13    1    3    3    0    0  0.74172569723E+02  0.10696569507E+03  0.28017577231E+03  0.30893639056E+03  0.00000000000E+00 0. -1.
        -13    1    3    3    0    0  0.87253637956E+02  0.37126307240E+03  0.96411597665E+03  0.10368071579E+04  0.00000000000E+00 0.  1.
         22    1    1    2    0    0 -0.16142620768E+03 -0.47822876747E+03  0.84778714086E+03  0.98666316986E+03  0.00000000000E+00 0. -1.
<mgrwt>
<rscale>  0 0.10311775E+04</rscale>
<asrwt>0</asrwt>
<pdfrwt beam="1">  1        2 0.34034502E+00 0.10311775E+04</pdfrwt>
<pdfrwt beam="2">  1       -2 0.18486758E-01 0.10311775E+04</pdfrwt>
<totfact> 0.12501474E+02</totfact>
</mgrwt>
</event>
<event>
 6    1  0.2325157E-005  0.2155624E+04  0.7818608E-02  0.8537129E-01
         -2   -1    0    0    0  501 -0.00000000000E+00  0.00000000000E+00  0.87052613217E+03  0.87052613217E+03  0.00000000000E+00 0. -1.
          2   -1    0    0  501    0  0.00000000000E+00 -0.00000000000E+00 -0.13344561100E+04  0.13344561100E+04  0.00000000000E+00 0.  1.
         23    2    1    2    0    0 -0.95922954256E+03 -0.27975883544E+03 -0.64049065929E+03  0.11903098834E+04  0.90680827923E+02 0.  0.
         11    1    3    3    0    0 -0.52840392228E+03 -0.10959682369E+03 -0.36213943095E+03  0.64989778911E+03  0.00000000000E+00 0. -1.
        -11    1    3    3    0    0 -0.43082562028E+03 -0.17016201175E+03 -0.27835122833E+03  0.54041209428E+03  0.00000000000E+00 0.  1.
         22    1    1    2    0    0  0.95922954256E+03  0.27975883544E+03  0.17656068149E+03  0.10146723587E+04  0.00000000000E+00 0. -1.
<mgrwt>
<rscale>  0 0.21556242E+04</rscale>
<asrwt>0</asrwt>
<pdfrwt beam="1">  1        2 0.20530094E+00 0.21556242E+04</pdfrwt>
<pdfrwt beam="2">  1       -2 0.13392710E+00 0.21556242E+04</pdfrwt>
<totfact> 0.58317560E+00</totfact>
</mgrwt>
</event>
<event>
 6    1  0.2325157E-005  0.2573261E+04  0.7818608E-02  0.8377341E-01
         -2   -1    0    0    0  501 -0.00000000000E+00  0.00000000000E+00  0.20520919172E+04  0.20520919172E+04  0.00000000000E+00 0. -1.
          2   -1    0    0  501    0  0.00000000000E+00 -0.00000000000E+00 -0.80669802477E+03  0.80669802477E+03  0.00000000000E+00 0.  1.
         23    2    1    2    0    0  0.31097772215E+03 -0.16290810059E+03  0.19967544814E+04  0.20294595328E+04  0.91822347112E+02 0.  0.
         11    1    3    3    0    0  0.20536209073E+03 -0.97841292123E+02  0.10327310923E+04  0.10574875960E+04  0.00000000000E+00 0. -1.
        -11    1    3    3    0    0  0.10561563142E+03 -0.65066808468E+02  0.96402338911E+03  0.97197193680E+03  0.00000000000E+00 0.  1.
         22    1    1    2    0    0 -0.31097772215E+03  0.16290810059E+03 -0.75136058896E+03  0.82933040916E+03  0.00000000000E+00 0.  1.
<mgrwt>
<rscale>  0 0.25732614E+04</rscale>
<asrwt>0</asrwt>
<pdfrwt beam="1">  1        2 0.12410739E+00 0.25732614E+04</pdfrwt>
<pdfrwt beam="2">  1       -2 0.31570645E+00 0.25732614E+04</pdfrwt>
<totfact> 0.76873635E-01</totfact>
</mgrwt>
</event>
<event>
 6    1  0.2325157E-005  0.2581430E+04  0.7818608E-02  0.8374537E-01
         -2   -1    0    0    0  501 -0.00000000000E+00  0.00000000000E+00  0.19323437181E+04  0.19323437181E+04  0.00000000000E+00 0. -1.
          2   -1    0    0  501    0  0.00000000000E+00 -0.00000000000E+00 -0.86213703641E+03  0.86213703641E+03  0.00000000000E+00 0.  1.
         23    2    1    2    0    0 -0.75921293445E+03  0.68591149349E+03 -0.31315626873E+03  0.10738495013E+04  0.90592748955E+02 0.  0.
         13    1    3    3    0    0 -0.23837115790E+03  0.25087164557E+03 -0.70683072353E+02  0.35320459819E+03  0.00000000000E+00 0. -1.
        -13    1    3    3    0    0 -0.52084177655E+03  0.43503984792E+03 -0.24247319638E+03  0.72064490316E+03  0.00000000000E+00 0.  1.
         22    1    1    2    0    0  0.75921293445E+03 -0.68591149349E+03  0.13833629504E+04  0.17206312531E+04  0.00000000000E+00 0.  1.
<mgrwt>
<rscale>  0 0.25814299E+04</rscale>
<asrwt>0</asrwt>
<pdfrwt beam="1">  1        2 0.13263647E+00 0.25814299E+04</pdfrwt>
<pdfrwt beam="2">  1       -2 0.29728365E+00 0.25814299E+04</pdfrwt>
<totfact> 0.91075661E-01</totfact>
</mgrwt>
</event>
<event>
 6    1  0.2325157E-005  0.1712339E+04  0.7818608E-02  0.8754358E-01
          2   -1    0    0  501    0  0.00000000000E+00  0.00000000000E+00  0.17947532236E+04  0.17947532236E+04  0.00000000000E+00 0.  1.
         -2   -1    0    0    0  501 -0.00000000000E+00 -0.00000000000E+00 -0.40842737840E+03  0.40842737840E+03  0.00000000000E+00 0. -1.
         23    2    1    2    0    0 -0.34496344368E+03  0.76876085313E+03  0.53370547937E+03  0.10044502257E+04  0.11868315164E+03 0.  0.
         11    1    3    3    0    0 -0.21442394718E+03  0.58386255377E+03  0.35581345577E+03  0.71657262446E+03  0.00000000000E+00 0.  1.
        -11    1    3    3    0    0 -0.13053949651E+03  0.18489829936E+03  0.17789202360E+03  0.28787760127E+03  0.00000000000E+00 0. -1.
         22    1    1    2    0    0  0.34496344368E+03 -0.76876085313E+03  0.85262036587E+03  0.11987303763E+04  0.00000000000E+00 0.  1.
<mgrwt>
<rscale>  0 0.17123392E+04</rscale>
<asrwt>0</asrwt>
<pdfrwt beam="1">  1        2 0.27611588E+00 0.17123392E+04</pdfrwt>
<pdfrwt beam="2">  1       -2 0.62834982E-01 0.17123392E+04</pdfrwt>
<totfact> 0.19385396E+01</totfact>
</mgrwt>
</event>
<event>
 6    1  0.2325157E-005  0.1617566E+04  0.7818608E-02  0.8809828E-01
          2   -1    0    0  501    0  0.00000000000E+00  0.00000000000E+00  0.45741626136E+04  0.45741626136E+04  0.00000000000E+00 0.  1.
         -2   -1    0    0    0  501 -0.00000000000E+00 -0.00000000000E+00 -0.14300548080E+03  0.14300548080E+03  0.00000000000E+00 0. -1.
         23    2    1    2    0    0 -0.79039123196E+03  0.10935046154E+03  0.18851165565E+04  0.20490229635E+04  0.90304211659E+02 0.  0.
         13    1    3    3    0    0 -0.28610995621E+03  0.34217800686E+02  0.79386018846E+03  0.84453760351E+03  0.00000000000E+00 0.  1.
        -13    1    3    3    0    0 -0.50428127575E+03  0.75132660856E+02  0.10912563680E+04  0.12044853600E+04  0.00000000000E+00 0. -1.
         22    1    1    2    0    0  0.79039123196E+03 -0.10935046154E+03  0.25460405764E+04  0.26681451309E+04  0.00000000000E+00 0. -1.
<mgrwt>
<rscale>  0 0.16175665E+04</rscale>
<asrwt>0</asrwt>
<pdfrwt beam="1">  1        2 0.70371721E+00 0.16175665E+04</pdfrwt>
<pdfrwt beam="2">  1       -2 0.22000847E-01 0.16175665E+04</pdfrwt>
<totfact> 0.18529888E+00</totfact>
</mgrwt>
</event>
<event>
 6    1  0.2325157E-005  0.1355459E+04  0.7818608E-02  0.8986706E-01
         -2   -1    0    0    0  501 -0.00000000000E+00  0.00000000000E+00  0.30770497089E+03  0.30770497089E+03  0.00000000000E+00 0. -1.
          2   -1    0    0  501    0  0.00000000000E+00 -0.00000000000E+00 -0.14927198010E+04  0.14927198010E+04  0.00000000000E+00 0.  1.
         23    2    1    2    0    0 -0.28213658200E+03 -0.30768802853E+03  0.10855485782E+03  0.44116191602E+03  0.92556497289E+02 0.  0.
         13    1    3    3    0    0 -0.84320096155E+02 -0.77747452079E+02 -0.10803827978E+02  0.11520098793E+03  0.00000000000E+00 0. -1.
        -13    1    3    3    0    0 -0.19781648585E+03 -0.22994057645E+03  0.11935868580E+03  0.32596092810E+03  0.00000000000E+00 0.  1.
         22    1    1    2    0    0  0.28213658200E+03  0.30768802853E+03 -0.12935696880E+04  0.13592628559E+04  0.00000000000E+00 0.  1.
<mgrwt>
<rscale>  0 0.13554590E+04</rscale>
<asrwt>0</asrwt>
<pdfrwt beam="1">  1        2 0.22964920E+00 0.13554590E+04</pdfrwt>
<pdfrwt beam="2">  1       -2 0.47339227E-01 0.13554590E+04</pdfrwt>
<totfact> 0.52901144E+01</totfact>
</mgrwt>
</event>
<event>
 6    1  0.2325157E-005  0.2255930E+04  0.7818608E-02  0.8495503E-01
         -1   -1    0    0    0  501 -0.00000000000E+00  0.00000000000E+00  0.83119149374E+03  0.83119149374E+03  0.00000000000E+00 0. -1.
          1   -1    0    0  501    0  0.00000000000E+00 -0.00000000000E+00 -0.15307000174E+04  0.15307000174E+04  0.00000000000E+00 0.  1.
         23    2    1    2    0    0 -0.78456599950E+03 -0.97571595582E+02 -0.11899753127E+04  0.14315035841E+04  0.89984679811E+02 0.  0.
         13    1    3    3    0    0 -0.31977938037E+03 -0.63287520809E+02 -0.55845076487E+03  0.64663082140E+03  0.00000000000E+00 0. -1.
        -13    1    3    3    0    0 -0.46478661913E+03 -0.34284074772E+02 -0.63152454780E+03  0.78487276267E+03  0.00000000000E+00 0.  1.
         22    1    1    2    0    0  0.78456599950E+03  0.97571595582E+02  0.49046678897E+03  0.93038792711E+03  0.00000000000E+00 0. -1.
<mgrwt>
<rscale>  0 0.22559298E+04</rscale>
<asrwt>0</asrwt>
<pdfrwt beam="1">  1        1 0.23549231E+00 0.22559298E+04</pdfrwt>
<pdfrwt beam="2">  1       -1 0.12787562E+00 0.22559298E+04</pdfrwt>
<totfact> 0.29878331E+00</totfact>
</mgrwt>
</event>
<event>
 6    1  0.2325157E-005  0.2148730E+04  0.7818608E-02  0.8540076E-01
          1   -1    0    0  501    0  0.00000000000E+00  0.00000000000E+00  0.88922220909E+03  0.88922220909E+03  0.00000000000E+00 0.  1.
         -1   -1    0    0    0  501 -0.00000000000E+00 -0.00000000000E+00 -0.12980557971E+04  0.12980557971E+04  0.00000000000E+00 0. -1.
         23    2    1    2    0    0  0.88744513229E+02 -0.10312851574E+04  0.80701336361E+02  0.10422587458E+04  0.91465419561E+02 0.  0.
         13    1    3    3    0    0  0.38350906092E+02 -0.75485345516E+03  0.89673285490E+02  0.76112799771E+03  0.00000000000E+00 0. -1.
        -13    1    3    3    0    0  0.50393607137E+02 -0.27643170225E+03 -0.89719491294E+01  0.28113074809E+03  0.00000000000E+00 0.  1.
         22    1    1    2    0    0 -0.88744513229E+02  0.10312851574E+04 -0.48953492440E+03  0.11450192604E+04  0.00000000000E+00 0. -1.
<mgrwt>
<rscale>  0 0.21487299E+04</rscale>
<asrwt>0</asrwt>
<pdfrwt beam="1">  1        1 0.13680342E+00 0.21487299E+04</pdfrwt>
<pdfrwt beam="2">  1       -1 0.19970089E+00 0.21487299E+04</pdfrwt>
<totfact> 0.25719129E+00</totfact>
</mgrwt>
</event>
<event>
 6    1  0.2325157E-005  0.3107821E+04  0.7818608E-02  0.8213595E-01
          1   -1    0    0  501    0  0.00000000000E+00  0.00000000000E+00  0.20910144652E+04  0.20910144652E+04  0.00000000000E+00 0.  1.
         -1   -1    0    0    0  501 -0.00000000000E+00 -0.00000000000E+00 -0.11547689571E+04  0.11547689571E+04  0.00000000000E+00 0. -1.
         23    2    1    2    0    0  0.73105371426E+03  0.13158959555E+04  0.72040820092E+02  0.15100209265E+04  0.94612999585E+02 0.  0.
         11    1    3    3    0    0  0.22845894406E+03  0.49027217929E+03  0.16357836289E+01  0.54089090831E+03  0.00000000000E+00 0.  1.
        -11    1    3    3    0    0  0.50259477021E+03  0.82562377623E+03  0.70405036463E+02  0.96913001815E+03  0.00000000000E+00 0. -1.
         22    1    1    2    0    0 -0.73105371426E+03 -0.13158959555E+04  0.86420468799E+03  0.17357624958E+04  0.00000000000E+00 0. -1.
<mgrwt>
<rscale>  0 0.31078215E+04</rscale>
<asrwt>0</asrwt>
<pdfrwt beam="1">  1        1 0.32169453E+00 0.31078215E+04</pdfrwt>
<pdfrwt beam="2">  1       -1 0.17765676E+00 0.31078215E+04</pdfrwt>
<totfact> 0.47154719E-01</totfact>
</mgrwt>
</event>
<event>
 6    1  0.2486871E-005  0.2893628E+04  0.7818608E-02  0.8274776E-01
         -2   -1    0    0    0  501 -0.00000000000E+00  0.00000000000E+00  0.17117030052E+04  0.17117030052E+04  0.00000000000E+00 0. -1.
          2   -1    0    0  501    0  0.00000000000E+00 -0.00000000000E+00 -0.12229170585E+04  0.12229170585E+04  0.00000000000E+00 0.  1.
         23    2    1    2    0    0 -0.39865384379E+03 -0.25619262634E+03 -0.11401888050E+04  0.12381182832E+04  0.91360950136E+02 0.  0.
         11    1    3    3    0    0 -0.14883713687E+03 -0.50983007538E+02 -0.32221149319E+03  0.35856938898E+03  0.00000000000E+00 0. -1.
        -11    1    3    3    0    0 -0.24981670692E+03 -0.20520961880E+03 -0.81797731185E+03  0.87954889427E+03  0.00000000000E+00 0.  1.
         22    1    1    2    0    0  0.39865384379E+03  0.25619262634E+03  0.16289747518E+04  0.16965017804E+04  0.00000000000E+00 0. -1.
<mgrwt>
<rscale>  0 0.28936280E+04</rscale>
<asrwt>0</asrwt>
<pdfrwt beam="1">  1        2 0.18814109E+00 0.28936280E+04</pdfrwt>
<pdfrwt beam="2">  1       -2 0.26333892E+00 0.28936280E+04</pdfrwt>
<totfact> 0.84361121E-01</totfact>
</mgrwt>
</event>
<event>
 6    1  0.2325157E-005  0.4190890E+04  0.7818608E-02  0.7967107E-01
          2   -1    0    0  501    0  0.00000000000E+00  0.00000000000E+00  0.33676155833E+04  0.33676155833E+04  0.00000000000E+00 0.  1.
         -2   -1    0    0    0  501 -0.00000000000E+00 -0.00000000000E+00 -0.13038573848E+04  0.13038573848E+04  0.00000000000E+00 0. -1.
         23    2    1    2    0    0 -0.16989370548E+04  0.72885962457E+03  0.21297370680E+04  0.28216144114E+04  0.90024656943E+02 0.  0.
         13    1    3    3    0    0 -0.11818890810E+04  0.46362630946E+03  0.14797978201E+04  0.19497724849E+04  0.00000000000E+00 0. -1.
        -13    1    3    3    0    0 -0.51704797383E+03  0.26523331512E+03  0.64993924793E+03  0.87184192643E+03  0.00000000000E+00 0.  1.
         22    1    1    2    0    0  0.16989370548E+04 -0.72885962457E+03 -0.65978869593E+02  0.18498585567E+04  0.00000000000E+00 0. -1.
<mgrwt>
<rscale>  0 0.41908903E+04</rscale>
<asrwt>0</asrwt>
<pdfrwt beam="1">  1        2 0.51809470E+00 0.41908903E+04</pdfrwt>
<pdfrwt beam="2">  1       -2 0.20059345E+00 0.41908903E+04</pdfrwt>
<totfact> 0.10256120E-01</totfact>
</mgrwt>
</event>
<event>
 6    1  0.2325157E-005  0.3960132E+04  0.7818608E-02  0.8012638E-01
         -2   -1    0    0    0  501 -0.00000000000E+00  0.00000000000E+00  0.18030266632E+04  0.18030266632E+04  0.00000000000E+00 0. -1.
          2   -1    0    0  501    0  0.00000000000E+00 -0.00000000000E+00 -0.21744884468E+04  0.21744884468E+04  0.00000000000E+00 0.  1.
         23    2    1    2    0    0  0.68374724195E+03  0.24717985227E+03  0.16629850697E+04  0.18170563233E+04  0.86983732922E+02 0.  0.
         11    1    3    3    0    0  0.74004876208E+02  0.36059007425E+02  0.13088247327E+03  0.15461951859E+03  0.00000000000E+00 0.  1.
        -11    1    3    3    0    0  0.60974236574E+03  0.21112084485E+03  0.15321025964E+04  0.16624368047E+04  0.00000000000E+00 0. -1.
         22    1    1    2    0    0 -0.68374724195E+03 -0.24717985227E+03 -0.20344468533E+04  0.21604587867E+04  0.00000000000E+00 0.  1.
<mgrwt>
<rscale>  0 0.39601316E+04</rscale>
<asrwt>0</asrwt>
<pdfrwt beam="1">  1        2 0.33453668E+00 0.39601316E+04</pdfrwt>
<pdfrwt beam="2">  1       -2 0.27738872E+00 0.39601316E+04</pdfrwt>
<totfact> 0.18454336E-01</totfact>
</mgrwt>
</event>
<event>
 6    1  0.2325157E-005  0.1744981E+04  0.7818608E-02  0.8736118E-01
         -1   -1    0    0    0  501 -0.00000000000E+00  0.00000000000E+00  0.13323916659E+04  0.13323916659E+04  0.00000000000E+00 0.  1.
          1   -1    0    0  501    0  0.00000000000E+00 -0.00000000000E+00 -0.57133303833E+03  0.57133303833E+03  0.00000000000E+00 0. -1.
         23    2    1    2    0    0 -0.58892600041E+03 -0.27553020561E+03 -0.24859449822E+03  0.70282913733E+03  0.97050726825E+02 0.  0.
         13    1    3    3    0    0 -0.20094739450E+03 -0.87661456623E+02 -0.13340047944E+03  0.25663217696E+03  0.00000000000E+00 0. -1.
        -13    1    3    3    0    0 -0.38797860590E+03 -0.18786874899E+03 -0.11519401878E+03  0.44619696038E+03  0.00000000000E+00 0.  1.
         22    1    1    2    0    0  0.58892600041E+03  0.27553020561E+03  0.10096531258E+04  0.12008955669E+04  0.00000000000E+00 0.  1.
<mgrwt>
<rscale>  0 0.17449807E+04</rscale>
<asrwt>0</asrwt>
<pdfrwt beam="1">  1        1 0.87897391E-01 0.17449807E+04</pdfrwt>
<pdfrwt beam="2">  1       -1 0.20498333E+00 0.17449807E+04</pdfrwt>
<totfact> 0.48446329E+00</totfact>
</mgrwt>
</event>
<event>
 6    1  0.2325157E-005  0.1277724E+04  0.7818608E-02  0.9047419E-01
          2   -1    0    0  501    0  0.00000000000E+00  0.00000000000E+00  0.73085095009E+03  0.73085095009E+03  0.00000000000E+00 0.  1.
         -2   -1    0    0    0  501 -0.00000000000E+00 -0.00000000000E+00 -0.55845146716E+03  0.55845146716E+03  0.00000000000E+00 0. -1.
         23    2    1    2    0    0 -0.52024978515E+03  0.13800927157E+03  0.42782104701E+03  0.69352848917E+03  0.90799333915E+02 0.  0.
         11    1    3    3    0    0 -0.38432026371E+03  0.72401023998E+02  0.27051762368E+03  0.47552471870E+03  0.00000000000E+00 0. -1.
        -11    1    3    3    0    0 -0.13592952144E+03  0.65608247571E+02  0.15730342332E+03  0.21800377047E+03  0.00000000000E+00 0.  1.
         22    1    1    2    0    0  0.52024978515E+03 -0.13800927157E+03 -0.25542156407E+03  0.59577392808E+03  0.00000000000E+00 0. -1.
<mgrwt>
<rscale>  0 0.12777242E+04</rscale>
<asrwt>0</asrwt>
<pdfrwt beam="1">  1        2 0.11243861E+00 0.12777242E+04</pdfrwt>
<pdfrwt beam="2">  1       -2 0.85915610E-01 0.12777242E+04</pdfrwt>
<totfact> 0.44775838E+01</totfact>
</mgrwt>
</event>
<event>
 6    1  0.2325157E-005  0.3947656E+04  0.7818608E-02  0.8015190E-01
          1   -1    0    0  501    0  0.00000000000E+00  0.00000000000E+00  0.11319234368E+04  0.11319234368E+04  0.00000000000E+00 0.  1.
         -1   -1    0    0    0  501 -0.00000000000E+00 -0.00000000000E+00 -0.34419261023E+04  0.34419261023E+04  0.00000000000E+00 0. -1.
         23    2    1    2    0    0 -0.11322028501E+04 -0.72184631269E+00  0.71619903452E+03  0.13427846149E+04  0.90805561817E+02 0.  0.
         11    1    3    3    0    0 -0.89014872120E+03  0.66180301844E+01  0.51851558267E+03  0.10301781174E+04  0.00000000000E+00 0.  1.
        -11    1    3    3    0    0 -0.24205412893E+03 -0.73398764970E+01  0.19768345185E+03  0.31260649746E+03  0.00000000000E+00 0. -1.
         22    1    1    2    0    0  0.11322028501E+04  0.72184631269E+00 -0.30262017000E+04  0.32310649241E+04  0.00000000000E+00 0. -1.
<mgrwt>
<rscale>  0 0.39476559E+04</rscale>
<asrwt>0</asrwt>
<pdfrwt beam="1">  1        1 0.17414207E+00 0.39476559E+04</pdfrwt>
<pdfrwt beam="2">  1       -1 0.52952708E+00 0.39476559E+04</pdfrwt>
<totfact> 0.92357074E-03</totfact>
</mgrwt>
</event>
<event>
 6    1  0.2325157E-005  0.2209975E+04  0.7818608E-02  0.8514288E-01
          2   -1    0    0  501    0  0.00000000000E+00  0.00000000000E+00  0.21514314413E+04  0.21514314413E+04  0.00000000000E+00 0.  1.
         -2   -1    0    0    0  501 -0.00000000000E+00 -0.00000000000E+00 -0.56752807930E+03  0.56752807930E+03  0.00000000000E+00 0. -1.
         23    2    1    2    0    0 -0.18113547679E+03  0.44061701307E+03 -0.43069579276E+03  0.64879934140E+03  0.92132004998E+02 0.  0.
         13    1    3    3    0    0 -0.11281000525E+03  0.33968151808E+03 -0.27671892719E+03  0.45241904876E+03  0.00000000000E+00 0. -1.
        -13    1    3    3    0    0 -0.68325471535E+02  0.10093549499E+03 -0.15397686557E+03  0.19638029265E+03  0.00000000000E+00 0.  1.
         22    1    1    2    0    0  0.18113547679E+03 -0.44061701307E+03  0.20145991547E+04  0.20701601792E+04  0.00000000000E+00 0.  1.
<mgrwt>
<rscale>  0 0.22099753E+04</rscale>
<asrwt>0</asrwt>
<pdfrwt beam="1">  1        2 0.33098945E+00 0.22099753E+04</pdfrwt>
<pdfrwt beam="2">  1       -2 0.87312013E-01 0.22099753E+04</pdfrwt>
<totfact> 0.56901930E+00</totfact>
</mgrwt>
</event>
<event>
 6    1  0.2325157E-005  0.1241962E+04  0.7818608E-02  0.9076900E-01
         -2   -1    0    0    0  501 -0.00000000000E+00  0.00000000000E+00  0.43887260685E+03  0.43887260685E+03  0.00000000000E+00 0. -1.
          2   -1    0    0  501    0  0.00000000000E+00 -0.00000000000E+00 -0.87865421020E+03  0.87865421020E+03  0.00000000000E+00 0.  1.
         23    2    1    2    0    0  0.87568031446E+02  0.44875249398E+03  0.21974984132E+03  0.51501283744E+03  0.88889082445E+02 0.  0.
         13    1    3    3    0    0  0.52427286104E+02  0.40979950987E+03  0.19940432602E+03  0.45874431207E+03  0.00000000000E+00 0. -1.
        -13    1    3    3    0    0  0.35140745342E+02  0.38952984109E+02  0.20345515300E+02  0.56268525368E+02  0.00000000000E+00 0.  1.
         22    1    1    2    0    0 -0.87568031446E+02 -0.44875249398E+03 -0.65953144467E+03  0.80251397962E+03  0.00000000000E+00 0.  1.
<mgrwt>
<rscale>  0 0.12419618E+04</rscale>
<asrwt>0</asrwt>
<pdfrwt beam="1">  1        2 0.13517757E+00 0.12419618E+04</pdfrwt>
<pdfrwt beam="2">  1       -2 0.67518863E-01 0.12419618E+04</pdfrwt>
<totfact> 0.60020592E+01</totfact>
</mgrwt>
</event>
<event>
 6    1  0.2325157E-005  0.3534313E+04  0.7818608E-02  0.8105706E-01
          2   -1    0    0  501    0  0.00000000000E+00  0.00000000000E+00  0.17003166881E+04  0.17003166881E+04  0.00000000000E+00 0.  1.
         -2   -1    0    0    0  501 -0.00000000000E+00 -0.00000000000E+00 -0.18366242064E+04  0.18366242064E+04  0.00000000000E+00 0. -1.
         23    2    1    2    0    0 -0.35809141899E+03  0.48845254331E+03  0.15919614618E+04  0.17056219656E+04  0.89384798828E+02 0.  0.
         13    1    3    3    0    0 -0.34833878582E+03  0.43963094843E+03  0.14257992920E+04  0.15321615129E+04  0.00000000000E+00 0.  1.
        -13    1    3    3    0    0 -0.97526331695E+01  0.48821594880E+02  0.16616216983E+03  0.17346045274E+03  0.00000000000E+00 0. -1.
         22    1    1    2    0    0  0.35809141899E+03 -0.48845254331E+03 -0.17282689801E+04  0.18313189288E+04  0.00000000000E+00 0. -1.
<mgrwt>
<rscale>  0 0.35343134E+04</rscale>
<asrwt>0</asrwt>
<pdfrwt beam="1">  1        2 0.26158718E+00 0.35343134E+04</pdfrwt>
<pdfrwt beam="2">  1       -2 0.28255757E+00 0.35343134E+04</pdfrwt>
<totfact> 0.32633410E-01</totfact>
</mgrwt>
</event>
<event>
 6    1  0.2325157E-005  0.2508653E+04  0.7818608E-02  0.8399909E-01
         -2   -1    0    0    0  501 -0.00000000000E+00  0.00000000000E+00  0.10109916289E+04  0.10109916289E+04  0.00000000000E+00 0.  1.
          2   -1    0    0  501    0  0.00000000000E+00 -0.00000000000E+00 -0.15562289163E+04  0.15562289163E+04  0.00000000000E+00 0. -1.
         23    2    1    2    0    0  0.57781295891E+03 -0.28175328734E+03  0.82719992605E+03  0.10516887456E+04  0.92394640628E+02 0.  0.
         13    1    3    3    0    0  0.24051086726E+03 -0.16167919650E+03  0.40709171011E+03  0.49970921573E+03  0.00000000000E+00 0. -1.
        -13    1    3    3    0    0  0.33730209165E+03 -0.12007409084E+03  0.42010821595E+03  0.55197952990E+03  0.00000000000E+00 0.  1.
         22    1    1    2    0    0 -0.57781295891E+03  0.28175328734E+03 -0.13724372135E+04  0.15155317995E+04  0.00000000000E+00 0. -1.
<mgrwt>
<rscale>  0 0.25086526E+04</rscale>
<asrwt>0</asrwt>
<pdfrwt beam="1">  1        2 0.23941983E+00 0.25086526E+04</pdfrwt>
<pdfrwt beam="2">  1       -2 0.15553717E+00 0.25086526E+04</pdfrwt>
<totfact> 0.28609226E+00</totfact>
</mgrwt>
</event>
<event>
 6    1  0.2325157E-005  0.1418792E+04  0.7818608E-02  0.8940327E-01
          2   -1    0    0  501    0  0.00000000000E+00  0.00000000000E+00  0.20987835361E+04  0.20987835361E+04  0.00000000000E+00 0.  1.
         -2   -1    0    0    0  501 -0.00000000000E+00 -0.00000000000E+00 -0.23977825385E+03  0.23977825385E+03  0.00000000000E+00 0. -1.
         23    2    1    2    0    0  0.63372286364E+03  0.19145748666E+03  0.52747183254E+03  0.85153725593E+03  0.92889864962E+02 0.  0.
         11    1    3    3    0    0  0.33764102399E+03  0.10572647764E+03  0.22268849743E+03  0.41805468068E+03  0.00000000000E+00 0. -1.
        -11    1    3    3    0    0  0.29608183965E+03  0.85731009017E+02  0.30478333511E+03  0.43348257524E+03  0.00000000000E+00 0.  1.
         22    1    1    2    0    0 -0.63372286364E+03 -0.19145748666E+03  0.13315334497E+04  0.14870245340E+04  0.00000000000E+00 0.  1.
<mgrwt>
<rscale>  0 0.14187920E+04</rscale>
<asrwt>0</asrwt>
<pdfrwt beam="1">  1        2 0.32288976E+00 0.14187920E+04</pdfrwt>
<pdfrwt beam="2">  1       -2 0.36888964E-01 0.14187920E+04</pdfrwt>
<totfact> 0.39643811E+01</totfact>
</mgrwt>
</event>
<event>
 6    1  0.2325157E-005  0.1266264E+04  0.7818608E-02  0.9056754E-01
          2   -1    0    0  501    0  0.00000000000E+00  0.00000000000E+00  0.17043269165E+04  0.17043269165E+04  0.00000000000E+00 0. -1.
         -2   -1    0    0    0  501 -0.00000000000E+00 -0.00000000000E+00 -0.23519907169E+03  0.23519907169E+03  0.00000000000E+00 0.  1.
         23    2    1    2    0    0  0.24326759366E+03 -0.54169209216E+03  0.41527592777E+03  0.72989244538E+03  0.87632418675E+02 0.  0.
         11    1    3    3    0    0  0.20993782517E+03 -0.40061534659E+03  0.34467159165E+03  0.56865196074E+03  0.00000000000E+00 0. -1.
        -11    1    3    3    0    0  0.33329768489E+02 -0.14107674557E+03  0.70604336119E+02  0.16124048464E+03  0.00000000000E+00 0.  1.
         22    1    1    2    0    0 -0.24326759366E+03  0.54169209216E+03  0.10538519170E+04  0.12096335428E+04  0.00000000000E+00 0. -1.
<mgrwt>
<rscale>  0 0.12662640E+04</rscale>
<asrwt>0</asrwt>
<pdfrwt beam="1">  1        2 0.26220413E+00 0.12662640E+04</pdfrwt>
<pdfrwt beam="2">  1       -2 0.36184474E-01 0.12662640E+04</pdfrwt>
<totfact> 0.68842875E+01</totfact>
</mgrwt>
</event>
<event>
 6    1  0.2325157E-005  0.2371718E+04  0.7818608E-02  0.8450169E-01
         -2   -1    0    0    0  501 -0.00000000000E+00  0.00000000000E+00  0.59819996423E+03  0.59819996423E+03  0.00000000000E+00 0. -1.
          2   -1    0    0  501    0  0.00000000000E+00 -0.00000000000E+00 -0.23508211725E+04  0.23508211725E+04  0.00000000000E+00 0.  1.
         23    2    1    2    0    0  0.37674729992E+03  0.11178557695E+04 -0.10039931565E+04  0.15518869236E+04  0.93865413553E+02 0.  0.
         11    1    3    3    0    0  0.13921863781E+03  0.48466746221E+03 -0.37620255481E+03  0.62913650370E+03  0.00000000000E+00 0.  1.
        -11    1    3    3    0    0  0.23752866212E+03  0.63318830733E+03 -0.62779060174E+03  0.92275041994E+03  0.00000000000E+00 0. -1.
         22    1    1    2    0    0 -0.37674729992E+03 -0.11178557695E+04 -0.74862805168E+03  0.13971342130E+04  0.00000000000E+00 0. -1.
<mgrwt>
<rscale>  0 0.23717176E+04</rscale>
<asrwt>0</asrwt>
<pdfrwt beam="1">  1        2 0.36166479E+00 0.23717176E+04</pdfrwt>
<pdfrwt beam="2">  1       -2 0.92030764E-01 0.23717176E+04</pdfrwt>
<totfact> 0.38361407E+00</totfact>
</mgrwt>
</event>
<event>
 6    1  0.2325157E-005  0.3246783E+04  0.7818608E-02  0.8176570E-01
          2   -1    0    0  501    0  0.00000000000E+00  0.00000000000E+00  0.15649594456E+04  0.15649594456E+04  0.00000000000E+00 0.  1.
         -2   -1    0    0    0  501 -0.00000000000E+00 -0.00000000000E+00 -0.16840054401E+04  0.16840054401E+04  0.00000000000E+00 0. -1.
         23    2    1    2    0    0 -0.10277285635E+04 -0.95801920703E+03  0.75084641542E+03  0.15964699217E+04  0.10449435339E+03 0.  0.
         13    1    3    3    0    0 -0.39519689775E+03 -0.42356913566E+03  0.34530557261E+03  0.67440888128E+03  0.00000000000E+00 0.  1.
        -13    1    3    3    0    0 -0.63253166579E+03 -0.53445007138E+03  0.40554084281E+03  0.92206104040E+03  0.00000000000E+00 0. -1.
         22    1    1    2    0    0  0.10277285635E+04  0.95801920703E+03 -0.86989240985E+03  0.16524949640E+04  0.00000000000E+00 0. -1.
<mgrwt>
<rscale>  0 0.32467832E+04</rscale>
<asrwt>0</asrwt>
<pdfrwt beam="1">  1        2 0.24076299E+00 0.32467832E+04</pdfrwt>
<pdfrwt beam="2">  1       -2 0.25907776E+00 0.32467832E+04</pdfrwt>
<totfact> 0.55322750E-01</totfact>
</mgrwt>
</event>
<event>
 6    1  0.2325157E-005  0.1019486E+04  0.7818608E-02  0.9287428E-01
         -2   -1    0    0    0  501 -0.00000000000E+00  0.00000000000E+00  0.47108764383E+03  0.47108764383E+03  0.00000000000E+00 0. -1.
          2   -1    0    0  501    0  0.00000000000E+00 -0.00000000000E+00 -0.55157011589E+03  0.55157011589E+03  0.00000000000E+00 0.  1.
         23    2    1    2    0    0 -0.48377836978E+02  0.28132153941E+03  0.37807346043E+03  0.48251355039E+03  0.91638208058E+02 0.  0.
         13    1    3    3    0    0 -0.17262508803E+02  0.26318332941E+03  0.33500056225E+03  0.42636702006E+03  0.00000000000E+00 0.  1.
        -13    1    3    3    0    0 -0.31115328175E+02  0.18138209998E+02  0.43072898185E+02  0.56146530324E+02  0.00000000000E+00 0. -1.
         22    1    1    2    0    0  0.48377836978E+02 -0.28132153941E+03 -0.45855593250E+03  0.54014420933E+03  0.00000000000E+00 0.  1.
<mgrwt>
<rscale>  0 0.10194859E+04</rscale>
<asrwt>0</asrwt>
<pdfrwt beam="1">  1        2 0.84856941E-01 0.10194859E+04</pdfrwt>
<pdfrwt beam="2">  1       -2 0.72475022E-01 0.10194859E+04</pdfrwt>
<totfact> 0.94324940E+01</totfact>
</mgrwt>
</event>
<event>
 6    1  0.2325157E-005  0.2928047E+04  0.7818608E-02  0.8264581E-01
          2   -1    0    0  501    0  0.00000000000E+00  0.00000000000E+00  0.14193322396E+04  0.14193322396E+04  0.00000000000E+00 0.  1.
         -2   -1    0    0    0  501 -0.00000000000E+00 -0.00000000000E+00 -0.15101220418E+04  0.15101220418E+04  0.00000000000E+00 0. -1.
         23    2    1    2    0    0 -0.11326931194E+04  0.28231172214E+03  0.83615932348E+03  0.14388408866E+04  0.91690083895E+02 0.  0.
         11    1    3    3    0    0 -0.12686241541E+03  0.56227147555E+02  0.78360307230E+02  0.15936091841E+03  0.00000000000E+00 0.  1.
        -11    1    3    3    0    0 -0.10058307040E+04  0.22608457458E+03  0.75779901625E+03  0.12794799682E+04  0.00000000000E+00 0. -1.
         22    1    1    2    0    0  0.11326931194E+04 -0.28231172214E+03 -0.92694912559E+03  0.14906133948E+04  0.00000000000E+00 0. -1.
<mgrwt>
<rscale>  0 0.29280471E+04</rscale>
<asrwt>0</asrwt>
<pdfrwt beam="1">  1        2 0.21835881E+00 0.29280471E+04</pdfrwt>
<pdfrwt beam="2">  1       -2 0.23232647E+00 0.29280471E+04</pdfrwt>
<totfact> 0.10043757E+00</totfact>
</mgrwt>
</event>
<event>
 6    1  0.2325157E-005  0.2775443E+04  0.7818608E-02  0.8310933E-01
         -2   -1    0    0    0  501 -0.00000000000E+00  0.00000000000E+00  0.21502603080E+04  0.21502603080E+04  0.00000000000E+00 0. -1.
          2   -1    0    0  501    0  0.00000000000E+00 -0.00000000000E+00 -0.89559930900E+03  0.89559930900E+03  0.00000000000E+00 0.  1.
         23    2    1    2    0    0  0.67565216991E+03 -0.47627412605E+03  0.18492248493E+04  0.20276017568E+04  0.90517637997E+02 0.  0.
         11    1    3    3    0    0  0.49752431480E+03 -0.30900613841E+03  0.12468211085E+04  0.13775260847E+04  0.00000000000E+00 0.  1.
        -11    1    3    3    0    0  0.17812785511E+03 -0.16726798764E+03  0.60240374083E+03  0.65007567207E+03  0.00000000000E+00 0. -1.
         22    1    1    2    0    0 -0.67565216991E+03  0.47627412605E+03 -0.59456385032E+03  0.10182578603E+04  0.00000000000E+00 0.  1.
<mgrwt>
<rscale>  0 0.27754435E+04</rscale>
<asrwt>0</asrwt>
<pdfrwt beam="1">  1        2 0.13778451E+00 0.27754435E+04</pdfrwt>
<pdfrwt beam="2">  1       -2 0.33080928E+00 0.27754435E+04</pdfrwt>
<totfact> 0.52821889E-01</totfact>
</mgrwt>
</event>
<event>
 6    1  0.2325157E-005  0.1449839E+04  0.7818608E-02  0.8918512E-01
         -2   -1    0    0    0  501 -0.00000000000E+00  0.00000000000E+00  0.31696293150E+03  0.31696293150E+03  0.00000000000E+00 0. -1.
          2   -1    0    0  501    0  0.00000000000E+00 -0.00000000000E+00 -0.16579496780E+04  0.16579496780E+04  0.00000000000E+00 0.  1.
         23    2    1    2    0    0 -0.51733948588E+03 -0.24163248111E+03 -0.12755294053E+04  0.14001856629E+04  0.86707712720E+02 0.  0.
         13    1    3    3    0    0 -0.10063214516E+03 -0.47547249080E+02 -0.17357931902E+03  0.20619735577E+03  0.00000000000E+00 0. -1.
        -13    1    3    3    0    0 -0.41670734072E+03 -0.19408523203E+03 -0.11019500862E+04  0.11939883072E+04  0.00000000000E+00 0.  1.
         22    1    1    2    0    0  0.51733948588E+03  0.24163248111E+03 -0.65457341230E+02  0.57472694655E+03  0.00000000000E+00 0. -1.
<mgrwt>
<rscale>  0 0.14498394E+04</rscale>
<asrwt>0</asrwt>
<pdfrwt beam="1">  1        2 0.25506918E+00 0.14498394E+04</pdfrwt>
<pdfrwt beam="2">  1       -2 0.48763529E-01 0.14498394E+04</pdfrwt>
<totfact> 0.39968771E+01</totfact>
</mgrwt>
</event>
<event>
 6    1  0.2325157E-005  0.1833716E+04  0.7818608E-02  0.8688572E-01
         -2   -1    0    0    0  501 -0.00000000000E+00  0.00000000000E+00  0.86908237997E+03  0.86908237997E+03  0.00000000000E+00 0. -1.
          2   -1    0    0  501    0  0.00000000000E+00 -0.00000000000E+00 -0.96726029588E+03  0.96726029588E+03  0.00000000000E+00 0.  1.
         23    2    1    2    0    0  0.21711920842E+03  0.10010015467E+03  0.83496390965E+03  0.87305950966E+03  0.88923480349E+02 0.  0.
         13    1    3    3    0    0  0.80851057529E+02  0.65110625382E+02  0.23647792078E+03  0.25825974146E+03  0.00000000000E+00 0.  1.
        -13    1    3    3    0    0  0.13626815089E+03  0.34989529292E+02  0.59848598887E+03  0.61479976820E+03  0.00000000000E+00 0. -1.
         22    1    1    2    0    0 -0.21711920842E+03 -0.10010015467E+03 -0.93314182557E+03  0.96328316618E+03  0.00000000000E+00 0.  1.
<mgrwt>
<rscale>  0 0.18337163E+04</rscale>
<asrwt>0</asrwt>
<pdfrwt beam="1">  1        2 0.14880928E+00 0.18337163E+04</pdfrwt>
<pdfrwt beam="2">  1       -2 0.13370498E+00 0.18337163E+04</pdfrwt>
<totfact> 0.10069462E+01</totfact>
</mgrwt>
</event>
<event>
 6    1  0.2325157E-005  0.2949192E+04  0.7818608E-02  0.8258390E-01
          2   -1    0    0  501    0  0.00000000000E+00  0.00000000000E+00  0.23816506551E+04  0.23816506551E+04  0.00000000000E+00 0.  1.
         -2   -1    0    0    0  501 -0.00000000000E+00 -0.00000000000E+00 -0.91299412253E+03  0.91299412253E+03  0.00000000000E+00 0. -1.
         23    2    1    2    0    0  0.21565102509E+03  0.81233589165E+03 -0.61653353847E+03  0.10464426964E+04  0.92378284136E+02 0.  0.
         13    1    3    3    0    0  0.17341576168E+03  0.74250210995E+03 -0.53799375014E+03  0.93317719907E+03  0.00000000000E+00 0.  1.
        -13    1    3    3    0    0  0.42235263414E+02  0.69833781702E+02 -0.78539788333E+02  0.11326549737E+03  0.00000000000E+00 0. -1.
         22    1    1    2    0    0 -0.21565102509E+03 -0.81233589165E+03  0.20851900711E+04  0.22482020812E+04  0.00000000000E+00 0.  1.
<mgrwt>
<rscale>  0 0.29491918E+04</rscale>
<asrwt>0</asrwt>
<pdfrwt beam="1">  1        2 0.36640779E+00 0.29491918E+04</pdfrwt>
<pdfrwt beam="2">  1       -2 0.14046064E+00 0.29491918E+04</pdfrwt>
<totfact> 0.12465585E+00</totfact>
</mgrwt>
</event>
<event>
 6    1  0.2325157E-005  0.1230564E+04  0.7818608E-02  0.9086517E-01
         -2   -1    0    0    0  501 -0.00000000000E+00  0.00000000000E+00  0.25002312180E+03  0.25002312180E+03  0.00000000000E+00 0. -1.
          2   -1    0    0  501    0  0.00000000000E+00 -0.00000000000E+00 -0.15141471966E+04  0.15141471966E+04  0.00000000000E+00 0.  1.
         23    2    1    2    0    0  0.49800028203E+03  0.32600383685E+03 -0.43211576644E+03  0.74117442020E+03  0.91283640443E+02 0.  0.
         13    1    3    3    0    0  0.12271164993E+03  0.12661698454E+03 -0.14527293946E+03  0.22846058028E+03  0.00000000000E+00 0. -1.
        -13    1    3    3    0    0  0.37528863210E+03  0.19938685231E+03 -0.28684282698E+03  0.51271383992E+03  0.00000000000E+00 0.  1.
         22    1    1    2    0    0 -0.49800028203E+03 -0.32600383685E+03 -0.83200830835E+03  0.10229958982E+04  0.00000000000E+00 0.  1.
<mgrwt>
<rscale>  0 0.12305638E+04</rscale>
<asrwt>0</asrwt>
<pdfrwt beam="1">  1        2 0.23294573E+00 0.12305638E+04</pdfrwt>
<pdfrwt beam="2">  1       -2 0.38465095E-01 0.12305638E+04</pdfrwt>
<totfact> 0.78310861E+01</totfact>
</mgrwt>
</event>
<event>
 6    1  0.2325157E-005  0.4918800E+04  0.7818608E-02  0.7841157E-01
          2   -1    0    0  501    0  0.00000000000E+00  0.00000000000E+00  0.31459418161E+04  0.31459418161E+04  0.00000000000E+00 0.  1.
         -2   -1    0    0    0  501 -0.00000000000E+00 -0.00000000000E+00 -0.19226830142E+04  0.19226830142E+04  0.00000000000E+00 0. -1.
         23    2    1    2    0    0 -0.14509854288E+04  0.19846426050E+04  0.60277854092E+03  0.25330458553E+04  0.93884777805E+02 0.  0.
         11    1    3    3    0    0 -0.55564019190E+03  0.78027084011E+03  0.18943556460E+03  0.97644479614E+03  0.00000000000E+00 0. -1.
        -11    1    3    3    0    0 -0.89534523687E+03  0.12043717649E+04  0.41334297632E+03  0.15566010592E+04  0.00000000000E+00 0.  1.
         22    1    1    2    0    0  0.14509854288E+04 -0.19846426050E+04  0.62048026090E+03  0.25355789750E+04  0.00000000000E+00 0. -1.
<mgrwt>
<rscale>  0 0.49188002E+04</rscale>
<asrwt>0</asrwt>
<pdfrwt beam="1">  1        2 0.48399105E+00 0.49188002E+04</pdfrwt>
<pdfrwt beam="2">  1       -2 0.29579739E+00 0.49188002E+04</pdfrwt>
<totfact> 0.34711359E-02</totfact>
</mgrwt>
</event>
<event>
 6    1  0.2325157E-005  0.1668039E+04  0.7818608E-02  0.8779806E-01
         -2   -1    0    0    0  501 -0.00000000000E+00  0.00000000000E+00  0.40902584359E+03  0.40902584359E+03  0.00000000000E+00 0. -1.
          2   -1    0    0  501    0  0.00000000000E+00 -0.00000000000E+00 -0.17005976939E+04  0.17005976939E+04  0.00000000000E+00 0.  1.
         23    2    1    2    0    0  0.65647774055E+03 -0.43746605064E+03 -0.31570970406E+03  0.85477434425E+03  0.92881607779E+02 0.  0.
         13    1    3    3    0    0  0.19449435036E+03 -0.81134273723E+02 -0.91292249914E+02  0.22966300875E+03  0.00000000000E+00 0.  1.
        -13    1    3    3    0    0  0.46198339018E+03 -0.35633177692E+03 -0.22441745414E+03  0.62511133550E+03  0.00000000000E+00 0. -1.
         22    1    1    2    0    0 -0.65647774055E+03  0.43746605064E+03 -0.97586214625E+03  0.12548491932E+04  0.00000000000E+00 0.  1.
<mgrwt>
<rscale>  0 0.16680389E+04</rscale>
<asrwt>0</asrwt>
<pdfrwt beam="1">  1        2 0.26163042E+00 0.16680389E+04</pdfrwt>
<pdfrwt beam="2">  1       -2 0.62927052E-01 0.16680389E+04</pdfrwt>
<totfact> 0.21874750E+01</totfact>
</mgrwt>
</event>
<event>
 6    1  0.2325157E-005  0.1266290E+04  0.7818608E-02  0.9056733E-01
          2   -1    0    0  501    0  0.00000000000E+00  0.00000000000E+00  0.16861827235E+04  0.16861827235E+04  0.00000000000E+00 0.  1.
         -2   -1    0    0    0  501 -0.00000000000E+00 -0.00000000000E+00 -0.23773965294E+03  0.23773965294E+03  0.00000000000E+00 0. -1.
         23    2    1    2    0    0 -0.41000169522E+03  0.22182936412E+02  0.14536309275E+04  0.15132882490E+04  0.91678668912E+02 0.  0.
         11    1    3    3    0    0 -0.40314837386E+02 -0.25528108312E+02  0.18188116444E+03  0.18803650817E+03  0.00000000000E+00 0. -1.
        -11    1    3    3    0    0 -0.36968685783E+03  0.47711044724E+02  0.12717497631E+04  0.13252517408E+04  0.00000000000E+00 0.  1.
         22    1    1    2    0    0  0.41000169522E+03 -0.22182936412E+02 -0.51878569769E+01  0.41063412743E+03  0.00000000000E+00 0. -1.
<mgrwt>
<rscale>  0 0.12662898E+04</rscale>
<asrwt>0</asrwt>
<pdfrwt beam="1">  1        2 0.25941272E+00 0.12662898E+04</pdfrwt>
<pdfrwt beam="2">  1       -2 0.36575332E-01 0.12662898E+04</pdfrwt>
<totfact> 0.69015424E+01</totfact>
</mgrwt>
</event>
<event>
 6    1  0.2325157E-005  0.9275950E+03  0.7818608E-02  0.9391729E-01
          2   -1    0    0  501    0  0.00000000000E+00  0.00000000000E+00  0.14829742272E+04  0.14829742272E+04  0.00000000000E+00 0.  1.
         -2   -1    0    0    0  501 -0.00000000000E+00 -0.00000000000E+00 -0.14505183260E+03  0.14505183260E+03  0.00000000000E+00 0. -1.
         23    2    1    2    0    0  0.33234542867E+03  0.13114460514E+03  0.11819207694E+04  0.12381685236E+04  0.92044535122E+02 0.  0.
         11    1    3    3    0    0  0.19575610649E+03  0.10956790904E+03  0.61535294776E+03  0.65496933534E+03  0.00000000000E+00 0.  1.
        -11    1    3    3    0    0  0.13658932218E+03  0.21576696102E+02  0.56656782159E+03  0.58319918828E+03  0.00000000000E+00 0. -1.
         22    1    1    2    0    0 -0.33234542867E+03 -0.13114460514E+03  0.15600162521E+03  0.38985753614E+03  0.00000000000E+00 0. -1.
<mgrwt>
<rscale>  0 0.92759502E+03</rscale>
<asrwt>0</asrwt>
<pdfrwt beam="1">  1        2 0.22814987E+00 0.92759502E+03</pdfrwt>
<pdfrwt beam="2">  1       -2 0.22315667E-01 0.92759502E+03</pdfrwt>
<totfact> 0.22870937E+02</totfact>
</mgrwt>
</event>
<event>
 6    1  0.2325157E-005  0.1390293E+04  0.7818608E-02  0.8960875E-01
         -1   -1    0    0    0  501 -0.00000000000E+00  0.00000000000E+00  0.76207410086E+03  0.76207410086E+03  0.00000000000E+00 0. -1.
          1   -1    0    0  501    0  0.00000000000E+00 -0.00000000000E+00 -0.63409712058E+03  0.63409712058E+03  0.00000000000E+00 0.  1.
         23    2    1    2    0    0 -0.40798637240E+03  0.11199307193E+03 -0.48596180291E+03  0.65057336888E+03  0.89952799802E+02 0.  0.
         11    1    3    3    0    0 -0.18650323282E+03  0.78353468515E+02 -0.17605908223E+03  0.26817815406E+03  0.00000000000E+00 0.  1.
        -11    1    3    3    0    0 -0.22148313958E+03  0.33639603415E+02 -0.30990272067E+03  0.38239521482E+03  0.00000000000E+00 0. -1.
         22    1    1    2    0    0  0.40798637240E+03 -0.11199307193E+03  0.61393878319E+03  0.74559785255E+03  0.00000000000E+00 0. -1.
<mgrwt>
<rscale>  0 0.13902935E+04</rscale>
<asrwt>0</asrwt>
<pdfrwt beam="1">  1        1 0.97553403E-01 0.13902935E+04</pdfrwt>
<pdfrwt beam="2">  1       -1 0.11724217E+00 0.13902935E+04</pdfrwt>
<totfact> 0.20205637E+01</totfact>
</mgrwt>
</event>
<event>
 6    1  0.2325157E-005  0.3886632E+04  0.7818608E-02  0.8027815E-01
         -2   -1    0    0    0  501 -0.00000000000E+00  0.00000000000E+00  0.92666473108E+03  0.92666473108E+03  0.00000000000E+00 0. -1.
          2   -1    0    0  501    0  0.00000000000E+00 -0.00000000000E+00 -0.40753426820E+04  0.40753426820E+04  0.00000000000E+00 0.  1.
         23    2    1    2    0    0 -0.92848644956E+03 -0.87928214428E+03  0.30620138312E+03  0.13180672142E+04  0.91201523121E+02 0.  0.
         11    1    3    3    0    0 -0.29828919556E+03 -0.31564425130E+03  0.14094164482E+03  0.45658765293E+03  0.00000000000E+00 0. -1.
        -11    1    3    3    0    0 -0.63019725400E+03 -0.56363789298E+03  0.16525973830E+03  0.86147956126E+03  0.00000000000E+00 0.  1.
         22    1    1    2    0    0  0.92848644956E+03  0.87928214428E+03 -0.34548793340E+04  0.36839401989E+04  0.00000000000E+00 0.  1.
<mgrwt>
<rscale>  0 0.38866316E+04</rscale>
<asrwt>0</asrwt>
<pdfrwt beam="1">  1        2 0.62697579E+00 0.38866316E+04</pdfrwt>
<pdfrwt beam="2">  1       -2 0.14256381E+00 0.38866316E+04</pdfrwt>
<totfact> 0.80611734E-02</totfact>
</mgrwt>
</event>
<event>
 6    1  0.2325157E-005  0.3416526E+04  0.7818608E-02  0.8133862E-01
          2   -1    0    0  501    0  0.00000000000E+00  0.00000000000E+00  0.32666316629E+04  0.32666316629E+04  0.00000000000E+00 0.  1.
         -2   -1    0    0    0  501 -0.00000000000E+00 -0.00000000000E+00 -0.89332440156E+03  0.89332440156E+03  0.00000000000E+00 0. -1.
         23    2    1    2    0    0  0.16516934911E+04  0.27811716998E+03  0.15885132932E+04  0.23102690311E+04  0.92346978522E+02 0.  0.
         11    1    3    3    0    0  0.13036855046E+04  0.25741582998E+03  0.12552369666E+04  0.18279711833E+04  0.00000000000E+00 0.  1.
        -11    1    3    3    0    0  0.34800798654E+03  0.20701339995E+02  0.33327632658E+03  0.48229784785E+03  0.00000000000E+00 0. -1.
         22    1    1    2    0    0 -0.16516934911E+04 -0.27811716998E+03  0.78479396812E+03  0.18496870333E+04  0.00000000000E+00 0. -1.
<mgrwt>
<rscale>  0 0.34165256E+04</rscale>
<asrwt>0</asrwt>
<pdfrwt beam="1">  1        2 0.50255871E+00 0.34165256E+04</pdfrwt>
<pdfrwt beam="2">  1       -2 0.13743452E+00 0.34165256E+04</pdfrwt>
<totfact> 0.36503268E-01</totfact>
</mgrwt>
</event>
<event>
 6    1  0.2325157E-005  0.2258267E+04  0.7818608E-02  0.8494560E-01
          2   -1    0    0  501    0  0.00000000000E+00  0.00000000000E+00  0.17382730464E+04  0.17382730464E+04  0.00000000000E+00 0. -1.
         -2   -1    0    0    0  501 -0.00000000000E+00 -0.00000000000E+00 -0.73345345044E+03  0.73345345044E+03  0.00000000000E+00 0.  1.
         23    2    1    2    0    0 -0.36293970959E+03 -0.35625420414E+03  0.16043221835E+04  0.16855677067E+04  0.92986743071E+02 0.  0.
         13    1    3    3    0    0 -0.22583211468E+03 -0.15717485029E+03  0.83507690057E+03  0.87923688927E+03  0.00000000000E+00 0.  1.
        -13    1    3    3    0    0 -0.13710759491E+03 -0.19907935385E+03  0.76924528297E+03  0.80633081740E+03  0.00000000000E+00 0. -1.
         22    1    1    2    0    0  0.36293970959E+03  0.35625420414E+03 -0.59950258762E+03  0.78615879015E+03  0.00000000000E+00 0.  1.
<mgrwt>
<rscale>  0 0.22582669E+04</rscale>
<asrwt>0</asrwt>
<pdfrwt beam="1">  1        2 0.26742662E+00 0.22582669E+04</pdfrwt>
<pdfrwt beam="2">  1       -2 0.11283899E+00 0.22582669E+04</pdfrwt>
<totfact> 0.52464371E+00</totfact>
</mgrwt>
</event>
<event>
 6    1  0.2325157E-005  0.2294341E+04  0.7818608E-02  0.8480156E-01
         -2   -1    0    0    0  501 -0.00000000000E+00  0.00000000000E+00  0.57852410488E+03  0.57852410488E+03  0.00000000000E+00 0. -1.
          2   -1    0    0  501    0  0.00000000000E+00 -0.00000000000E+00 -0.22747541425E+04  0.22747541425E+04  0.00000000000E+00 0.  1.
         23    2    1    2    0    0 -0.46557707950E+03  0.96845115559E+03 -0.13422623516E+04  0.17219282660E+04  0.93322424443E+02 0.  0.
         13    1    3    3    0    0 -0.13970614517E+03  0.39185560183E+03 -0.49913889495E+03  0.64977554289E+03  0.00000000000E+00 0.  1.
        -13    1    3    3    0    0 -0.32587093434E+03  0.57659555376E+03 -0.84312345664E+03  0.10721527231E+04  0.00000000000E+00 0. -1.
         22    1    1    2    0    0  0.46557707950E+03 -0.96845115559E+03 -0.35396768605E+03  0.11313499814E+04  0.00000000000E+00 0. -1.
<mgrwt>
<rscale>  0 0.22943410E+04</rscale>
<asrwt>0</asrwt>
<pdfrwt beam="1">  1        2 0.34996217E+00 0.22943410E+04</pdfrwt>
<pdfrwt beam="2">  1       -2 0.89003710E-01 0.22943410E+04</pdfrwt>
<totfact> 0.46076040E+00</totfact>
</mgrwt>
</event>
<event>
 6    1  0.2325157E-005  0.3535406E+04  0.7818608E-02  0.8105450E-01
         -2   -1    0    0    0  501 -0.00000000000E+00  0.00000000000E+00  0.69128239570E+03  0.69128239570E+03  0.00000000000E+00 0. -1.
          2   -1    0    0  501    0  0.00000000000E+00 -0.00000000000E+00 -0.45202571245E+04  0.45202571245E+04  0.00000000000E+00 0.  1.
         23    2    1    2    0    0 -0.47599561462E+03 -0.15200008857E+04 -0.78968224754E+03  0.17801734214E+04  0.91895812024E+02 0.  0.
         11    1    3    3    0    0 -0.21633685794E+03 -0.57247280930E+03 -0.33368878353E+03  0.69704731385E+03  0.00000000000E+00 0. -1.
        -11    1    3    3    0    0 -0.25965875668E+03 -0.94752807642E+03 -0.45599346400E+03  0.10831261075E+04  0.00000000000E+00 0.  1.
         22    1    1    2    0    0  0.47599561462E+03  0.15200008857E+04 -0.30392924813E+04  0.34313660989E+04  0.00000000000E+00 0.  1.
<mgrwt>
<rscale>  0 0.35354062E+04</rscale>
<asrwt>0</asrwt>
<pdfrwt beam="1">  1        2 0.69542416E+00 0.35354062E+04</pdfrwt>
<pdfrwt beam="2">  1       -2 0.10635114E+00 0.35354062E+04</pdfrwt>
<totfact> 0.68307216E-02</totfact>
</mgrwt>
</event>
<event>
 6    1  0.2325157E-005  0.6536502E+03  0.7818608E-02  0.9799954E-01
         -4   -1    0    0    0  501 -0.00000000000E+00  0.00000000000E+00  0.21786982402E+03  0.21786982402E+03  0.00000000000E+00 0. -1.
          4   -1    0    0  501    0  0.00000000000E+00 -0.00000000000E+00 -0.49026823431E+03  0.49026823431E+03  0.00000000000E+00 0.  1.
         23    2    1    2    0    0 -0.16037732856E+03  0.26381307087E+03 -0.45692693787E+02  0.32510580673E+03  0.91037022273E+02 0.  0.
         13    1    3    3    0    0 -0.64579684346E+02  0.84696585554E+02  0.26111843114E+02  0.10966255325E+03  0.00000000000E+00 0. -1.
        -13    1    3    3    0    0 -0.95797644216E+02  0.17911648532E+03 -0.71804536901E+02  0.21544325348E+03  0.00000000000E+00 0.  1.
         22    1    1    2    0    0  0.16037732856E+03 -0.26381307087E+03 -0.22670571650E+03  0.38303225161E+03  0.00000000000E+00 0.  1.
<mgrwt>
<rscale>  0 0.65365022E+03</rscale>
<asrwt>0</asrwt>
<pdfrwt beam="1">  1        4 0.75425881E-01 0.65365022E+03</pdfrwt>
<pdfrwt beam="2">  1       -4 0.33518435E-01 0.65365022E+03</pdfrwt>
<totfact> 0.27189959E+01</totfact>
</mgrwt>
</event>
<event>
 6    1  0.2325157E-005  0.2221189E+04  0.7818608E-02  0.8509660E-01
         -2   -1    0    0    0  501 -0.00000000000E+00  0.00000000000E+00  0.88696480269E+03  0.88696480269E+03  0.00000000000E+00 0. -1.
          2   -1    0    0  501    0  0.00000000000E+00 -0.00000000000E+00 -0.13906077003E+04  0.13906077003E+04  0.00000000000E+00 0.  1.
         23    2    1    2    0    0 -0.81204926696E+02  0.17757321085E+03 -0.13713588864E+04  0.13881583572E+04  0.90730061193E+02 0.  0.
         13    1    3    3    0    0  0.15974355349E+02  0.20813251459E+02 -0.28987718431E+03  0.29106211270E+03  0.00000000000E+00 0. -1.
        -13    1    3    3    0    0 -0.97179282045E+02  0.15675995939E+03 -0.10814817021E+04  0.10970962445E+04  0.00000000000E+00 0.  1.
         22    1    1    2    0    0  0.81204926696E+02 -0.17757321085E+03  0.86771598885E+03  0.88941414574E+03  0.00000000000E+00 0. -1.
<mgrwt>
<rscale>  0 0.22211889E+04</rscale>
<asrwt>0</asrwt>
<pdfrwt beam="1">  1        2 0.21393965E+00 0.22211889E+04</pdfrwt>
<pdfrwt beam="2">  1       -2 0.13645612E+00 0.22211889E+04</pdfrwt>
<totfact> 0.51320400E+00</totfact>
</mgrwt>
</event>
<event>
 6    1  0.2325157E-005  0.6938333E+03  0.7818608E-02  0.9727837E-01
          2   -1    0    0  501    0  0.00000000000E+00  0.00000000000E+00  0.93597907341E+03  0.93597907341E+03  0.00000000000E+00 0.  1.
         -2   -1    0    0    0  501 -0.00000000000E+00 -0.00000000000E+00 -0.12858318534E+03  0.12858318534E+03  0.00000000000E+00 0. -1.
         23    2    1    2    0    0 -0.12590740682E+03  0.27495432545E+03  0.17624375988E+03  0.36470115460E+03  0.10243296876E+03 0.  0.
         13    1    3    3    0    0 -0.13807229621E+03  0.20262410114E+03  0.12492991600E+03  0.27518715315E+03  0.00000000000E+00 0.  1.
        -13    1    3    3    0    0  0.12164889381E+02  0.72330224310E+02  0.51313843881E+02  0.89514001453E+02  0.00000000000E+00 0. -1.
         22    1    1    2    0    0  0.12590740682E+03 -0.27495432545E+03  0.63115212819E+03  0.69986110415E+03  0.00000000000E+00 0.  1.
<mgrwt>
<rscale>  0 0.69383332E+03</rscale>
<asrwt>0</asrwt>
<pdfrwt beam="1">  1        2 0.14399678E+00 0.69383332E+03</pdfrwt>
<pdfrwt beam="2">  1       -2 0.19782029E-01 0.69383332E+03</pdfrwt>
<totfact> 0.60734127E+02</totfact>
</mgrwt>
</event>
<event>
 6    1  0.2325157E-005  0.3975321E+04  0.7818608E-02  0.8009544E-01
          2   -1    0    0  501    0  0.00000000000E+00  0.00000000000E+00  0.28974778436E+04  0.28974778436E+04  0.00000000000E+00 0. -1.
         -2   -1    0    0    0  501 -0.00000000000E+00 -0.00000000000E+00 -0.13635284708E+04  0.13635284708E+04  0.00000000000E+00 0.  1.
         23    2    1    2    0    0  0.68080864375E+03 -0.14599991964E+04 -0.47866889000E+03  0.16830749083E+04  0.92299393134E+02 0.  0.
         11    1    3    3    0    0  0.17988487491E+03 -0.34022868894E+03 -0.78802192415E+02  0.39284082594E+03  0.00000000000E+00 0. -1.
        -11    1    3    3    0    0  0.50092376885E+03 -0.11197705075E+04 -0.39986669759E+03  0.12902340824E+04  0.00000000000E+00 0.  1.
         22    1    1    2    0    0 -0.68080864375E+03  0.14599991964E+04  0.20126182627E+04  0.25779314061E+04  0.00000000000E+00 0. -1.
<mgrwt>
<rscale>  0 0.39753206E+04</rscale>
<asrwt>0</asrwt>
<pdfrwt beam="1">  1        2 0.44576582E+00 0.39753206E+04</pdfrwt>
<pdfrwt beam="2">  1       -2 0.20977361E+00 0.39753206E+04</pdfrwt>
<totfact> 0.18303578E-01</totfact>
</mgrwt>
</event>
<event>
 6    1  0.2325157E-005  0.1378448E+04  0.7818608E-02  0.8969569E-01
          2   -1    0    0  501    0  0.00000000000E+00  0.00000000000E+00  0.14899358221E+04  0.14899358221E+04  0.00000000000E+00 0.  1.
         -2   -1    0    0    0  501 -0.00000000000E+00 -0.00000000000E+00 -0.31882554239E+03  0.31882554239E+03  0.00000000000E+00 0. -1.
         23    2    1    2    0    0 -0.25628670950E+03 -0.49653639726E+03  0.65360547822E+02  0.56984500700E+03  0.90664543895E+02 0.  0.
         11    1    3    3    0    0 -0.24229115580E+03 -0.40591569156E+03  0.70739515626E+02  0.47799229272E+03  0.00000000000E+00 0. -1.
        -11    1    3    3    0    0 -0.13995553703E+02 -0.90620705703E+02 -0.53789678041E+01  0.91852714277E+02  0.00000000000E+00 0.  1.
         22    1    1    2    0    0  0.25628670950E+03  0.49653639726E+03  0.11057497319E+04  0.12389163575E+04  0.00000000000E+00 0.  1.
<mgrwt>
<rscale>  0 0.13784478E+04</rscale>
<asrwt>0</asrwt>
<pdfrwt beam="1">  1        2 0.22922089E+00 0.13784478E+04</pdfrwt>
<pdfrwt beam="2">  1       -2 0.49050084E-01 0.13784478E+04</pdfrwt>
<totfact> 0.49324730E+01</totfact>
</mgrwt>
</event>
<event>
 6    1  0.2325157E-005  0.2839360E+04  0.7818608E-02  0.8291152E-01
          2   -1    0    0  501    0  0.00000000000E+00  0.00000000000E+00  0.11884773619E+04  0.11884773619E+04  0.00000000000E+00 0.  1.
         -2   -1    0    0    0  501 -0.00000000000E+00 -0.00000000000E+00 -0.16958599251E+04  0.16958599251E+04  0.00000000000E+00 0. -1.
         23    2    1    2    0    0  0.64793859567E+03 -0.84560646309E+03 -0.12049584781E+04  0.16109611167E+04  0.91630078785E+02 0.  0.
         13    1    3    3    0    0  0.54224484806E+03 -0.64900535774E+03 -0.93736249133E+03  0.12624919286E+04  0.00000000000E+00 0. -1.
        -13    1    3    3    0    0  0.10569374761E+03 -0.19660110535E+03 -0.26759598676E+03  0.34846918808E+03  0.00000000000E+00 0.  1.
         22    1    1    2    0    0 -0.64793859567E+03  0.84560646309E+03  0.69757591492E+03  0.12733761704E+04  0.00000000000E+00 0.  1.
<mgrwt>
<rscale>  0 0.28393599E+04</rscale>
<asrwt>0</asrwt>
<pdfrwt beam="1">  1        2 0.18284267E+00 0.28393599E+04</pdfrwt>
<pdfrwt beam="2">  1       -2 0.26090153E+00 0.28393599E+04</pdfrwt>
<totfact> 0.91951407E-01</totfact>
</mgrwt>
</event>
<event>
 6    1  0.2325157E-005  0.1537777E+04  0.7818608E-02  0.8859713E-01
          2   -1    0    0  501    0  0.00000000000E+00  0.00000000000E+00  0.73357607568E+03  0.73357607568E+03  0.00000000000E+00 0.  1.
         -2   -1    0    0    0  501 -0.00000000000E+00 -0.00000000000E+00 -0.80590072263E+03  0.80590072263E+03  0.00000000000E+00 0. -1.
         23    2    1    2    0    0 -0.49102956100E+03  0.20344673811E+02 -0.62470038118E+03  0.80012377891E+03  0.91779953184E+02 0.  0.
         13    1    3    3    0    0 -0.40891649540E+03 -0.13305752945E+02 -0.48374559649E+03  0.63356100369E+03  0.00000000000E+00 0. -1.
        -13    1    3    3    0    0 -0.82113065598E+02  0.33650426755E+02 -0.14095478469E+03  0.16656277523E+03  0.00000000000E+00 0.  1.
         22    1    1    2    0    0  0.49102956100E+03 -0.20344673811E+02  0.55237573423E+03  0.73935301940E+03  0.00000000000E+00 0.  1.
<mgrwt>
<rscale>  0 0.15377770E+04</rscale>
<asrwt>0</asrwt>
<pdfrwt beam="1">  1        2 0.11285786E+00 0.15377770E+04</pdfrwt>
<pdfrwt beam="2">  1       -2 0.12398473E+00 0.15377770E+04</pdfrwt>
<totfact> 0.18192861E+01</totfact>
</mgrwt>
</event>
<event>
 6    1  0.2325157E-005  0.3159343E+04  0.7818608E-02  0.8199638E-01
          2   -1    0    0  501    0  0.00000000000E+00  0.00000000000E+00  0.17921094302E+04  0.17921094302E+04  0.00000000000E+00 0.  1.
         -2   -1    0    0    0  501 -0.00000000000E+00 -0.00000000000E+00 -0.13924164273E+04  0.13924164273E+04  0.00000000000E+00 0. -1.
         23    2    1    2    0    0 -0.36842904742E+03  0.78177103857E+03  0.15311291062E+04  0.17607795403E+04  0.95301259896E+02 0.  0.
         13    1    3    3    0    0 -0.65635832438E+02  0.20175935365E+03  0.44072912751E+03  0.48913910406E+03  0.00000000000E+00 0. -1.
        -13    1    3    3    0    0 -0.30279321498E+03  0.58001168492E+03  0.10903999787E+04  0.12716404363E+04  0.00000000000E+00 0.  1.
         22    1    1    2    0    0  0.36842904742E+03 -0.78177103857E+03 -0.11314361033E+04  0.14237463171E+04  0.00000000000E+00 0. -1.
<mgrwt>
<rscale>  0 0.31593434E+04</rscale>
<asrwt>0</asrwt>
<pdfrwt beam="1">  1        2 0.27570914E+00 0.31593434E+04</pdfrwt>
<pdfrwt beam="2">  1       -2 0.21421791E+00 0.31593434E+04</pdfrwt>
<totfact> 0.79234118E-01</totfact>
</mgrwt>
</event>
<event>
 6    1  0.2325157E-005  0.3009667E+04  0.7818608E-02  0.8240976E-01
         -2   -1    0    0    0  501 -0.00000000000E+00  0.00000000000E+00  0.65830636099E+03  0.65830636099E+03  0.00000000000E+00 0. -1.
          2   -1    0    0  501    0  0.00000000000E+00 -0.00000000000E+00 -0.34399251390E+04  0.34399251390E+04  0.00000000000E+00 0.  1.
         23    2    1    2    0    0  0.40199916258E+03  0.61546942966E+03 -0.31779317847E+04  0.32630848393E+04  0.89812551680E+02 0.  0.
         13    1    3    3    0    0  0.18879353850E+03  0.25747815626E+03 -0.15621022287E+04  0.15943968684E+04  0.00000000000E+00 0. -1.
        -13    1    3    3    0    0  0.21320562409E+03  0.35799127339E+03 -0.16158295560E+04  0.16686879708E+04  0.00000000000E+00 0.  1.
         22    1    1    2    0    0 -0.40199916258E+03 -0.61546942966E+03  0.39631300673E+03  0.83514666069E+03  0.00000000000E+00 0. -1.
<mgrwt>
<rscale>  0 0.30096675E+04</rscale>
<asrwt>0</asrwt>
<pdfrwt beam="1">  1        2 0.52921925E+00 0.30096675E+04</pdfrwt>
<pdfrwt beam="2">  1       -2 0.10127790E+00 0.30096675E+04</pdfrwt>
<totfact> 0.61305076E-01</totfact>
</mgrwt>
</event>
<event>
 6    1  0.2325157E-005  0.9186335E+03  0.7818608E-02  0.9402584E-01
          2   -1    0    0  501    0  0.00000000000E+00  0.00000000000E+00  0.12496597989E+04  0.12496597989E+04  0.00000000000E+00 0.  1.
         -2   -1    0    0    0  501 -0.00000000000E+00 -0.00000000000E+00 -0.16882346408E+03  0.16882346408E+03  0.00000000000E+00 0. -1.
         23    2    1    2    0    0  0.18387328039E+03  0.22145147013E+03  0.10867111470E+04  0.11305863191E+04  0.12014229567E+03 0.  0.
         13    1    3    3    0    0  0.16019951247E+02  0.46449490386E+02  0.71084247615E+02  0.86412755159E+02  0.00000000000E+00 0. -1.
        -13    1    3    3    0    0  0.16785332914E+03  0.17500197974E+03  0.10156268994E+04  0.10441735640E+04  0.00000000000E+00 0.  1.
         22    1    1    2    0    0 -0.18387328039E+03 -0.22145147013E+03 -0.58748121476E+01  0.28789694385E+03  0.00000000000E+00 0. -1.
<mgrwt>
<rscale>  0 0.91863354E+03</rscale>
<asrwt>0</asrwt>
<pdfrwt beam="1">  1        2 0.19225535E+00 0.91863354E+03</pdfrwt>
<pdfrwt beam="2">  1       -2 0.25972841E-01 0.91863354E+03</pdfrwt>
<totfact> 0.23692816E+02</totfact>
</mgrwt>
</event>
<event>
 6    1  0.2325157E-005  0.2500648E+04  0.7818608E-02  0.8402755E-01
          2   -1    0    0  501    0  0.00000000000E+00  0.00000000000E+00  0.33862723488E+04  0.33862723488E+04  0.00000000000E+00 0.  1.
         -2   -1    0    0    0  501 -0.00000000000E+00 -0.00000000000E+00 -0.46166119210E+03  0.46166119210E+03  0.00000000000E+00 0. -1.
         23    2    1    2    0    0  0.46689977572E+03 -0.10909810807E+04  0.86559153118E+03  0.14714241390E+04  0.87207676315E+02 0.  0.
         13    1    3    3    0    0  0.13061311946E+03 -0.31766160276E+03  0.20292758974E+03  0.39893393879E+03  0.00000000000E+00 0.  1.
        -13    1    3    3    0    0  0.33628665626E+03 -0.77331947798E+03  0.66266394144E+03  0.10724902002E+04  0.00000000000E+00 0. -1.
         22    1    1    2    0    0 -0.46689977572E+03  0.10909810807E+04  0.20590196255E+04  0.23765094019E+04  0.00000000000E+00 0.  1.
<mgrwt>
<rscale>  0 0.25006483E+04</rscale>
<asrwt>0</asrwt>
<pdfrwt beam="1">  1        2 0.52096496E+00 0.25006483E+04</pdfrwt>
<pdfrwt beam="2">  1       -2 0.71024801E-01 0.25006483E+04</pdfrwt>
<totfact> 0.15659613E+00</totfact>
</mgrwt>
</event>
<event>
 6    1  0.2325157E-005  0.3679982E+04  0.7818608E-02  0.8072413E-01
         -1   -1    0    0    0  501 -0.00000000000E+00  0.00000000000E+00  0.85774073059E+03  0.85774073059E+03  0.00000000000E+00 0. -1.
          1   -1    0    0  501    0  0.00000000000E+00 -0.00000000000E+00 -0.39470746709E+04  0.39470746709E+04  0.00000000000E+00 0.  1.
         23    2    1    2    0    0  0.15910973390E+04  0.47993220987E+03 -0.51799939019E+03  0.17431676365E+04  0.91566219841E+02 0.  0.
         11    1    3    3    0    0  0.12421493821E+04  0.40209244331E+03 -0.43463587569E+03  0.13760529659E+04  0.00000000000E+00 0. -1.
        -11    1    3    3    0    0  0.34894795684E+03  0.77839766562E+02 -0.83363514494E+02  0.36711467063E+03  0.00000000000E+00 0.  1.
         22    1    1    2    0    0 -0.15910973390E+04 -0.47993220987E+03 -0.25713345501E+04  0.30616477649E+04  0.00000000000E+00 0.  1.
<mgrwt>
<rscale>  0 0.36799819E+04</rscale>
<asrwt>0</asrwt>
<pdfrwt beam="1">  1        1 0.60724225E+00 0.36799819E+04</pdfrwt>
<pdfrwt beam="2">  1       -1 0.13196011E+00 0.36799819E+04</pdfrwt>
<totfact> 0.41772476E-02</totfact>
</mgrwt>
</event>
<event>
 6    1  0.2325157E-005  0.2619040E+04  0.7818608E-02  0.8361762E-01
          2   -1    0    0  501    0  0.00000000000E+00  0.00000000000E+00  0.19069766104E+04  0.19069766104E+04  0.00000000000E+00 0. -1.
         -2   -1    0    0    0  501 -0.00000000000E+00 -0.00000000000E+00 -0.89924705885E+03  0.89924705885E+03  0.00000000000E+00 0.  1.
         23    2    1    2    0    0 -0.87383728951E+03  0.74130293913E+03 -0.17111826678E+03  0.11622030383E+04  0.91174475307E+02 0.  0.
         11    1    3    3    0    0 -0.71088269428E+03  0.55406477707E+03 -0.13685387047E+03  0.91163093633E+03  0.00000000000E+00 0. -1.
        -11    1    3    3    0    0 -0.16295459523E+03  0.18723816206E+03 -0.34264396312E+02  0.25057210199E+03  0.00000000000E+00 0.  1.
         22    1    1    2    0    0  0.87383728951E+03 -0.74130293913E+03  0.11788478183E+04  0.16440206309E+04  0.00000000000E+00 0. -1.
<mgrwt>
<rscale>  0 0.26190404E+04</rscale>
<asrwt>0</asrwt>
<pdfrwt beam="1">  1        2 0.29338101E+00 0.26190404E+04</pdfrwt>
<pdfrwt beam="2">  1       -2 0.13834570E+00 0.26190404E+04</pdfrwt>
<totfact> 0.24623116E+00</totfact>
</mgrwt>
</event>
<event>
 6    1  0.2325157E-005  0.3088104E+04  0.7818608E-02  0.8219010E-01
         -2   -1    0    0    0  501 -0.00000000000E+00  0.00000000000E+00  0.86928847313E+03  0.86928847313E+03  0.00000000000E+00 0. -1.
          2   -1    0    0  501    0  0.00000000000E+00 -0.00000000000E+00 -0.27425833907E+04  0.27425833907E+04  0.00000000000E+00 0.  1.
         23    2    1    2    0    0 -0.12618673046E+04 -0.73782187323E+03 -0.36035075538E+03  0.15081394072E+04  0.89115620080E+02 0.  0.
         13    1    3    3    0    0 -0.10259781511E+04 -0.60673614007E+03 -0.25829335497E+03  0.12196209933E+04  0.00000000000E+00 0.  1.
        -13    1    3    3    0    0 -0.23588915351E+03 -0.13108573316E+03 -0.10205740040E+03  0.28851841390E+03  0.00000000000E+00 0. -1.
         22    1    1    2    0    0  0.12618673046E+04  0.73782187323E+03 -0.15129441622E+04  0.21037324566E+04  0.00000000000E+00 0.  1.
<mgrwt>
<rscale>  0 0.30881037E+04</rscale>
<asrwt>0</asrwt>
<pdfrwt beam="1">  1        2 0.42193590E+00 0.30881037E+04</pdfrwt>
<pdfrwt beam="2">  1       -2 0.13373669E+00 0.30881037E+04</pdfrwt>
<totfact> 0.85967147E-01</totfact>
</mgrwt>
</event>
<event>
 6    1  0.2325157E-005  0.2818666E+04  0.7818608E-02  0.8297497E-01
         -2   -1    0    0    0  501 -0.00000000000E+00  0.00000000000E+00  0.11379549327E+04  0.11379549327E+04  0.00000000000E+00 0. -1.
          2   -1    0    0  501    0  0.00000000000E+00 -0.00000000000E+00 -0.17454291982E+04  0.17454291982E+04  0.00000000000E+00 0.  1.
         23    2    1    2    0    0  0.17498709783E+03 -0.84005601372E+03  0.83770822752E+03  0.12026500565E+04  0.91090577420E+02 0.  0.
         13    1    3    3    0    0  0.11775566483E+03 -0.37436150868E+03  0.34921813868E+03  0.52532489391E+03  0.00000000000E+00 0.  1.
        -13    1    3    3    0    0  0.57231432995E+02 -0.46569450504E+03  0.48849008884E+03  0.67732516256E+03  0.00000000000E+00 0. -1.
         22    1    1    2    0    0 -0.17498709783E+03  0.84005601372E+03 -0.14451824930E+04  0.16807340743E+04  0.00000000000E+00 0.  1.
<mgrwt>
<rscale>  0 0.28186662E+04</rscale>
<asrwt>0</asrwt>
<pdfrwt beam="1">  1        2 0.26852757E+00 0.28186662E+04</pdfrwt>
<pdfrwt beam="2">  1       -2 0.17506999E+00 0.28186662E+04</pdfrwt>
<totfact> 0.15779210E+00</totfact>
</mgrwt>
</event>
<event>
 6    1  0.2325157E-005  0.5586413E+03  0.7818608E-02  0.9995134E-01
         -2   -1    0    0    0  501 -0.00000000000E+00  0.00000000000E+00  0.47209711093E+03  0.47209711093E+03  0.00000000000E+00 0. -1.
          2   -1    0    0  501    0  0.00000000000E+00 -0.00000000000E+00 -0.16526265315E+03  0.16526265315E+03  0.00000000000E+00 0.  1.
         23    2    1    2    0    0  0.21495443736E+03  0.15286986725E+03  0.82971400117E+02  0.29139838612E+03  0.91946504801E+02 0.  0.
         11    1    3    3    0    0  0.14015806807E+03  0.45052881760E+02  0.55482822786E+02  0.15732892240E+03  0.00000000000E+00 0. -1.
        -11    1    3    3    0    0  0.74796369287E+02  0.10781698549E+03  0.27488577331E+02  0.13406946372E+03  0.00000000000E+00 0.  1.
         22    1    1    2    0    0 -0.21495443736E+03 -0.15286986725E+03  0.22386305766E+03  0.34596137796E+03  0.00000000000E+00 0. -1.
<mgrwt>
<rscale>  0 0.55864128E+03</rscale>
<asrwt>0</asrwt>
<pdfrwt beam="1">  1        2 0.25425024E-01 0.55864128E+03</pdfrwt>
<pdfrwt beam="2">  1       -2 0.72630324E-01 0.55864128E+03</pdfrwt>
<totfact> 0.37224284E+02</totfact>
</mgrwt>
</event>
<event>
 6    1  0.2325157E-005  0.8117741E+03  0.7818608E-02  0.9543129E-01
         -2   -1    0    0    0  501 -0.00000000000E+00  0.00000000000E+00  0.44880024607E+03  0.44880024607E+03  0.00000000000E+00 0. -1.
          2   -1    0    0  501    0  0.00000000000E+00 -0.00000000000E+00 -0.36707713699E+03  0.36707713699E+03  0.00000000000E+00 0.  1.
         23    2    1    2    0    0  0.20950777208E+03  0.29996953564E+03  0.20317050167E+03  0.43035864417E+03  0.10027502676E+03 0.  0.
         11    1    3    3    0    0  0.51721251329E+00  0.64484379571E+02  0.32054617780E+02  0.72013896148E+02  0.00000000000E+00 0.  1.
        -11    1    3    3    0    0  0.20899055957E+03  0.23548515606E+03  0.17111588389E+03  0.35834474802E+03  0.00000000000E+00 0. -1.
         22    1    1    2    0    0 -0.20950777208E+03 -0.29996953564E+03 -0.12144739259E+03  0.38551873889E+03  0.00000000000E+00 0.  1.
<mgrwt>
<rscale>  0 0.81177413E+03</rscale>
<asrwt>0</asrwt>
<pdfrwt beam="1">  1        2 0.56473405E-01 0.81177413E+03</pdfrwt>
<pdfrwt beam="2">  1       -2 0.69046192E-01 0.81177413E+03</pdfrwt>
<totfact> 0.16902671E+02</totfact>
</mgrwt>
</event>
<event>
 6    1  0.2325157E-005  0.5945212E+03  0.7818608E-02  0.9916839E-01
          2   -1    0    0  501    0  0.00000000000E+00  0.00000000000E+00  0.15674427831E+04  0.15674427831E+04  0.00000000000E+00 0.  1.
         -2   -1    0    0    0  501 -0.00000000000E+00 -0.00000000000E+00 -0.56374531356E+02  0.56374531356E+02  0.00000000000E+00 0. -1.
         23    2    1    2    0    0 -0.16142961542E+03 -0.15230033287E+03  0.12844510552E+04  0.13066261010E+04  0.90566784648E+02 0.  0.
         13    1    3    3    0    0 -0.14329348441E+03 -0.14722315126E+03  0.96532505643E+03  0.98694485333E+03  0.00000000000E+00 0.  1.
        -13    1    3    3    0    0 -0.18136131010E+02 -0.50771816061E+01  0.31912599874E+03  0.31968124764E+03  0.00000000000E+00 0. -1.
         22    1    1    2    0    0  0.16142961542E+03  0.15230033287E+03  0.22661719655E+03  0.31719121346E+03  0.00000000000E+00 0. -1.
<mgrwt>
<rscale>  0 0.59452116E+03</rscale>
<asrwt>0</asrwt>
<pdfrwt beam="1">  1        2 0.24114501E+00 0.59452116E+03</pdfrwt>
<pdfrwt beam="2">  1       -2 0.86730060E-02 0.59452116E+03</pdfrwt>
<totfact> 0.10259681E+03</totfact>
</mgrwt>
</event>
<event>
 6    1  0.2325157E-005  0.1982813E+04  0.7818608E-02  0.8614698E-01
         -2   -1    0    0    0  501 -0.00000000000E+00  0.00000000000E+00  0.33964378473E+03  0.33964378473E+03  0.00000000000E+00 0. -1.
          2   -1    0    0  501    0  0.00000000000E+00 -0.00000000000E+00 -0.28938762386E+04  0.28938762386E+04  0.00000000000E+00 0.  1.
         23    2    1    2    0    0 -0.60041605008E+03 -0.15973270575E+02  0.24041847415E+01  0.60727832073E+03  0.89591295085E+02 0.  0.
         13    1    3    3    0    0 -0.49512501983E+03 -0.31376224867E+02 -0.27082329125E+02  0.49685682576E+03  0.00000000000E+00 0. -1.
        -13    1    3    3    0    0 -0.10529103025E+03  0.15402954292E+02  0.29486513866E+02  0.11042149497E+03  0.00000000000E+00 0.  1.
         22    1    1    2    0    0  0.60041605008E+03  0.15973270575E+02 -0.25566366386E+04  0.26262417026E+04  0.00000000000E+00 0.  1.
<mgrwt>
<rscale>  0 0.19828132E+04</rscale>
<asrwt>0</asrwt>
<pdfrwt beam="1">  1        2 0.44521173E+00 0.19828132E+04</pdfrwt>
<pdfrwt beam="2">  1       -2 0.52252889E-01 0.19828132E+04</pdfrwt>
<totfact> 0.65310264E+00</totfact>
</mgrwt>
</event>
<event>
 6    1  0.2325157E-005  0.3039431E+03  0.7818608E-02  0.1083286E+00
         -2   -1    0    0    0  501 -0.00000000000E+00  0.00000000000E+00  0.48030159316E+02  0.48030159316E+02  0.00000000000E+00 0. -1.
          2   -1    0    0  501    0  0.00000000000E+00 -0.00000000000E+00 -0.48085101956E+03  0.48085101956E+03  0.00000000000E+00 0.  1.
         23    2    1    2    0    0 -0.75425241785E+02 -0.35641503223E+02 -0.46513502676E+02  0.13366901008E+03  0.93512643399E+02 0.  0.
         11    1    3    3    0    0 -0.22224972195E+02 -0.61707348931E+02 -0.18564068684E+02  0.68164293786E+02  0.00000000000E+00 0. -1.
        -11    1    3    3    0    0 -0.53200269590E+02  0.26065845708E+02 -0.27949433993E+02  0.65504716299E+02  0.00000000000E+00 0.  1.
         22    1    1    2    0    0  0.75425241785E+02  0.35641503223E+02 -0.38630735757E+03  0.39521216879E+03  0.00000000000E+00 0.  1.
<mgrwt>
<rscale>  0 0.30394309E+03</rscale>
<asrwt>0</asrwt>
<pdfrwt beam="1">  1        2 0.73977076E-01 0.30394309E+03</pdfrwt>
<pdfrwt beam="2">  1       -2 0.73892557E-02 0.30394309E+03</pdfrwt>
<totfact> 0.69596166E+03</totfact>
</mgrwt>
</event>
<event>
 6    1  0.2325157E-005  0.1189383E+04  0.7818608E-02  0.9122201E-01
         -2   -1    0    0    0  501 -0.00000000000E+00  0.00000000000E+00  0.81428042948E+03  0.81428042948E+03  0.00000000000E+00 0. -1.
          2   -1    0    0  501    0  0.00000000000E+00 -0.00000000000E+00 -0.43431969129E+03  0.43431969129E+03  0.00000000000E+00 0.  1.
         23    2    1    2    0    0 -0.64685702575E+02 -0.11374186640E+03  0.79742475207E+03  0.81110994355E+03  0.69940353256E+02 0.  0.
         11    1    3    3    0    0 -0.90215389790E+01 -0.12389995032E+02  0.30124688136E+03  0.30163650918E+03  0.00000000000E+00 0. -1.
        -11    1    3    3    0    0 -0.55664163596E+02 -0.10135187137E+03  0.49617787071E+03  0.50947343436E+03  0.00000000000E+00 0.  1.
         22    1    1    2    0    0  0.64685702575E+02  0.11374186640E+03 -0.41746401388E+03  0.43749017723E+03  0.00000000000E+00 0.  1.
<mgrwt>
<rscale>  0 0.11893831E+04</rscale>
<asrwt>0</asrwt>
<pdfrwt beam="1">  1        2 0.66818414E-01 0.11893831E+04</pdfrwt>
<pdfrwt beam="2">  1       -2 0.12527391E+00 0.11893831E+04</pdfrwt>
<totfact> 0.34084688E+01</totfact>
</mgrwt>
</event>
<event>
 6    1  0.2325157E-005  0.3604780E+04  0.7818608E-02  0.8089398E-01
          2   -1    0    0  501    0  0.00000000000E+00  0.00000000000E+00  0.21695973340E+04  0.21695973340E+04  0.00000000000E+00 0.  1.
         -2   -1    0    0    0  501 -0.00000000000E+00 -0.00000000000E+00 -0.14973330709E+04  0.14973330709E+04  0.00000000000E+00 0. -1.
         23    2    1    2    0    0 -0.95926547307E+03 -0.97293281897E+03  0.15303531131E+04  0.20535163251E+04  0.90333431017E+02 0.  0.
         11    1    3    3    0    0 -0.47037318986E+03 -0.43877872708E+03  0.77433655120E+03  0.10066651894E+04  0.00000000000E+00 0. -1.
        -11    1    3    3    0    0 -0.48889228320E+03 -0.53415409189E+03  0.75601656190E+03  0.10468511357E+04  0.00000000000E+00 0.  1.
         22    1    1    2    0    0  0.95926547307E+03  0.97293281897E+03 -0.85808885003E+03  0.16134140797E+04  0.00000000000E+00 0. -1.
<mgrwt>
<rscale>  0 0.36047801E+04</rscale>
<asrwt>0</asrwt>
<pdfrwt beam="1">  1        2 0.33378421E+00 0.36047801E+04</pdfrwt>
<pdfrwt beam="2">  1       -2 0.23035893E+00 0.36047801E+04</pdfrwt>
<totfact> 0.37222725E-01</totfact>
</mgrwt>
</event>
<event>
 6    1  0.2325157E-005  0.2583435E+04  0.7818608E-02  0.8373850E-01
          2   -1    0    0  501    0  0.00000000000E+00  0.00000000000E+00  0.11278046078E+04  0.11278046078E+04  0.00000000000E+00 0.  1.
         -2   -1    0    0    0  501 -0.00000000000E+00 -0.00000000000E+00 -0.14794535059E+04  0.14794535059E+04  0.00000000000E+00 0. -1.
         23    2    1    2    0    0  0.91891950813E+03 -0.64783169788E+03  0.46256644258E+03  0.12190774367E+04  0.89906127079E+02 0.  0.
         11    1    3    3    0    0  0.22374051989E+03 -0.13475536880E+03  0.72285898641E+02  0.27100568408E+03  0.00000000000E+00 0. -1.
        -11    1    3    3    0    0  0.69517898824E+03 -0.51307632907E+03  0.39028054394E+03  0.94807175262E+03  0.00000000000E+00 0.  1.
         22    1    1    2    0    0 -0.91891950813E+03  0.64783169788E+03 -0.81421534067E+03  0.13881806771E+04  0.00000000000E+00 0. -1.
<mgrwt>
<rscale>  0 0.25834353E+04</rscale>
<asrwt>0</asrwt>
<pdfrwt beam="1">  1        2 0.17350840E+00 0.25834353E+04</pdfrwt>
<pdfrwt beam="2">  1       -2 0.22760823E+00 0.25834353E+04</pdfrwt>
<totfact> 0.16418030E+00</totfact>
</mgrwt>
</event>
<event>
 6    1  0.2325157E-005  0.3610849E+04  0.7818608E-02  0.8088011E-01
          2   -1    0    0  501    0  0.00000000000E+00  0.00000000000E+00  0.18837700852E+04  0.18837700852E+04  0.00000000000E+00 0.  1.
         -2   -1    0    0    0  501 -0.00000000000E+00 -0.00000000000E+00 -0.17303373501E+04  0.17303373501E+04  0.00000000000E+00 0. -1.
         23    2    1    2    0    0  0.17333418421E+04  0.35103112501E+03  0.43456686390E+03  0.18233720582E+04  0.90224780571E+02 0.  0.
         13    1    3    3    0    0  0.91639314428E+03  0.14830501184E+03  0.25505236852E+03  0.96271620019E+03  0.00000000000E+00 0. -1.
        -13    1    3    3    0    0  0.81694869786E+03  0.20272611317E+03  0.17951449538E+03  0.86065585802E+03  0.00000000000E+00 0.  1.
         22    1    1    2    0    0 -0.17333418421E+04 -0.35103112501E+03 -0.28113412880E+03  0.17907353771E+04  0.00000000000E+00 0. -1.
<mgrwt>
<rscale>  0 0.36108491E+04</rscale>
<asrwt>0</asrwt>
<pdfrwt beam="1">  1        2 0.28981078E+00 0.36108491E+04</pdfrwt>
<pdfrwt beam="2">  1       -2 0.26620575E+00 0.36108491E+04</pdfrwt>
<totfact> 0.32277033E-01</totfact>
</mgrwt>
</event>
<event>
 6    1  0.2325157E-005  0.2353629E+04  0.7818608E-02  0.8457071E-01
         -2   -1    0    0    0  501 -0.00000000000E+00  0.00000000000E+00  0.26237839758E+04  0.26237839758E+04  0.00000000000E+00 0. -1.
          2   -1    0    0  501    0  0.00000000000E+00 -0.00000000000E+00 -0.52782254064E+03  0.52782254064E+03  0.00000000000E+00 0.  1.
         23    2    1    2    0    0  0.10776224227E+04 -0.71112350234E+02  0.16695973707E+04  0.19905236737E+04  0.91115656698E+02 0.  0.
         13    1    3    3    0    0  0.60171178716E+03 -0.66987059287E+02  0.10006641790E+04  0.11695610887E+04  0.00000000000E+00 0. -1.
        -13    1    3    3    0    0  0.47591063559E+03 -0.41252909478E+01  0.66893319163E+03  0.82096258499E+03  0.00000000000E+00 0.  1.
         22    1    1    2    0    0 -0.10776224227E+04  0.71112350234E+02  0.42636406453E+03  0.11610828428E+04  0.00000000000E+00 0. -1.
<mgrwt>
<rscale>  0 0.23536290E+04</rscale>
<asrwt>0</asrwt>
<pdfrwt beam="1">  1        2 0.81203469E-01 0.23536290E+04</pdfrwt>
<pdfrwt beam="2">  1       -2 0.40365906E+00 0.23536290E+04</pdfrwt>
<totfact> 0.36674381E-01</totfact>
</mgrwt>
</event>
<event>
 6    1  0.2325157E-005  0.2460515E+04  0.7818608E-02  0.8417189E-01
          2   -1    0    0  501    0  0.00000000000E+00  0.00000000000E+00  0.16863362568E+04  0.16863362568E+04  0.00000000000E+00 0.  1.
         -2   -1    0    0    0  501 -0.00000000000E+00 -0.00000000000E+00 -0.89752806763E+03  0.89752806763E+03  0.00000000000E+00 0. -1.
         23    2    1    2    0    0  0.21409242773E+03  0.81410714169E+03  0.13346547914E+04  0.15805924176E+04  0.91449289791E+02 0.  0.
         13    1    3    3    0    0  0.79458200671E+02  0.43984628331E+03  0.76068036759E+03  0.88227715613E+03  0.00000000000E+00 0.  1.
        -13    1    3    3    0    0  0.13463422706E+03  0.37426085838E+03  0.57397442384E+03  0.69831526149E+03  0.00000000000E+00 0. -1.
         22    1    1    2    0    0 -0.21409242773E+03 -0.81410714169E+03 -0.54584660227E+03  0.10032719068E+04  0.00000000000E+00 0. -1.
<mgrwt>
<rscale>  0 0.24605155E+04</rscale>
<asrwt>0</asrwt>
<pdfrwt beam="1">  1        2 0.25943635E+00 0.24605155E+04</pdfrwt>
<pdfrwt beam="2">  1       -2 0.13808124E+00 0.24605155E+04</pdfrwt>
<totfact> 0.33248291E+00</totfact>
</mgrwt>
</event>
<event>
 6    1  0.2325157E-005  0.2174286E+04  0.7818608E-02  0.8529208E-01
         -2   -1    0    0    0  501 -0.00000000000E+00  0.00000000000E+00  0.78899039036E+03  0.78899039036E+03  0.00000000000E+00 0. -1.
          2   -1    0    0  501    0  0.00000000000E+00 -0.00000000000E+00 -0.14979647028E+04  0.14979647028E+04  0.00000000000E+00 0.  1.
         23    2    1    2    0    0  0.10141194903E+04  0.14417048627E+03  0.21592775844E+02  0.10288009928E+04  0.93497406637E+02 0.  0.
         11    1    3    3    0    0  0.48050972333E+03  0.11049028085E+03 -0.10572596434E+02  0.49316272788E+03  0.00000000000E+00 0.  1.
        -11    1    3    3    0    0  0.53360976701E+03  0.33680205423E+02  0.32165372278E+02  0.53563826493E+03  0.00000000000E+00 0. -1.
         22    1    1    2    0    0 -0.10141194903E+04 -0.14417048627E+03 -0.73056708833E+03  0.12581541004E+04  0.00000000000E+00 0.  1.
<mgrwt>
<rscale>  0 0.21742859E+04</rscale>
<asrwt>0</asrwt>
<pdfrwt beam="1">  1        2 0.23045611E+00 0.21742859E+04</pdfrwt>
<pdfrwt beam="2">  1       -2 0.12138314E+00 0.21742859E+04</pdfrwt>
<totfact> 0.60171905E+00</totfact>
</mgrwt>
</event>
<event>
 6    1  0.2325157E-005  0.1262211E+04  0.7818608E-02  0.9060081E-01
          2   -1    0    0  501    0  0.00000000000E+00  0.00000000000E+00  0.20510528612E+04  0.20510528612E+04  0.00000000000E+00 0.  1.
         -2   -1    0    0    0  501 -0.00000000000E+00 -0.00000000000E+00 -0.19419009538E+03  0.19419009538E+03  0.00000000000E+00 0. -1.
         23    2    1    2    0    0 -0.36199859320E+03 -0.34896232902E+03  0.26578620191E+03  0.57660808915E+03  0.94957331442E+02 0.  0.
         11    1    3    3    0    0 -0.11398924805E+03 -0.70903661967E+02  0.10666880130E+03  0.17146168996E+03  0.00000000000E+00 0. -1.
        -11    1    3    3    0    0 -0.24800934514E+03 -0.27805866705E+03  0.15911740061E+03  0.40514639919E+03  0.00000000000E+00 0.  1.
         22    1    1    2    0    0  0.36199859320E+03  0.34896232902E+03  0.15910765639E+04  0.16686348674E+04  0.00000000000E+00 0.  1.
<mgrwt>
<rscale>  0 0.12622110E+04</rscale>
<asrwt>0</asrwt>
<pdfrwt beam="1">  1        2 0.31554658E+00 0.12622110E+04</pdfrwt>
<pdfrwt beam="2">  1       -2 0.29875401E-01 0.12622110E+04</pdfrwt>
<totfact> 0.63634515E+01</totfact>
</mgrwt>
</event>
<event>
 6    1  0.2325157E-005  0.1886017E+04  0.7818608E-02  0.8661848E-01
          2   -1    0    0  501    0  0.00000000000E+00  0.00000000000E+00  0.75635963017E+03  0.75635963017E+03  0.00000000000E+00 0.  1.
         -2   -1    0    0    0  501 -0.00000000000E+00 -0.00000000000E+00 -0.11757171821E+04  0.11757171821E+04  0.00000000000E+00 0. -1.
         23    2    1    2    0    0 -0.54480326680E+02  0.89053511031E+03 -0.51758549683E+03  0.10344858041E+04  0.79026854222E+02 0.  0.
         11    1    3    3    0    0 -0.10449914086E+02  0.23678010995E+03 -0.98333514777E+02  0.25659988562E+03  0.00000000000E+00 0.  1.
        -11    1    3    3    0    0 -0.44030412594E+02  0.65375500036E+03 -0.41925198206E+03  0.77788591849E+03  0.00000000000E+00 0. -1.
         22    1    1    2    0    0  0.54480326680E+02 -0.89053511031E+03  0.98227944931E+02  0.89759100812E+03  0.00000000000E+00 0.  1.
<mgrwt>
<rscale>  0 0.18860170E+04</rscale>
<asrwt>0</asrwt>
<pdfrwt beam="1">  1        2 0.11636302E+00 0.18860170E+04</pdfrwt>
<pdfrwt beam="2">  1       -2 0.18087957E+00 0.18860170E+04</pdfrwt>
<totfact> 0.62145139E+00</totfact>
</mgrwt>
</event>
<event>
 6    1  0.2325157E-005  0.3523329E+04  0.7818608E-02  0.8108283E-01
         -2   -1    0    0    0  501 -0.00000000000E+00  0.00000000000E+00  0.10503617332E+04  0.10503617332E+04  0.00000000000E+00 0. -1.
          2   -1    0    0  501    0  0.00000000000E+00 -0.00000000000E+00 -0.29546598057E+04  0.29546598057E+04  0.00000000000E+00 0.  1.
         23    2    1    2    0    0  0.26271204704E+03 -0.10528462259E+04 -0.25284060974E+04  0.27532173921E+04  0.99326834331E+02 0.  0.
         11    1    3    3    0    0  0.77217845250E+02 -0.49978031687E+03 -0.12201345425E+04  0.13207843361E+04  0.00000000000E+00 0.  1.
        -11    1    3    3    0    0  0.18549420179E+03 -0.55306590901E+03 -0.13082715549E+04  0.14324330560E+04  0.00000000000E+00 0. -1.
         22    1    1    2    0    0 -0.26271204704E+03  0.10528462259E+04  0.62410802493E+03  0.12518041467E+04  0.00000000000E+00 0. -1.
<mgrwt>
<rscale>  0 0.35233289E+04</rscale>
<asrwt>0</asrwt>
<pdfrwt beam="1">  1        2 0.45456304E+00 0.35233289E+04</pdfrwt>
<pdfrwt beam="2">  1       -2 0.16159412E+00 0.35233289E+04</pdfrwt>
<totfact> 0.37345031E-01</totfact>
</mgrwt>
</event>
<event>
 6    1  0.2325157E-005  0.3844734E+03  0.7818608E-02  0.1049293E+00
         -2   -1    0    0    0  501 -0.00000000000E+00  0.00000000000E+00  0.38841252508E+03  0.38841252508E+03  0.00000000000E+00 0. -1.
          2   -1    0    0  501    0  0.00000000000E+00 -0.00000000000E+00 -0.95143533813E+02  0.95143533813E+02  0.00000000000E+00 0.  1.
         23    2    1    2    0    0  0.67439955720E+02  0.13535922097E+03  0.28615043603E+02  0.17874139661E+03  0.90881240165E+02 0.  0.
         13    1    3    3    0    0  0.42162824250E+02  0.37790835934E+01  0.40864414318E+01  0.42528628300E+02  0.00000000000E+00 0. -1.
        -13    1    3    3    0    0  0.25277131470E+02  0.13158013737E+03  0.24528602171E+02  0.13621276831E+03  0.00000000000E+00 0.  1.
         22    1    1    2    0    0 -0.67439955720E+02 -0.13535922097E+03  0.26465394767E+03  0.30481466229E+03  0.00000000000E+00 0. -1.
<mgrwt>
<rscale>  0 0.38447336E+03</rscale>
<asrwt>0</asrwt>
<pdfrwt beam="1">  1        2 0.14637467E-01 0.38447336E+03</pdfrwt>
<pdfrwt beam="2">  1       -2 0.59755772E-01 0.38447336E+03</pdfrwt>
<totfact> 0.10775084E+03</totfact>
</mgrwt>
</event>
<event>
 6    1  0.2325157E-005  0.3986966E+04  0.7818608E-02  0.8007181E-01
          2   -1    0    0  501    0  0.00000000000E+00  0.00000000000E+00  0.25215209113E+04  0.25215209113E+04  0.00000000000E+00 0.  1.
         -2   -1    0    0    0  501 -0.00000000000E+00 -0.00000000000E+00 -0.15760230364E+04  0.15760230364E+04  0.00000000000E+00 0. -1.
         23    2    1    2    0    0  0.15673796084E+04 -0.65376988089E+03  0.15438911162E+04  0.22969417248E+04  0.90816378124E+02 0.  0.
         11    1    3    3    0    0  0.10999703247E+04 -0.49966365833E+03  0.11192042080E+04  0.16468808536E+04  0.00000000000E+00 0.  1.
        -11    1    3    3    0    0  0.46740928370E+03 -0.15410622256E+03  0.42468690822E+03  0.65006087125E+03  0.00000000000E+00 0. -1.
         22    1    1    2    0    0 -0.15673796084E+04  0.65376988089E+03 -0.59839324120E+03  0.18006022229E+04  0.00000000000E+00 0. -1.
<mgrwt>
<rscale>  0 0.39869663E+04</rscale>
<asrwt>0</asrwt>
<pdfrwt beam="1">  1        2 0.38792629E+00 0.39869663E+04</pdfrwt>
<pdfrwt beam="2">  1       -2 0.24246508E+00 0.39869663E+04</pdfrwt>
<totfact> 0.19102891E-01</totfact>
</mgrwt>
</event>
<event>
 6    1  0.2325157E-005  0.1377022E+04  0.7818608E-02  0.8970621E-01
          2   -1    0    0  501    0  0.00000000000E+00  0.00000000000E+00  0.17202134402E+04  0.17202134402E+04  0.00000000000E+00 0. -1.
         -2   -1    0    0    0  501 -0.00000000000E+00 -0.00000000000E+00 -0.27557481814E+03  0.27557481814E+03  0.00000000000E+00 0.  1.
         23    2    1    2    0    0 -0.61085470552E+03 -0.21623654718E+03  0.40442146268E+03  0.77024615207E+03  0.99099443551E+02 0.  0.
         11    1    3    3    0    0 -0.31191845004E+03 -0.10636567955E+03  0.26362490377E+03  0.42202472339E+03  0.00000000000E+00 0. -1.
        -11    1    3    3    0    0 -0.29893625548E+03 -0.10987086763E+03  0.14079655891E+03  0.34822142868E+03  0.00000000000E+00 0.  1.
         22    1    1    2    0    0  0.61085470552E+03  0.21623654718E+03  0.10402171594E+04  0.12255421063E+04  0.00000000000E+00 0. -1.
<mgrwt>
<rscale>  0 0.13770222E+04</rscale>
<asrwt>0</asrwt>
<pdfrwt beam="1">  1        2 0.26464821E+00 0.13770222E+04</pdfrwt>
<pdfrwt beam="2">  1       -2 0.42396127E-01 0.13770222E+04</pdfrwt>
<totfact> 0.49125753E+01</totfact>
</mgrwt>
</event>
<event>
 6    1  0.2325157E-005  0.3533654E+04  0.7818608E-02  0.8105860E-01
          2   -1    0    0  501    0  0.00000000000E+00  0.00000000000E+00  0.16281863211E+04  0.16281863211E+04  0.00000000000E+00 0.  1.
         -2   -1    0    0    0  501 -0.00000000000E+00 -0.00000000000E+00 -0.19172730927E+04  0.19172730927E+04  0.00000000000E+00 0. -1.
         23    2    1    2    0    0 -0.40954366187E+03  0.12915627680E+03  0.15736345920E+04  0.16338793780E+04  0.93960831935E+02 0.  0.
         13    1    3    3    0    0 -0.39134992131E+03  0.11499305105E+03  0.13842387699E+04  0.14430852833E+04  0.00000000000E+00 0. -1.
        -13    1    3    3    0    0 -0.18193740557E+02  0.14163225758E+02  0.18939582206E+03  0.19079409470E+03  0.00000000000E+00 0.  1.
         22    1    1    2    0    0  0.40954366187E+03 -0.12915627680E+03 -0.18627213636E+04  0.19115800357E+04  0.00000000000E+00 0. -1.
<mgrwt>
<rscale>  0 0.35336541E+04</rscale>
<asrwt>0</asrwt>
<pdfrwt beam="1">  1        2 0.25049021E+00 0.35336541E+04</pdfrwt>
<pdfrwt beam="2">  1       -2 0.29496509E+00 0.35336541E+04</pdfrwt>
<totfact> 0.30067098E-01</totfact>
</mgrwt>
</event>
<event>
 6    1  0.2325157E-005  0.2753801E+04  0.7818608E-02  0.8317756E-01
          2   -1    0    0  501    0  0.00000000000E+00  0.00000000000E+00  0.30471368458E+04  0.30471368458E+04  0.00000000000E+00 0.  1.
         -2   -1    0    0    0  501 -0.00000000000E+00 -0.00000000000E+00 -0.62217598199E+03  0.62217598199E+03  0.00000000000E+00 0. -1.
         23    2    1    2    0    0 -0.41451085311E+03  0.11322398858E+04  0.33292699882E+03  0.12546923403E+04  0.98112567444E+02 0.  0.
         13    1    3    3    0    0 -0.37900002843E+03  0.10061901616E+04  0.32606669121E+03  0.11235564738E+04  0.00000000000E+00 0. -1.
        -13    1    3    3    0    0 -0.35510824680E+02  0.12604972424E+03  0.68603076029E+01  0.13113586646E+03  0.00000000000E+00 0.  1.
         22    1    1    2    0    0  0.41451085311E+03 -0.11322398858E+04  0.20920338650E+04  0.24146204875E+04  0.00000000000E+00 0.  1.
<mgrwt>
<rscale>  0 0.27538013E+04</rscale>
<asrwt>0</asrwt>
<pdfrwt beam="1">  1        2 0.46879028E+00 0.27538013E+04</pdfrwt>
<pdfrwt beam="2">  1       -2 0.95719384E-01 0.27538013E+04</pdfrwt>
<totfact> 0.13000763E+00</totfact>
</mgrwt>
</event>
<event>
 6    1  0.2325157E-005  0.1003297E+04  0.7818608E-02  0.9304936E-01
         -2   -1    0    0    0  501 -0.00000000000E+00  0.00000000000E+00  0.21386225672E+03  0.21386225672E+03  0.00000000000E+00 0. -1.
          2   -1    0    0  501    0  0.00000000000E+00 -0.00000000000E+00 -0.11766969005E+04  0.11766969005E+04  0.00000000000E+00 0.  1.
         23    2    1    2    0    0  0.36855154405E+01  0.33607224355E+03  0.23018938190E+02  0.34899042641E+03  0.91138961500E+02 0.  0.
         11    1    3    3    0    0  0.27101367906E+02  0.10723594749E+03  0.41688015291E+02  0.11820288996E+03  0.00000000000E+00 0. -1.
        -11    1    3    3    0    0 -0.23415852466E+02  0.22883629606E+03 -0.18669077101E+02  0.23078753645E+03  0.00000000000E+00 0.  1.
         22    1    1    2    0    0 -0.36855154405E+01 -0.33607224355E+03 -0.98585358198E+03  0.10415687308E+04  0.00000000000E+00 0.  1.
<mgrwt>
<rscale>  0 0.10032967E+04</rscale>
<asrwt>0</asrwt>
<pdfrwt beam="1">  1        2 0.18103029E+00 0.10032967E+04</pdfrwt>
<pdfrwt beam="2">  1       -2 0.32901886E-01 0.10032967E+04</pdfrwt>
<totfact> 0.16805961E+02</totfact>
</mgrwt>
</event>
<event>
 6    1  0.2325157E-005  0.1572730E+04  0.7818608E-02  0.8837478E-01
          2   -1    0    0  501    0  0.00000000000E+00  0.00000000000E+00  0.22232514724E+04  0.22232514724E+04  0.00000000000E+00 0. -1.
         -2   -1    0    0    0  501 -0.00000000000E+00 -0.00000000000E+00 -0.27813760412E+03  0.27813760412E+03  0.00000000000E+00 0.  1.
         23    2    1    2    0    0  0.62311699071E+03  0.82985001473E+02  0.17201594123E+04  0.18337321273E+04  0.91999001805E+02 0.  0.
         13    1    3    3    0    0  0.11359700750E+03  0.50665072193E+02  0.36304679833E+03  0.38376321793E+03  0.00000000000E+00 0.  1.
        -13    1    3    3    0    0  0.50951998321E+03  0.32319929279E+02  0.13571126140E+04  0.14499689094E+04  0.00000000000E+00 0. -1.
         22    1    1    2    0    0 -0.62311699071E+03 -0.82985001473E+02  0.22495445595E+03  0.66765694921E+03  0.00000000000E+00 0.  1.
<mgrwt>
<rscale>  0 0.15727299E+04</rscale>
<asrwt>0</asrwt>
<pdfrwt beam="1">  1        2 0.34203868E+00 0.15727299E+04</pdfrwt>
<pdfrwt beam="2">  1       -2 0.42790402E-01 0.15727299E+04</pdfrwt>
<totfact> 0.24951571E+01</totfact>
</mgrwt>
</event>
<event>
 6    1  0.2325157E-005  0.2208364E+04  0.7818608E-02  0.8514955E-01
         -2   -1    0    0    0  501 -0.00000000000E+00  0.00000000000E+00  0.11348175793E+04  0.11348175793E+04  0.00000000000E+00 0. -1.
          2   -1    0    0  501    0  0.00000000000E+00 -0.00000000000E+00 -0.10743731047E+04  0.10743731047E+04  0.00000000000E+00 0.  1.
         23    2    1    2    0    0  0.78881737666E+03  0.19778282248E+03  0.77468916533E+03  0.11268338220E+04  0.90885977608E+02 0.  0.
         11    1    3    3    0    0  0.33617196546E+03  0.13026780354E+03  0.35078324985E+03  0.50302105262E+03  0.00000000000E+00 0.  1.
        -11    1    3    3    0    0  0.45264541120E+03  0.67515018947E+02  0.42390591548E+03  0.62381276938E+03  0.00000000000E+00 0. -1.
         22    1    1    2    0    0 -0.78881737666E+03 -0.19778282248E+03 -0.71424469072E+03  0.10823568620E+04  0.00000000000E+00 0.  1.
<mgrwt>
<rscale>  0 0.22083636E+04</rscale>
<asrwt>0</asrwt>
<pdfrwt beam="1">  1        2 0.16528817E+00 0.22083636E+04</pdfrwt>
<pdfrwt beam="2">  1       -2 0.17458732E+00 0.22083636E+04</pdfrwt>
<totfact> 0.40825591E+00</totfact>
</mgrwt>
</event>
<event>
 6    1  0.2325157E-005  0.4521878E+04  0.7818608E-02  0.7906818E-01
         -2   -1    0    0    0  501 -0.00000000000E+00  0.00000000000E+00  0.19630407409E+04  0.19630407409E+04  0.00000000000E+00 0. -1.
          2   -1    0    0  501    0  0.00000000000E+00 -0.00000000000E+00 -0.26040445638E+04  0.26040445638E+04  0.00000000000E+00 0.  1.
         23    2    1    2    0    0 -0.80723519373E+03 -0.13658781146E+04  0.13048473875E+04  0.20563904577E+04  0.94145248496E+02 0.  0.
         13    1    3    3    0    0 -0.57104185197E+03 -0.88754900017E+03  0.89160659431E+03  0.13815912360E+04  0.00000000000E+00 0.  1.
        -13    1    3    3    0    0 -0.23619334176E+03 -0.47832911444E+03  0.41324079318E+03  0.67479922167E+03  0.00000000000E+00 0. -1.
         22    1    1    2    0    0  0.80723519373E+03  0.13658781146E+04 -0.19458512104E+04  0.25106948471E+04  0.00000000000E+00 0.  1.
<mgrwt>
<rscale>  0 0.45218782E+04</rscale>
<asrwt>0</asrwt>
<pdfrwt beam="1">  1        2 0.40062224E+00 0.45218782E+04</pdfrwt>
<pdfrwt beam="2">  1       -2 0.30200627E+00 0.45218782E+04</pdfrwt>
<totfact> 0.70728218E-02</totfact>
</mgrwt>
</event>
<event>
 6    1  0.2325157E-005  0.8631945E+03  0.7818608E-02  0.9472797E-01
          2   -1    0    0  501    0  0.00000000000E+00  0.00000000000E+00  0.12962660279E+04  0.12962660279E+04  0.00000000000E+00 0.  1.
         -2   -1    0    0    0  501 -0.00000000000E+00 -0.00000000000E+00 -0.14370214173E+03  0.14370214173E+03  0.00000000000E+00 0. -1.
         23    2    1    2    0    0  0.97050876716E+02  0.40562472681E+03  0.42929936591E+03  0.60506586519E+03  0.88636696574E+02 0.  0.
         13    1    3    3    0    0  0.19888059839E+02  0.15305343544E+03  0.10423052495E+03  0.18623880196E+03  0.00000000000E+00 0. -1.
        -13    1    3    3    0    0  0.77162816877E+02  0.25257129137E+03  0.32506884096E+03  0.41882706323E+03  0.00000000000E+00 0.  1.
         22    1    1    2    0    0 -0.97050876716E+02 -0.40562472681E+03  0.72326452022E+03  0.83490230440E+03  0.00000000000E+00 0.  1.
<mgrwt>
<rscale>  0 0.86319454E+03</rscale>
<asrwt>0</asrwt>
<pdfrwt beam="1">  1        2 0.19942553E+00 0.86319454E+03</pdfrwt>
<pdfrwt beam="2">  1       -2 0.22108023E-01 0.86319454E+03</pdfrwt>
<totfact> 0.29820868E+02</totfact>
</mgrwt>
</event>
<event>
 6    1  0.2325157E-005  0.1923146E+04  0.7818608E-02  0.8643420E-01
         -2   -1    0    0    0  501 -0.00000000000E+00  0.00000000000E+00  0.81710206934E+03  0.81710206934E+03  0.00000000000E+00 0. -1.
          2   -1    0    0  501    0  0.00000000000E+00 -0.00000000000E+00 -0.11315870993E+04  0.11315870993E+04  0.00000000000E+00 0.  1.
         23    2    1    2    0    0 -0.86271871966E+03 -0.91309894565E+02 -0.57284182302E+03  0.10434989574E+04  0.90117888120E+02 0.  0.
         11    1    3    3    0    0 -0.52529585419E+03 -0.91155239577E+02 -0.38170218616E+03  0.65569929926E+03  0.00000000000E+00 0. -1.
        -11    1    3    3    0    0 -0.33742286547E+03 -0.15465498804E+00 -0.19113963686E+03  0.38779965812E+03  0.00000000000E+00 0.  1.
         22    1    1    2    0    0  0.86271871966E+03  0.91309894565E+02  0.25835679303E+03  0.90519021128E+03  0.00000000000E+00 0. -1.
<mgrwt>
<rscale>  0 0.19231455E+04</rscale>
<asrwt>0</asrwt>
<pdfrwt beam="1">  1        2 0.17409032E+00 0.19231455E+04</pdfrwt>
<pdfrwt beam="2">  1       -2 0.12570801E+00 0.19231455E+04</pdfrwt>
<totfact> 0.92078273E+00</totfact>
</mgrwt>
</event>
<event>
 6    1  0.2325157E-005  0.1993981E+04  0.7818608E-02  0.8609440E-01
          2   -1    0    0  501    0  0.00000000000E+00  0.00000000000E+00  0.11398520265E+04  0.11398520265E+04  0.00000000000E+00 0.  1.
         -2   -1    0    0    0  501 -0.00000000000E+00 -0.00000000000E+00 -0.87203420236E+03  0.87203420236E+03  0.00000000000E+00 0. -1.
         23    2    1    2    0    0 -0.66967501936E+02 -0.39678626027E+03  0.10522459847E+04  0.11302675348E+04  0.91428142628E+02 0.  0.
         11    1    3    3    0    0 -0.36109603539E+02 -0.19130033864E+03  0.63454076461E+03  0.66373315797E+03  0.00000000000E+00 0.  1.
        -11    1    3    3    0    0 -0.30857898398E+02 -0.20548592163E+03  0.41770522004E+03  0.46653437679E+03  0.00000000000E+00 0. -1.
         22    1    1    2    0    0  0.66967501936E+02  0.39678626027E+03 -0.78442816055E+03  0.88161869406E+03  0.00000000000E+00 0. -1.
<mgrwt>
<rscale>  0 0.19939809E+04</rscale>
<asrwt>0</asrwt>
<pdfrwt beam="1">  1        2 0.17536185E+00 0.19939809E+04</pdfrwt>
<pdfrwt beam="2">  1       -2 0.13415911E+00 0.19939809E+04</pdfrwt>
<totfact> 0.76739012E+00</totfact>
</mgrwt>
</event>
<event>
 6    1  0.2325157E-005  0.7554534E+03  0.7818608E-02  0.9626833E-01
          4   -1    0    0  501    0  0.00000000000E+00  0.00000000000E+00  0.39838821526E+03  0.39838821526E+03  0.00000000000E+00 0.  1.
         -4   -1    0    0    0  501 -0.00000000000E+00 -0.00000000000E+00 -0.35813678919E+03  0.35813678919E+03  0.00000000000E+00 0. -1.
         23    2    1    2    0    0 -0.22944299226E+03  0.27997310851E+03 -0.65718396005E+02  0.37935311873E+03  0.92524877361E+02 0.  0.
         13    1    3    3    0    0 -0.11753697860E+03  0.20807979371E+03 -0.25187749766E+02  0.24030514898E+03  0.00000000000E+00 0.  1.
        -13    1    3    3    0    0 -0.11190601367E+03  0.71893314798E+02 -0.40530646238E+02  0.13904796975E+03  0.00000000000E+00 0. -1.
         22    1    1    2    0    0  0.22944299226E+03 -0.27997310851E+03  0.10596982208E+03  0.37717188572E+03  0.00000000000E+00 0.  1.
<mgrwt>
<rscale>  0 0.75545344E+03</rscale>
<asrwt>0</asrwt>
<pdfrwt beam="1">  1        4 0.61290495E-01 0.75545344E+03</pdfrwt>
<pdfrwt beam="2">  1       -4 0.55097967E-01 0.75545344E+03</pdfrwt>
<totfact> 0.15652019E+01</totfact>
</mgrwt>
</event>
<event>
 6    1  0.2325157E-005  0.1267453E+04  0.7818608E-02  0.9055781E-01
          2   -1    0    0  501    0  0.00000000000E+00  0.00000000000E+00  0.22648579961E+03  0.22648579961E+03  0.00000000000E+00 0. -1.
         -2   -1    0    0    0  501 -0.00000000000E+00 -0.00000000000E+00 -0.17732203153E+04  0.17732203153E+04  0.00000000000E+00 0.  1.
         23    2    1    2    0    0 -0.25773590869E+03 -0.28621726374E+02 -0.16835434408E+04  0.17065104740E+04  0.10301688795E+03 0.  0.
         13    1    3    3    0    0 -0.26604050664E+03 -0.19814991067E+02 -0.16211062871E+04  0.16429107642E+04  0.00000000000E+00 0. -1.
        -13    1    3    3    0    0  0.83045979432E+01 -0.88067353071E+01 -0.62437153711E+02  0.63599709883E+02  0.00000000000E+00 0.  1.
         22    1    1    2    0    0  0.25773590869E+03  0.28621726374E+02  0.13680892508E+03  0.29319564088E+03  0.00000000000E+00 0. -1.
<mgrwt>
<rscale>  0 0.12674529E+04</rscale>
<asrwt>0</asrwt>
<pdfrwt beam="1">  1        2 0.34843971E-01 0.12674529E+04</pdfrwt>
<pdfrwt beam="2">  1       -2 0.27280311E+00 0.12674529E+04</pdfrwt>
<totfact> 0.69112632E+00</totfact>
</mgrwt>
</event>
<event>
 6    1  0.2325157E-005  0.3054247E+04  0.7818608E-02  0.8228408E-01
         -1   -1    0    0    0  501 -0.00000000000E+00  0.00000000000E+00  0.21008402283E+04  0.21008402283E+04  0.00000000000E+00 0. -1.
          1   -1    0    0  501    0  0.00000000000E+00 -0.00000000000E+00 -0.11100826026E+04  0.11100826026E+04  0.00000000000E+00 0.  1.
         23    2    1    2    0    0 -0.91377743713E+03  0.22728404173E+03 -0.76636376310E+03  0.12174026240E+04  0.90047160906E+02 0.  0.
         11    1    3    3    0    0 -0.47025172048E+03  0.15949886004E+03 -0.37960864115E+03  0.62504342841E+03  0.00000000000E+00 0.  1.
        -11    1    3    3    0    0 -0.44352571665E+03  0.67785181687E+02 -0.38675512195E+03  0.59235919554E+03  0.00000000000E+00 0. -1.
         22    1    1    2    0    0  0.91377743713E+03 -0.22728404173E+03  0.17571213889E+04  0.19935202069E+04  0.00000000000E+00 0. -1.
<mgrwt>
<rscale>  0 0.30542470E+04</rscale>
<asrwt>0</asrwt>
<pdfrwt beam="1">  1        1 0.17078194E+00 0.30542470E+04</pdfrwt>
<pdfrwt beam="2">  1       -1 0.32320619E+00 0.30542470E+04</pdfrwt>
<totfact> 0.24610576E-01</totfact>
</mgrwt>
</event>
<event>
 6    1  0.2325157E-005  0.4416476E+04  0.7818608E-02  0.7925425E-01
          2   -1    0    0  501    0  0.00000000000E+00  0.00000000000E+00  0.29156905936E+04  0.29156905936E+04  0.00000000000E+00 0.  1.
         -2   -1    0    0    0  501 -0.00000000000E+00 -0.00000000000E+00 -0.16724394969E+04  0.16724394969E+04  0.00000000000E+00 0. -1.
         23    2    1    2    0    0 -0.36433376445E+03  0.36874450172E+03 -0.16070598217E+04  0.16910653809E+04  0.91374244676E+02 0.  0.
         13    1    3    3    0    0 -0.12184560830E+03  0.95491895338E+02 -0.60480366393E+03  0.62430163082E+03  0.00000000000E+00 0. -1.
        -13    1    3    3    0    0 -0.24248815614E+03  0.27325260638E+03 -0.10022561578E+04  0.10667637501E+04  0.00000000000E+00 0.  1.
         22    1    1    2    0    0  0.36433376445E+03 -0.36874450172E+03  0.28503109185E+04  0.28970647096E+04  0.00000000000E+00 0.  1.
<mgrwt>
<rscale>  0 0.44164765E+04</rscale>
<asrwt>0</asrwt>
<pdfrwt beam="1">  1        2 0.44856778E+00 0.44164765E+04</pdfrwt>
<pdfrwt beam="2">  1       -2 0.25729838E+00 0.44164765E+04</pdfrwt>
<totfact> 0.86835647E-02</totfact>
</mgrwt>
</event>
<event>
 6    1  0.2325157E-005  0.5211506E+04  0.7818608E-02  0.7796684E-01
         -2   -1    0    0    0  501 -0.00000000000E+00  0.00000000000E+00  0.27749332275E+04  0.27749332275E+04  0.00000000000E+00 0. -1.
          2   -1    0    0  501    0  0.00000000000E+00 -0.00000000000E+00 -0.24468870007E+04  0.24468870007E+04  0.00000000000E+00 0.  1.
         23    2    1    2    0    0  0.87727234621E+03  0.24507496259E+04  0.25823468598E+03  0.26178513057E+04  0.10334315470E+03 0.  0.
         13    1    3    3    0    0  0.70243720223E+03  0.19479095309E+04  0.24692223954E+03  0.20853633151E+04  0.00000000000E+00 0. -1.
        -13    1    3    3    0    0  0.17483514398E+03  0.50284009499E+03  0.11312446435E+02  0.53248799061E+03  0.00000000000E+00 0.  1.
         22    1    1    2    0    0 -0.87727234621E+03 -0.24507496259E+04  0.69811540848E+02  0.26039689225E+04  0.00000000000E+00 0. -1.
<mgrwt>
<rscale>  0 0.52115057E+04</rscale>
<asrwt>0</asrwt>
<pdfrwt beam="1">  1        2 0.37644415E+00 0.52115057E+04</pdfrwt>
<pdfrwt beam="2">  1       -2 0.42691280E+00 0.52115057E+04</pdfrwt>
<totfact> 0.13226649E-02</totfact>
</mgrwt>
</event>
<event>
 6    1  0.2325157E-005  0.2731894E+04  0.7818608E-02  0.8324730E-01
         -2   -1    0    0    0  501 -0.00000000000E+00  0.00000000000E+00  0.11512631329E+04  0.11512631329E+04  0.00000000000E+00 0. -1.
          2   -1    0    0  501    0  0.00000000000E+00 -0.00000000000E+00 -0.16206641585E+04  0.16206641585E+04  0.00000000000E+00 0.  1.
         23    2    1    2    0    0 -0.41988797378E+03 -0.12018363412E+04 -0.73298959905E+03  0.14718521253E+04  0.91424422596E+02 0.  0.
         11    1    3    3    0    0 -0.36876943072E+03 -0.11124424737E+04 -0.65426761478E+03  0.13422314487E+04  0.00000000000E+00 0.  1.
        -11    1    3    3    0    0 -0.51118543052E+02 -0.89393867510E+02 -0.78721984273E+02  0.12962067659E+03  0.00000000000E+00 0. -1.
         22    1    1    2    0    0  0.41988797378E+03  0.12018363412E+04  0.26358857338E+03  0.13000751661E+04  0.00000000000E+00 0. -1.
<mgrwt>
<rscale>  0 0.27318938E+04</rscale>
<asrwt>0</asrwt>
<pdfrwt beam="1">  1        2 0.24933295E+00 0.27318938E+04</pdfrwt>
<pdfrwt beam="2">  1       -2 0.17711741E+00 0.27318938E+04</pdfrwt>
<totfact> 0.18045098E+00</totfact>
</mgrwt>
</event>
<event>
 6    1  0.2325157E-005  0.3779637E+04  0.7818608E-02  0.8050539E-01
          2   -1    0    0  501    0  0.00000000000E+00  0.00000000000E+00  0.23297657120E+04  0.23297657120E+04  0.00000000000E+00 0.  1.
         -2   -1    0    0    0  501 -0.00000000000E+00 -0.00000000000E+00 -0.15329498488E+04  0.15329498488E+04  0.00000000000E+00 0. -1.
         23    2    1    2    0    0  0.93535748430E+03 -0.66811197561E+03 -0.11328074112E+04  0.16166716572E+04  0.95432599607E+02 0.  0.
         13    1    3    3    0    0  0.27605247146E+03 -0.25159427167E+03 -0.37476772033E+03  0.52910820135E+03  0.00000000000E+00 0.  1.
        -13    1    3    3    0    0  0.65930501284E+03 -0.41651770394E+03 -0.75803969085E+03  0.10875634559E+04  0.00000000000E+00 0. -1.
         22    1    1    2    0    0 -0.93535748430E+03  0.66811197561E+03  0.19296232744E+04  0.22460439036E+04  0.00000000000E+00 0.  1.
<mgrwt>
<rscale>  0 0.37796370E+04</rscale>
<asrwt>0</asrwt>
<pdfrwt beam="1">  1        2 0.35842550E+00 0.37796370E+04</pdfrwt>
<pdfrwt beam="2">  1       -2 0.23583844E+00 0.37796370E+04</pdfrwt>
<totfact> 0.27532614E-01</totfact>
</mgrwt>
</event>
<event>
 6    1  0.2325157E-005  0.4065628E+03  0.7818608E-02  0.1041531E+00
          2   -1    0    0  501    0  0.00000000000E+00  0.00000000000E+00  0.20347065347E+03  0.20347065347E+03  0.00000000000E+00 0.  1.
         -2   -1    0    0    0  501 -0.00000000000E+00 -0.00000000000E+00 -0.20309232737E+03  0.20309232737E+03  0.00000000000E+00 0. -1.
         23    2    1    2    0    0  0.17999948672E+03 -0.56336305702E+02 -0.35435612248E+02  0.21458320915E+03  0.96003523225E+02 0.  0.
         11    1    3    3    0    0  0.71160418177E+01  0.68402010879E+01 -0.28749514288E+02  0.30396726368E+02  0.00000000000E+00 0. -1.
        -11    1    3    3    0    0  0.17288344491E+03 -0.63176506790E+02 -0.66860979596E+01  0.18418648278E+03  0.00000000000E+00 0.  1.
         22    1    1    2    0    0 -0.17999948672E+03  0.56336305702E+02  0.35813938346E+02  0.19197977170E+03  0.00000000000E+00 0.  1.
<mgrwt>
<rscale>  0 0.40656280E+03</rscale>
<asrwt>0</asrwt>
<pdfrwt beam="1">  1        2 0.31303177E-01 0.40656280E+03</pdfrwt>
<pdfrwt beam="2">  1       -2 0.31244974E-01 0.40656280E+03</pdfrwt>
<totfact> 0.15988679E+03</totfact>
</mgrwt>
</event>
<event>
 6    1  0.2325157E-005  0.2351150E+04  0.7818608E-02  0.8458022E-01
         -2   -1    0    0    0  501 -0.00000000000E+00  0.00000000000E+00  0.74870279413E+03  0.74870279413E+03  0.00000000000E+00 0. -1.
          2   -1    0    0  501    0  0.00000000000E+00 -0.00000000000E+00 -0.18458272505E+04  0.18458272505E+04  0.00000000000E+00 0.  1.
         23    2    1    2    0    0 -0.60260968898E+03 -0.95984377373E+03 -0.88643207274E+03  0.14417812482E+04  0.92373376742E+02 0.  0.
         13    1    3    3    0    0 -0.50173764861E+03 -0.85666828347E+03 -0.77175096832E+03  0.12574660127E+04  0.00000000000E+00 0. -1.
        -13    1    3    3    0    0 -0.10087204036E+03 -0.10317549026E+03 -0.11468110442E+03  0.18431523548E+03  0.00000000000E+00 0.  1.
         22    1    1    2    0    0  0.60260968898E+03  0.95984377373E+03 -0.21069238361E+03  0.11527487965E+04  0.00000000000E+00 0.  1.
<mgrwt>
<rscale>  0 0.23511495E+04</rscale>
<asrwt>0</asrwt>
<pdfrwt beam="1">  1        2 0.28397342E+00 0.23511495E+04</pdfrwt>
<pdfrwt beam="2">  1       -2 0.11518505E+00 0.23511495E+04</pdfrwt>
<totfact> 0.43154417E+00</totfact>
</mgrwt>
</event>
<event>
 6    1  0.2325157E-005  0.1671101E+04  0.7818608E-02  0.8778020E-01
          2   -1    0    0  501    0  0.00000000000E+00  0.00000000000E+00  0.95350040174E+03  0.95350040174E+03  0.00000000000E+00 0.  1.
         -2   -1    0    0    0  501 -0.00000000000E+00 -0.00000000000E+00 -0.73219143474E+03  0.73219143474E+03  0.00000000000E+00 0. -1.
         23    2    1    2    0    0 -0.14541337052E+03 -0.18924250415E+03  0.91613521448E+03  0.95102096604E+03  0.90439885686E+02 0.  0.
         13    1    3    3    0    0 -0.84941456667E+02 -0.11586127359E+03  0.37464477073E+03  0.40124504983E+03  0.00000000000E+00 0. -1.
        -13    1    3    3    0    0 -0.60471913853E+02 -0.73381230556E+02  0.54149044375E+03  0.54977591620E+03  0.00000000000E+00 0.  1.
         22    1    1    2    0    0  0.14541337052E+03  0.18924250415E+03 -0.69482624748E+03  0.73467087045E+03  0.00000000000E+00 0. -1.
<mgrwt>
<rscale>  0 0.16711012E+04</rscale>
<asrwt>0</asrwt>
<pdfrwt beam="1">  1        2 0.14669237E+00 0.16711012E+04</pdfrwt>
<pdfrwt beam="2">  1       -2 0.11264484E+00 0.16711012E+04</pdfrwt>
<totfact> 0.15974527E+01</totfact>
</mgrwt>
</event>
<event>
 6    1  0.2325157E-005  0.2303311E+04  0.7818608E-02  0.8476617E-01
          2   -1    0    0  501    0  0.00000000000E+00  0.00000000000E+00  0.28292089898E+04  0.28292089898E+04  0.00000000000E+00 0.  1.
         -2   -1    0    0    0  501 -0.00000000000E+00 -0.00000000000E+00 -0.46879191301E+03  0.46879191301E+03  0.00000000000E+00 0. -1.
         23    2    1    2    0    0  0.71768462173E+03 -0.36419825901E+03  0.23586708127E+04  0.24931936976E+04  0.70535262278E+02 0.  0.
         13    1    3    3    0    0  0.37560114317E+03 -0.18206572512E+03  0.13289516766E+04  0.13929596928E+04  0.00000000000E+00 0.  1.
        -13    1    3    3    0    0  0.34208347856E+03 -0.18213253389E+03  0.10297191361E+04  0.11002340048E+04  0.00000000000E+00 0. -1.
         22    1    1    2    0    0 -0.71768462173E+03  0.36419825901E+03  0.17462641519E+01  0.80480720522E+03  0.00000000000E+00 0. -1.
<mgrwt>
<rscale>  0 0.23033109E+04</rscale>
<asrwt>0</asrwt>
<pdfrwt beam="1">  1        2 0.43526291E+00 0.23033109E+04</pdfrwt>
<pdfrwt beam="2">  1       -2 0.72121834E-01 0.23033109E+04</pdfrwt>
<totfact> 0.35045245E+00</totfact>
</mgrwt>
</event>
<event>
 6    1  0.2325157E-005  0.5601953E+03  0.7818608E-02  0.9991613E-01
         -2   -1    0    0    0  501 -0.00000000000E+00  0.00000000000E+00  0.51754268319E+02  0.51754268319E+02  0.00000000000E+00 0. -1.
          2   -1    0    0  501    0  0.00000000000E+00 -0.00000000000E+00 -0.15159075566E+04  0.15159075566E+04  0.00000000000E+00 0.  1.
         23    2    1    2    0    0 -0.13674263717E+03  0.19714340199E+03 -0.11144395352E+04  0.11435583247E+04  0.90477039586E+02 0.  0.
         13    1    3    3    0    0 -0.84354111697E+02  0.15601460119E+03 -0.62744248305E+03  0.65202779195E+03  0.00000000000E+00 0.  1.
        -13    1    3    3    0    0 -0.52388525475E+02  0.41128800804E+02 -0.48699705215E+03  0.49153053279E+03  0.00000000000E+00 0. -1.
         22    1    1    2    0    0  0.13674263717E+03 -0.19714340199E+03 -0.34971375307E+03  0.42410350017E+03  0.00000000000E+00 0. -1.
<mgrwt>
<rscale>  0 0.56019527E+03</rscale>
<asrwt>0</asrwt>
<pdfrwt beam="1">  1        2 0.23321654E+00 0.56019527E+03</pdfrwt>
<pdfrwt beam="2">  1       -2 0.79621954E-02 0.56019527E+03</pdfrwt>
<totfact> 0.12572820E+03</totfact>
</mgrwt>
</event>
<event>
 6    1  0.2325157E-005  0.9199371E+03  0.7818608E-02  0.9400997E-01
          2   -1    0    0  501    0  0.00000000000E+00  0.00000000000E+00  0.79492906074E+03  0.79492906074E+03  0.00000000000E+00 0.  1.
         -2   -1    0    0    0  501 -0.00000000000E+00 -0.00000000000E+00 -0.26615090602E+03  0.26615090602E+03  0.00000000000E+00 0. -1.
         23    2    1    2    0    0 -0.43791704011E+02  0.35372128461E+03  0.59388683069E+03  0.69876021818E+03  0.92346165658E+02 0.  0.
         13    1    3    3    0    0  0.31636220501E+01  0.24937883199E+03  0.35457333106E+03  0.43349977791E+03  0.00000000000E+00 0. -1.
        -13    1    3    3    0    0 -0.46955326061E+02  0.10434245262E+03  0.23931349964E+03  0.26526044027E+03  0.00000000000E+00 0.  1.
         22    1    1    2    0    0  0.43791704011E+02 -0.35372128461E+03 -0.65108675981E+02  0.36231974858E+03  0.00000000000E+00 0. -1.
<mgrwt>
<rscale>  0 0.91993715E+03</rscale>
<asrwt>0</asrwt>
<pdfrwt beam="1">  1        2 0.12229678E+00 0.91993715E+03</pdfrwt>
<pdfrwt beam="2">  1       -2 0.40946294E-01 0.91993715E+03</pdfrwt>
<totfact> 0.19652709E+02</totfact>
</mgrwt>
</event>
<event>
 6    1  0.2325157E-005  0.6497704E+04  0.7818608E-02  0.7631579E-01
         -2   -1    0    0    0  501 -0.00000000000E+00  0.00000000000E+00  0.52791026144E+04  0.52791026144E+04  0.00000000000E+00 0. -1.
          2   -1    0    0  501    0  0.00000000000E+00 -0.00000000000E+00 -0.19994002484E+04  0.19994002484E+04  0.00000000000E+00 0.  1.
         23    2    1    2    0    0  0.10710297151E+04  0.27761320538E+04  0.30993081194E+04  0.42974701700E+04  0.92332074059E+02 0.  0.
         13    1    3    3    0    0  0.77208188670E+03  0.21037798937E+04  0.23547143111E+04  0.32506429776E+04  0.00000000000E+00 0.  1.
        -13    1    3    3    0    0  0.29894782842E+03  0.67235216009E+03  0.74459380834E+03  0.10468271924E+04  0.00000000000E+00 0. -1.
         22    1    1    2    0    0 -0.10710297151E+04 -0.27761320538E+04  0.18039424658E+03  0.29810326927E+04  0.00000000000E+00 0.  1.
<mgrwt>
<rscale>  0 0.64977039E+04</rscale>
<asrwt>0</asrwt>
<pdfrwt beam="1">  1        2 0.30760004E+00 0.64977039E+04</pdfrwt>
<pdfrwt beam="2">  1       -2 0.81216963E+00 0.64977039E+04</pdfrwt>
<totfact> 0.28282716E-04</totfact>
</mgrwt>
</event>
<event>
 6    1  0.2325157E-005  0.4384765E+04  0.7818608E-02  0.7931128E-01
         -1   -1    0    0    0  501 -0.00000000000E+00  0.00000000000E+00  0.14953766849E+04  0.14953766849E+04  0.00000000000E+00 0. -1.
          1   -1    0    0  501    0  0.00000000000E+00 -0.00000000000E+00 -0.32142671132E+04  0.32142671132E+04  0.00000000000E+00 0.  1.
         23    2    1    2    0    0  0.19952240246E+04  0.89417637309E+02 -0.18285721510E+04  0.27094076865E+04  0.91101470841E+02 0.  0.
         13    1    3    3    0    0  0.20694028829E+03 -0.43867713100E+01 -0.22340577618E+03  0.30455486781E+03  0.00000000000E+00 0.  1.
        -13    1    3    3    0    0  0.17882837363E+04  0.93804408619E+02 -0.16051663749E+04  0.24048528187E+04  0.00000000000E+00 0. -1.
         22    1    1    2    0    0 -0.19952240246E+04 -0.89417637309E+02  0.10968172267E+03  0.20002361116E+04  0.00000000000E+00 0. -1.
<mgrwt>
<rscale>  0 0.43847646E+04</rscale>
<asrwt>0</asrwt>
<pdfrwt beam="1">  1        1 0.49450263E+00 0.43847646E+04</pdfrwt>
<pdfrwt beam="2">  1       -1 0.23005795E+00 0.43847646E+04</pdfrwt>
<totfact> 0.29645088E-02</totfact>
</mgrwt>
</event>
<event>
 6    1  0.2325157E-005  0.2345837E+04  0.7818608E-02  0.8460065E-01
         -2   -1    0    0    0  501 -0.00000000000E+00  0.00000000000E+00  0.55234015814E+03  0.55234015814E+03  0.00000000000E+00 0. -1.
          2   -1    0    0  501    0  0.00000000000E+00 -0.00000000000E+00 -0.24907427639E+04  0.24907427639E+04  0.00000000000E+00 0.  1.
         23    2    1    2    0    0 -0.68251287139E+03  0.94202952399E+03 -0.11497807839E+04  0.16376762828E+04  0.82123764040E+02 0.  0.
         13    1    3    3    0    0 -0.37823064147E+03  0.58166655374E+03 -0.65622528718E+03  0.95500053687E+03  0.00000000000E+00 0. -1.
        -13    1    3    3    0    0 -0.30428222992E+03  0.36036297024E+03 -0.49355549674E+03  0.68267574596E+03  0.00000000000E+00 0.  1.
         22    1    1    2    0    0  0.68251287139E+03 -0.94202952399E+03 -0.78862182187E+03  0.14054066392E+04  0.00000000000E+00 0.  1.
<mgrwt>
<rscale>  0 0.23458365E+04</rscale>
<asrwt>0</asrwt>
<pdfrwt beam="1">  1        2 0.38319120E+00 0.23458365E+04</pdfrwt>
<pdfrwt beam="2">  1       -2 0.84975408E-01 0.23458365E+04</pdfrwt>
<totfact> 0.38378815E+00</totfact>
</mgrwt>
</event>
<event>
 6    1  0.2325157E-005  0.2015053E+04  0.7818608E-02  0.8599615E-01
          2   -1    0    0  501    0  0.00000000000E+00  0.00000000000E+00  0.31408255617E+04  0.31408255617E+04  0.00000000000E+00 0.  1.
         -2   -1    0    0    0  501 -0.00000000000E+00 -0.00000000000E+00 -0.32319840570E+03  0.32319840570E+03  0.00000000000E+00 0. -1.
         23    2    1    2    0    0 -0.52235843581E+03 -0.80613709397E+03  0.19219397272E+04  0.21506423322E+04  0.93245782527E+02 0.  0.
         11    1    3    3    0    0 -0.26482259434E+03 -0.33148020012E+03  0.80241490025E+03  0.90767824789E+03  0.00000000000E+00 0. -1.
        -11    1    3    3    0    0 -0.25753584147E+03 -0.47465689385E+03  0.11195248270E+04  0.12429640843E+04  0.00000000000E+00 0.  1.
         22    1    1    2    0    0  0.52235843581E+03  0.80613709397E+03  0.89568742870E+03  0.13133816352E+04  0.00000000000E+00 0. -1.
<mgrwt>
<rscale>  0 0.20150532E+04</rscale>
<asrwt>0</asrwt>
<pdfrwt beam="1">  1        2 0.48320391E+00 0.20150532E+04</pdfrwt>
<pdfrwt beam="2">  1       -2 0.49722834E-01 0.20150532E+04</pdfrwt>
<totfact> 0.50468034E+00</totfact>
</mgrwt>
</event>
<event>
 6    1  0.2325157E-005  0.6866683E+03  0.7818608E-02  0.9740307E-01
         -2   -1    0    0    0  501 -0.00000000000E+00  0.00000000000E+00  0.71173857863E+02  0.71173857863E+02  0.00000000000E+00 0. -1.
          2   -1    0    0  501    0  0.00000000000E+00 -0.00000000000E+00 -0.16562025874E+04  0.16562025874E+04  0.00000000000E+00 0.  1.
         23    2    1    2    0    0 -0.24559969520E+03 -0.17449109004E+03 -0.11773429229E+04  0.12204503483E+04  0.11223343504E+03 0.  0.
         11    1    3    3    0    0 -0.13306351940E+03 -0.14999280964E+03 -0.63065557513E+03  0.66176294666E+03  0.00000000000E+00 0. -1.
        -11    1    3    3    0    0 -0.11253617580E+03 -0.24498280398E+02 -0.54668734775E+03  0.55868740168E+03  0.00000000000E+00 0.  1.
         22    1    1    2    0    0  0.24559969520E+03  0.17449109004E+03 -0.40768580667E+03  0.50692609692E+03  0.00000000000E+00 0. -1.
<mgrwt>
<rscale>  0 0.68666827E+03</rscale>
<asrwt>0</asrwt>
<pdfrwt beam="1">  1        2 0.25480039E+00 0.68666827E+03</pdfrwt>
<pdfrwt beam="2">  1       -2 0.10949825E-01 0.68666827E+03</pdfrwt>
<totfact> 0.62565346E+02</totfact>
</mgrwt>
</event>
<event>
 6    1  0.2325157E-005  0.1282040E+04  0.7818608E-02  0.9043930E-01
          1   -1    0    0  501    0  0.00000000000E+00  0.00000000000E+00  0.12080223281E+04  0.12080223281E+04  0.00000000000E+00 0.  1.
         -1   -1    0    0    0  501 -0.00000000000E+00 -0.00000000000E+00 -0.34014823298E+03  0.34014823298E+03  0.00000000000E+00 0. -1.
         23    2    1    2    0    0  0.19789859360E+03 -0.54742198441E+02 -0.29298573677E+03  0.36929138537E+03  0.91514609331E+02 0.  0.
         11    1    3    3    0    0  0.88086569821E+02 -0.53453577671E+02 -0.20166847159E+03  0.22646567330E+03  0.00000000000E+00 0. -1.
        -11    1    3    3    0    0  0.10981202378E+03 -0.12886207693E+01 -0.91317265179E+02  0.14282571207E+03  0.00000000000E+00 0.  1.
         22    1    1    2    0    0 -0.19789859360E+03  0.54742198441E+02  0.11608598319E+04  0.11788791758E+04  0.00000000000E+00 0.  1.
<mgrwt>
<rscale>  0 0.12820400E+04</rscale>
<asrwt>0</asrwt>
<pdfrwt beam="1">  1        1 0.18584959E+00 0.12820400E+04</pdfrwt>
<pdfrwt beam="2">  1       -1 0.52330498E-01 0.12820400E+04</pdfrwt>
<totfact> 0.38145412E+01</totfact>
</mgrwt>
</event>
<event>
 6    1  0.2325157E-005  0.1567624E+04  0.7818608E-02  0.8840688E-01
          2   -1    0    0  501    0  0.00000000000E+00  0.00000000000E+00  0.69342435357E+03  0.69342435357E+03  0.00000000000E+00 0.  1.
         -2   -1    0    0    0  501 -0.00000000000E+00 -0.00000000000E+00 -0.88598173615E+03  0.88598173615E+03  0.00000000000E+00 0. -1.
         23    2    1    2    0    0 -0.50614442001E+03 -0.98188664028E+02  0.49478220873E+03  0.72018615197E+03  0.89640792950E+02 0.  0.
         13    1    3    3    0    0 -0.50616807647E+02  0.16181637960E+02  0.60285662431E+02  0.80363348102E+02  0.00000000000E+00 0.  1.
        -13    1    3    3    0    0 -0.45552761236E+03 -0.11437030199E+03  0.43449654630E+03  0.63982280386E+03  0.00000000000E+00 0. -1.
         22    1    1    2    0    0  0.50614442001E+03  0.98188664028E+02 -0.68733959131E+03  0.85921993776E+03  0.00000000000E+00 0. -1.
<mgrwt>
<rscale>  0 0.15676241E+04</rscale>
<asrwt>0</asrwt>
<pdfrwt beam="1">  1        2 0.10668067E+00 0.15676241E+04</pdfrwt>
<pdfrwt beam="2">  1       -2 0.13630488E+00 0.15676241E+04</pdfrwt>
<totfact> 0.15336820E+01</totfact>
</mgrwt>
</event>
<event>
 6    1  0.2325157E-005  0.2228677E+04  0.7818608E-02  0.8506586E-01
         -2   -1    0    0    0  501 -0.00000000000E+00  0.00000000000E+00  0.64152070333E+03  0.64152070333E+03  0.00000000000E+00 0. -1.
          2   -1    0    0  501    0  0.00000000000E+00 -0.00000000000E+00 -0.19356353012E+04  0.19356353012E+04  0.00000000000E+00 0.  1.
         23    2    1    2    0    0 -0.47951281889E+03 -0.97679944991E+03 -0.38044511047E+03  0.11562894939E+04  0.90538404932E+02 0.  0.
         11    1    3    3    0    0 -0.82769513400E+02 -0.11144360740E+03 -0.31220103417E+02  0.14228550466E+03  0.00000000000E+00 0.  1.
        -11    1    3    3    0    0 -0.39674330549E+03 -0.86535584251E+03 -0.34922500705E+03  0.10140039892E+04  0.00000000000E+00 0. -1.
         22    1    1    2    0    0  0.47951281889E+03  0.97679944991E+03 -0.91366948739E+03  0.14208665106E+04  0.00000000000E+00 0. -1.
<mgrwt>
<rscale>  0 0.22286768E+04</rscale>
<asrwt>0</asrwt>
<pdfrwt beam="1">  1        2 0.29779004E+00 0.22286768E+04</pdfrwt>
<pdfrwt beam="2">  1       -2 0.98695494E-01 0.22286768E+04</pdfrwt>
<totfact> 0.56369393E+00</totfact>
</mgrwt>
</event>
<event>
 6    1  0.2325157E-005  0.3276587E+04  0.7818608E-02  0.8168878E-01
         -2   -1    0    0    0  501 -0.00000000000E+00  0.00000000000E+00  0.11086659122E+04  0.11086659122E+04  0.00000000000E+00 0. -1.
          2   -1    0    0  501    0  0.00000000000E+00 -0.00000000000E+00 -0.24209329046E+04  0.24209329046E+04  0.00000000000E+00 0.  1.
         23    2    1    2    0    0 -0.77290898245E+03 -0.12636726371E+04 -0.14075162411E+04  0.20452372543E+04  0.87387804844E+02 0.  0.
         13    1    3    3    0    0 -0.25878280127E+03 -0.42220704463E+03 -0.52817503174E+03  0.72401394387E+03  0.00000000000E+00 0. -1.
        -13    1    3    3    0    0 -0.51412618118E+03 -0.84146559251E+03 -0.87934120932E+03  0.13212233104E+04  0.00000000000E+00 0.  1.
         22    1    1    2    0    0  0.77290898245E+03  0.12636726371E+04  0.95249248705E+02  0.14843615625E+04  0.00000000000E+00 0. -1.
<mgrwt>
<rscale>  0 0.32765871E+04</rscale>
<asrwt>0</asrwt>
<pdfrwt beam="1">  1        2 0.37245121E+00 0.32765871E+04</pdfrwt>
<pdfrwt beam="2">  1       -2 0.17056399E+00 0.32765871E+04</pdfrwt>
<totfact> 0.68325702E-01</totfact>
</mgrwt>
</event>
<event>
 6    1  0.2325157E-005  0.1199113E+04  0.7818608E-02  0.9113633E-01
         -2   -1    0    0    0  501 -0.00000000000E+00  0.00000000000E+00  0.49755057881E+03  0.49755057881E+03  0.00000000000E+00 0. -1.
          2   -1    0    0  501    0  0.00000000000E+00 -0.00000000000E+00 -0.72247566971E+03  0.72247566971E+03  0.00000000000E+00 0.  1.
         23    2    1    2    0    0 -0.53452525131E+03 -0.10105428064E+03  0.13539807502E+03  0.56752184561E+03  0.88426209956E+02 0.  0.
         11    1    3    3    0    0 -0.38385597426E+03 -0.10734702032E+03  0.11821966907E+03  0.41574593431E+03  0.00000000000E+00 0. -1.
        -11    1    3    3    0    0 -0.15066927705E+03  0.62927396781E+01  0.17178405954E+02  0.15177591130E+03  0.00000000000E+00 0.  1.
         22    1    1    2    0    0  0.53452525131E+03  0.10105428064E+03 -0.36032316591E+03  0.65250440291E+03  0.00000000000E+00 0.  1.
<mgrwt>
<rscale>  0 0.11991133E+04</rscale>
<asrwt>0</asrwt>
<pdfrwt beam="1">  1        2 0.11115010E+00 0.11991133E+04</pdfrwt>
<pdfrwt beam="2">  1       -2 0.76546243E-01 0.11991133E+04</pdfrwt>
<totfact> 0.59290241E+01</totfact>
</mgrwt>
</event>
<event>
 6    1  0.2325157E-005  0.1571219E+04  0.7818608E-02  0.8838427E-01
          2   -1    0    0  501    0  0.00000000000E+00  0.00000000000E+00  0.13666068827E+04  0.13666068827E+04  0.00000000000E+00 0.  1.
         -2   -1    0    0    0  501 -0.00000000000E+00 -0.00000000000E+00 -0.45161639091E+03  0.45161639091E+03  0.00000000000E+00 0. -1.
         23    2    1    2    0    0  0.15904077769E+03  0.52375869116E+03 -0.18887944263E+03  0.58609261185E+03  0.90619922118E+02 0.  0.
         11    1    3    3    0    0  0.17338343392E+02  0.43810214544E+02 -0.45566974750E+02  0.65546184006E+02  0.00000000000E+00 0. -1.
        -11    1    3    3    0    0  0.14170243430E+03  0.47994847662E+03 -0.14331246788E+03  0.52054642785E+03  0.00000000000E+00 0.  1.
         22    1    1    2    0    0 -0.15904077769E+03 -0.52375869116E+03  0.11038699345E+04  0.12321306618E+04  0.00000000000E+00 0.  1.
<mgrwt>
<rscale>  0 0.15712187E+04</rscale>
<asrwt>0</asrwt>
<pdfrwt beam="1">  1        2 0.21024721E+00 0.15712187E+04</pdfrwt>
<pdfrwt beam="2">  1       -2 0.69479445E-01 0.15712187E+04</pdfrwt>
<totfact> 0.27463240E+01</totfact>
</mgrwt>
</event>
<event>
 6    1  0.2325157E-005  0.1987517E+04  0.7818608E-02  0.8612479E-01
         -2   -1    0    0    0  501 -0.00000000000E+00  0.00000000000E+00  0.71444941738E+03  0.71444941738E+03  0.00000000000E+00 0. -1.
          2   -1    0    0  501    0  0.00000000000E+00 -0.00000000000E+00 -0.13822616190E+04  0.13822616190E+04  0.00000000000E+00 0.  1.
         23    2    1    2    0    0  0.27281326338E+02  0.94218789429E+03 -0.65915785861E+03  0.11540885263E+04  0.94704513855E+02 0.  0.
         11    1    3    3    0    0 -0.25870295115E+02  0.46975980385E+03 -0.35975841723E+03  0.59225810611E+03  0.00000000000E+00 0. -1.
        -11    1    3    3    0    0  0.53151621453E+02  0.47242809044E+03 -0.29939944138E+03  0.56183042014E+03  0.00000000000E+00 0.  1.
         22    1    1    2    0    0 -0.27281326338E+02 -0.94218789429E+03 -0.86543429908E+01  0.94262251011E+03  0.00000000000E+00 0.  1.
<mgrwt>
<rscale>  0 0.19875171E+04</rscale>
<asrwt>0</asrwt>
<pdfrwt beam="1">  1        2 0.21265563E+00 0.19875171E+04</pdfrwt>
<pdfrwt beam="2">  1       -2 0.10991530E+00 0.19875171E+04</pdfrwt>
<totfact> 0.90700760E+00</totfact>
</mgrwt>
</event>
<event>
 6    1  0.2325157E-005  0.3730093E+04  0.7818608E-02  0.8061325E-01
          2   -1    0    0  501    0  0.00000000000E+00  0.00000000000E+00  0.19829380895E+04  0.19829380895E+04  0.00000000000E+00 0.  1.
         -2   -1    0    0    0  501 -0.00000000000E+00 -0.00000000000E+00 -0.17541637389E+04  0.17541637389E+04  0.00000000000E+00 0. -1.
         23    2    1    2    0    0  0.87227711162E+03 -0.10284800893E+04  0.14035791743E+04  0.19485814827E+04  0.91085907518E+02 0.  0.
         11    1    3    3    0    0  0.44569119233E+02 -0.71485204829E+02  0.63022611092E+02  0.10520641809E+03  0.00000000000E+00 0. -1.
        -11    1    3    3    0    0  0.82770799239E+03 -0.95699488443E+03  0.13405565632E+04  0.18433750646E+04  0.00000000000E+00 0.  1.
         22    1    1    2    0    0 -0.87227711162E+03  0.10284800893E+04 -0.11748048237E+04  0.17885203457E+04  0.00000000000E+00 0. -1.
<mgrwt>
<rscale>  0 0.37300928E+04</rscale>
<asrwt>0</asrwt>
<pdfrwt beam="1">  1        2 0.30506740E+00 0.37300928E+04</pdfrwt>
<pdfrwt beam="2">  1       -2 0.26987135E+00 0.37300928E+04</pdfrwt>
<totfact> 0.26740143E-01</totfact>
</mgrwt>
</event>
<event>
 6    1  0.2325157E-005  0.2709427E+04  0.7818608E-02  0.8331953E-01
         -2   -1    0    0    0  501 -0.00000000000E+00  0.00000000000E+00  0.64801117238E+03  0.64801117238E+03  0.00000000000E+00 0. -1.
          2   -1    0    0  501    0  0.00000000000E+00 -0.00000000000E+00 -0.28321257243E+04  0.28321257243E+04  0.00000000000E+00 0.  1.
         23    2    1    2    0    0  0.65023519629E+03  0.49450361628E+03  0.29266854223E+03  0.87211194808E+03  0.87090397682E+02 0.  0.
         11    1    3    3    0    0  0.12663953604E+03  0.57883523035E+02  0.37871415247E+02  0.14429940548E+03  0.00000000000E+00 0. -1.
        -11    1    3    3    0    0  0.52359566025E+03  0.43662009324E+03  0.25479712699E+03  0.72781254260E+03  0.00000000000E+00 0.  1.
         22    1    1    2    0    0 -0.65023519629E+03 -0.49450361628E+03 -0.24767830941E+04  0.26080249485E+04  0.00000000000E+00 0.  1.
<mgrwt>
<rscale>  0 0.27094273E+04</rscale>
<asrwt>0</asrwt>
<pdfrwt beam="1">  1        2 0.43571164E+00 0.27094273E+04</pdfrwt>
<pdfrwt beam="2">  1       -2 0.99694028E-01 0.27094273E+04</pdfrwt>
<totfact> 0.16120264E+00</totfact>
</mgrwt>
</event>
<event>
 6    1  0.2325157E-005  0.4208519E+04  0.7818608E-02  0.7963754E-01
         -2   -1    0    0    0  501 -0.00000000000E+00  0.00000000000E+00  0.15418763208E+04  0.15418763208E+04  0.00000000000E+00 0. -1.
          2   -1    0    0  501    0  0.00000000000E+00 -0.00000000000E+00 -0.28717659684E+04  0.28717659684E+04  0.00000000000E+00 0.  1.
         23    2    1    2    0    0 -0.12057914411E+03  0.18106139957E+04 -0.17804190234E+04  0.25439259766E+04  0.93835517294E+02 0.  0.
         13    1    3    3    0    0 -0.65736057666E+02  0.90000477098E+03 -0.95057054108E+03  0.13106922486E+04  0.00000000000E+00 0.  1.
        -13    1    3    3    0    0 -0.54843086445E+02  0.91060922467E+03 -0.82984848233E+03  0.12332337280E+04  0.00000000000E+00 0. -1.
         22    1    1    2    0    0  0.12057914411E+03 -0.18106139957E+04  0.45052937580E+03  0.18697163126E+04  0.00000000000E+00 0. -1.
<mgrwt>
<rscale>  0 0.42085190E+04</rscale>
<asrwt>0</asrwt>
<pdfrwt beam="1">  1        2 0.44181015E+00 0.42085190E+04</pdfrwt>
<pdfrwt beam="2">  1       -2 0.23721174E+00 0.42085190E+04</pdfrwt>
<totfact> 0.12499035E-01</totfact>
</mgrwt>
</event>
<event>
 6    1  0.2325157E-005  0.2661998E+04  0.7818608E-02  0.8347441E-01
          2   -1    0    0  501    0  0.00000000000E+00  0.00000000000E+00  0.31524294352E+04  0.31524294352E+04  0.00000000000E+00 0. -1.
         -2   -1    0    0    0  501 -0.00000000000E+00 -0.00000000000E+00 -0.56196625127E+03  0.56196625127E+03  0.00000000000E+00 0.  1.
         23    2    1    2    0    0  0.67796451581E+03 -0.10243678762E+04  0.58757311503E+03  0.13648140091E+04  0.92247944997E+02 0.  0.
         11    1    3    3    0    0  0.46950164865E+03 -0.72332047996E+03  0.45778545506E+03  0.97631543964E+03  0.00000000000E+00 0. -1.
        -11    1    3    3    0    0  0.20846286717E+03 -0.30104739627E+03  0.12978765997E+03  0.38849856946E+03  0.00000000000E+00 0.  1.
         22    1    1    2    0    0 -0.67796451581E+03  0.10243678762E+04  0.20028900689E+04  0.23495816774E+04  0.00000000000E+00 0. -1.
<mgrwt>
<rscale>  0 0.26619985E+04</rscale>
<asrwt>0</asrwt>
<pdfrwt beam="1">  1        2 0.48498914E+00 0.26619985E+04</pdfrwt>
<pdfrwt beam="2">  1       -2 0.86456348E-01 0.26619985E+04</pdfrwt>
<totfact> 0.14201514E+00</totfact>
</mgrwt>
</event>
<event>
 6    1  0.2325157E-005  0.9781020E+03  0.7818608E-02  0.9332894E-01
          2   -1    0    0  501    0  0.00000000000E+00  0.00000000000E+00  0.65429377315E+03  0.65429377315E+03  0.00000000000E+00 0.  1.
         -2   -1    0    0    0  501 -0.00000000000E+00 -0.00000000000E+00 -0.36554048213E+03  0.36554048213E+03  0.00000000000E+00 0. -1.
         23    2    1    2    0    0  0.74867647509E+02  0.37409430083E+03 -0.16650290478E+03  0.42585621329E+03  0.89880957615E+02 0.  0.
         13    1    3    3    0    0 -0.11763836151E+01  0.21098159233E+03 -0.74638028898E+02  0.22379779163E+03  0.00000000000E+00 0.  1.
        -13    1    3    3    0    0  0.76044031124E+02  0.16311270850E+03 -0.91864875880E+02  0.20205842166E+03  0.00000000000E+00 0. -1.
         22    1    1    2    0    0 -0.74867647509E+02 -0.37409430083E+03  0.45525619579E+03  0.59397804199E+03  0.00000000000E+00 0.  1.
<mgrwt>
<rscale>  0 0.97810196E+03</rscale>
<asrwt>0</asrwt>
<pdfrwt beam="1">  1        2 0.10066058E+00 0.97810196E+03</pdfrwt>
<pdfrwt beam="2">  1       -2 0.56236997E-01 0.97810196E+03</pdfrwt>
<totfact> 0.13235769E+02</totfact>
</mgrwt>
</event>
<event>
 6    1  0.2325157E-005  0.3242083E+04  0.7818608E-02  0.8177791E-01
         -2   -1    0    0    0  501 -0.00000000000E+00  0.00000000000E+00  0.87103798031E+03  0.87103798031E+03  0.00000000000E+00 0. -1.
          2   -1    0    0  501    0  0.00000000000E+00 -0.00000000000E+00 -0.30168324049E+04  0.30168324049E+04  0.00000000000E+00 0.  1.
         23    2    1    2    0    0  0.81548726010E+03 -0.77264493066E+03  0.32504038352E+03  0.11736441033E+04  0.98942256418E+02 0.  0.
         13    1    3    3    0    0  0.66281306732E+03 -0.65560906490E+03  0.23611978265E+03  0.96171563362E+03  0.00000000000E+00 0.  1.
        -13    1    3    3    0    0  0.15267419278E+03 -0.11703586576E+03  0.88920600871E+02  0.21192846971E+03  0.00000000000E+00 0. -1.
         22    1    1    2    0    0 -0.81548726010E+03  0.77264493066E+03 -0.24708348081E+04  0.27142262819E+04  0.00000000000E+00 0.  1.
<mgrwt>
<rscale>  0 0.32420830E+04</rscale>
<asrwt>0</asrwt>
<pdfrwt beam="1">  1        2 0.46412807E+00 0.32420830E+04</pdfrwt>
<pdfrwt beam="2">  1       -2 0.13400584E+00 0.32420830E+04</pdfrwt>
<totfact> 0.57284989E-01</totfact>
</mgrwt>
</event>
<event>
 6    1  0.2325157E-005  0.3292891E+04  0.7818608E-02  0.8164707E-01
          1   -1    0    0  501    0  0.00000000000E+00  0.00000000000E+00  0.38813929264E+04  0.38813929264E+04  0.00000000000E+00 0.  1.
         -1   -1    0    0    0  501 -0.00000000000E+00 -0.00000000000E+00 -0.69840455255E+03  0.69840455255E+03  0.00000000000E+00 0. -1.
         23    2    1    2    0    0  0.57455535982E+03 -0.14021196725E+04  0.70172659890E+03  0.16724424210E+04  0.92682222071E+02 0.  0.
         13    1    3    3    0    0  0.55185514524E+03 -0.13737914797E+04  0.69508000597E+03  0.16355376320E+04  0.00000000000E+00 0. -1.
        -13    1    3    3    0    0  0.22700214578E+02 -0.28328192811E+02  0.66465929265E+01  0.36904788949E+02  0.00000000000E+00 0.  1.
         22    1    1    2    0    0 -0.57455535982E+03  0.14021196725E+04  0.24812617750E+04  0.29073550580E+04  0.00000000000E+00 0.  1.
<mgrwt>
<rscale>  0 0.32928908E+04</rscale>
<asrwt>0</asrwt>
<pdfrwt beam="1">  1        1 0.59713736E+00 0.32928908E+04</pdfrwt>
<pdfrwt beam="2">  1       -1 0.10744686E+00 0.32928908E+04</pdfrwt>
<totfact> 0.81281668E-02</totfact>
</mgrwt>
</event>
<event>
 6    1  0.2325157E-005  0.1242670E+04  0.7818608E-02  0.9076306E-01
         -1   -1    0    0    0  501 -0.00000000000E+00  0.00000000000E+00  0.11338331997E+04  0.11338331997E+04  0.00000000000E+00 0. -1.
          1   -1    0    0  501    0  0.00000000000E+00 -0.00000000000E+00 -0.34048839216E+03  0.34048839216E+03  0.00000000000E+00 0.  1.
         23    2    1    2    0    0  0.39191308969E+03 -0.10564809631E+03 -0.15418884613E+03  0.44350763437E+03  0.90373842198E+02 0.  0.
         11    1    3    3    0    0  0.25326846067E+03 -0.44308805062E+02 -0.56798234078E+02  0.26331392438E+03  0.00000000000E+00 0.  1.
        -11    1    3    3    0    0  0.13864462901E+03 -0.61339291248E+02 -0.97390612050E+02  0.18019370999E+03  0.00000000000E+00 0. -1.
         22    1    1    2    0    0 -0.39191308969E+03  0.10564809631E+03  0.94753365366E+03  0.10308139575E+04  0.00000000000E+00 0. -1.
<mgrwt>
<rscale>  0 0.12426698E+04</rscale>
<asrwt>0</asrwt>
<pdfrwt beam="1">  1        1 0.52382830E-01 0.12426698E+04</pdfrwt>
<pdfrwt beam="2">  1       -1 0.17443587E+00 0.12426698E+04</pdfrwt>
<totfact> 0.16731369E+01</totfact>
</mgrwt>
</event>
<event>
 6    1  0.2325157E-005  0.1449913E+04  0.7818608E-02  0.8918461E-01
          2   -1    0    0  501    0  0.00000000000E+00  0.00000000000E+00  0.16880043428E+04  0.16880043428E+04  0.00000000000E+00 0.  1.
         -2   -1    0    0    0  501 -0.00000000000E+00 -0.00000000000E+00 -0.31135123497E+03  0.31135123497E+03  0.00000000000E+00 0. -1.
         23    2    1    2    0    0 -0.16907054257E+03 -0.60481466023E+03  0.19943250749E+03  0.66510149273E+03  0.90559643332E+02 0.  0.
         13    1    3    3    0    0 -0.11843745845E+02 -0.16954321630E+03  0.31966374527E+02  0.17293647854E+03  0.00000000000E+00 0.  1.
        -13    1    3    3    0    0 -0.15722679672E+03 -0.43527144393E+03  0.16746613296E+03  0.49216501419E+03  0.00000000000E+00 0. -1.
         22    1    1    2    0    0  0.16907054257E+03  0.60481466023E+03  0.11772206003E+04  0.13342540850E+04  0.00000000000E+00 0.  1.
<mgrwt>
<rscale>  0 0.14499134E+04</rscale>
<asrwt>0</asrwt>
<pdfrwt beam="1">  1        2 0.25969297E+00 0.14499134E+04</pdfrwt>
<pdfrwt beam="2">  1       -2 0.47900191E-01 0.14499134E+04</pdfrwt>
<totfact> 0.39877097E+01</totfact>
</mgrwt>
</event>
<event>
 6    1  0.2325157E-005  0.4734197E+04  0.7818608E-02  0.7870871E-01
         -2   -1    0    0    0  501 -0.00000000000E+00  0.00000000000E+00  0.13797283435E+04  0.13797283435E+04  0.00000000000E+00 0. -1.
          2   -1    0    0  501    0  0.00000000000E+00 -0.00000000000E+00 -0.40610565093E+04  0.40610565093E+04  0.00000000000E+00 0.  1.
         23    2    1    2    0    0 -0.10871055787E+04  0.39447372857E+03  0.10312025862E+04  0.15523028037E+04  0.94112480307E+02 0.  0.
         13    1    3    3    0    0 -0.63705735063E+03  0.25008267978E+03  0.66657189909E+03  0.95535412878E+03  0.00000000000E+00 0.  1.
        -13    1    3    3    0    0 -0.45004822803E+03  0.14439104879E+03  0.36463068708E+03  0.59694867491E+03  0.00000000000E+00 0. -1.
         22    1    1    2    0    0  0.10871055787E+04 -0.39447372857E+03 -0.37125307520E+04  0.38884820491E+04  0.00000000000E+00 0.  1.
<mgrwt>
<rscale>  0 0.47341968E+04</rscale>
<asrwt>0</asrwt>
<pdfrwt beam="1">  1        2 0.62477792E+00 0.47341968E+04</pdfrwt>
<pdfrwt beam="2">  1       -2 0.21226590E+00 0.47341968E+04</pdfrwt>
<totfact> 0.24983022E-02</totfact>
</mgrwt>
</event>
<event>
 6    1  0.2325157E-005  0.3000030E+04  0.7818608E-02  0.8243722E-01
          2   -1    0    0  501    0  0.00000000000E+00  0.00000000000E+00  0.16302061748E+04  0.16302061748E+04  0.00000000000E+00 0.  1.
         -2   -1    0    0    0  501 -0.00000000000E+00 -0.00000000000E+00 -0.13802215603E+04  0.13802215603E+04  0.00000000000E+00 0. -1.
         23    2    1    2    0    0 -0.13491553487E+03  0.12252342847E+04  0.98026656376E+03  0.15776985286E+04  0.93855512474E+02 0.  0.
         11    1    3    3    0    0 -0.54398206654E+02  0.63054800122E+03  0.44634425322E+03  0.77445021732E+03  0.00000000000E+00 0. -1.
        -11    1    3    3    0    0 -0.80517328217E+02  0.59468628345E+03  0.53392231054E+03  0.80324831127E+03  0.00000000000E+00 0.  1.
         22    1    1    2    0    0  0.13491553487E+03 -0.12252342847E+04 -0.73028194923E+03  0.14327292065E+04  0.00000000000E+00 0. -1.
<mgrwt>
<rscale>  0 0.30000305E+04</rscale>
<asrwt>0</asrwt>
<pdfrwt beam="1">  1        2 0.25080095E+00 0.30000305E+04</pdfrwt>
<pdfrwt beam="2">  1       -2 0.21234178E+00 0.30000305E+04</pdfrwt>
<totfact> 0.10156629E+00</totfact>
</mgrwt>
</event>
<event>
 6    1  0.2325157E-005  0.1274494E+04  0.7818608E-02  0.9050040E-01
         -2   -1    0    0    0  501 -0.00000000000E+00  0.00000000000E+00  0.21019729073E+03  0.21019729073E+03  0.00000000000E+00 0. -1.
          2   -1    0    0  501    0  0.00000000000E+00 -0.00000000000E+00 -0.19319181102E+04  0.19319181102E+04  0.00000000000E+00 0.  1.
         23    2    1    2    0    0 -0.75636329189E+02 -0.57612253443E+03 -0.43933689361E+03  0.73422813190E+03  0.91847779602E+02 0.  0.
         11    1    3    3    0    0 -0.47573892913E+01 -0.27987572156E+03 -0.25189169824E+03  0.37656670048E+03  0.00000000000E+00 0. -1.
        -11    1    3    3    0    0 -0.70878939897E+02 -0.29624681287E+03 -0.18744519537E+03  0.35766143141E+03  0.00000000000E+00 0.  1.
         22    1    1    2    0    0  0.75636329189E+02  0.57612253443E+03 -0.12823839259E+04  0.14078872690E+04  0.00000000000E+00 0.  1.
<mgrwt>
<rscale>  0 0.12744943E+04</rscale>
<asrwt>0</asrwt>
<pdfrwt beam="1">  1        2 0.29721816E+00 0.12744943E+04</pdfrwt>
<pdfrwt beam="2">  1       -2 0.32338045E-01 0.12744943E+04</pdfrwt>
<totfact> 0.63782669E+01</totfact>
</mgrwt>
</event>
<event>
 6    1  0.2325157E-005  0.4792250E+04  0.7818608E-02  0.7861379E-01
         -2   -1    0    0    0  501 -0.00000000000E+00  0.00000000000E+00  0.20883556178E+04  0.20883556178E+04  0.00000000000E+00 0. -1.
          2   -1    0    0  501    0  0.00000000000E+00 -0.00000000000E+00 -0.27492513660E+04  0.27492513660E+04  0.00000000000E+00 0.  1.
         23    2    1    2    0    0 -0.65007144063E+03 -0.15129386381E+04  0.14253035838E+04  0.21798252295E+04  0.92582528672E+02 0.  0.
         11    1    3    3    0    0 -0.32039095373E+03 -0.84801131651E+03  0.81286339278E+03  0.12175879646E+04  0.00000000000E+00 0. -1.
        -11    1    3    3    0    0 -0.32968048689E+03 -0.66492732158E+03  0.61244019100E+03  0.96223726491E+03  0.00000000000E+00 0.  1.
         22    1    1    2    0    0  0.65007144063E+03  0.15129386381E+04 -0.20861993321E+04  0.26577817543E+04  0.00000000000E+00 0.  1.
<mgrwt>
<rscale>  0 0.47922498E+04</rscale>
<asrwt>0</asrwt>
<pdfrwt beam="1">  1        2 0.42296175E+00 0.47922498E+04</pdfrwt>
<pdfrwt beam="2">  1       -2 0.32128548E+00 0.47922498E+04</pdfrwt>
<totfact> 0.43168716E-02</totfact>
</mgrwt>
</event>
<event>
 6    1  0.2325157E-005  0.2075317E+04  0.7818608E-02  0.8572195E-01
          2   -1    0    0  501    0  0.00000000000E+00  0.00000000000E+00  0.14831849302E+04  0.14831849302E+04  0.00000000000E+00 0.  1.
         -2   -1    0    0    0  501 -0.00000000000E+00 -0.00000000000E+00 -0.72596115919E+03  0.72596115919E+03  0.00000000000E+00 0. -1.
         23    2    1    2    0    0 -0.62766239446E+03 -0.29985678861E+03 -0.43739771066E+03  0.82675878492E+03  0.91318979667E+02 0.  0.
         11    1    3    3    0    0 -0.49832892890E+03 -0.23149579323E+03 -0.38681009104E+03  0.67197028967E+03  0.00000000000E+00 0. -1.
        -11    1    3    3    0    0 -0.12933346556E+03 -0.68360995379E+02 -0.50587619624E+02  0.15478849525E+03  0.00000000000E+00 0.  1.
         22    1    1    2    0    0  0.62766239446E+03  0.29985678861E+03  0.11946214817E+04  0.13823873045E+04  0.00000000000E+00 0.  1.
<mgrwt>
<rscale>  0 0.20753165E+04</rscale>
<asrwt>0</asrwt>
<pdfrwt beam="1">  1        2 0.22818230E+00 0.20753165E+04</pdfrwt>
<pdfrwt beam="2">  1       -2 0.11168633E+00 0.20753165E+04</pdfrwt>
<totfact> 0.75875922E+00</totfact>
</mgrwt>
</event>
<event>
 6    1  0.2325157E-005  0.8949162E+03  0.7818608E-02  0.9431959E-01
          2   -1    0    0  501    0  0.00000000000E+00  0.00000000000E+00  0.12358264423E+04  0.12358264423E+04  0.00000000000E+00 0.  1.
         -2   -1    0    0    0  501 -0.00000000000E+00 -0.00000000000E+00 -0.16201204107E+03  0.16201204107E+03  0.00000000000E+00 0. -1.
         23    2    1    2    0    0  0.34249879657E+03 -0.80591908057E+02  0.96171666288E+03  0.10285602898E+04  0.96108526079E+02 0.  0.
         13    1    3    3    0    0  0.23363862215E+03 -0.86347410434E+01  0.64142628017E+03  0.68270728531E+03  0.00000000000E+00 0.  1.
        -13    1    3    3    0    0  0.10886017442E+03 -0.71957167013E+02  0.32029038271E+03  0.34585300449E+03  0.00000000000E+00 0. -1.
         22    1    1    2    0    0 -0.34249879657E+03  0.80591908057E+02  0.11209773833E+03  0.36927819356E+03  0.00000000000E+00 0. -1.
<mgrwt>
<rscale>  0 0.89491623E+03</rscale>
<asrwt>0</asrwt>
<pdfrwt beam="1">  1        2 0.19012714E+00 0.89491623E+03</pdfrwt>
<pdfrwt beam="2">  1       -2 0.24924930E-01 0.89491623E+03</pdfrwt>
<totfact> 0.26046482E+02</totfact>
</mgrwt>
</event>
<event>
 6    1  0.2325157E-005  0.1919764E+04  0.7818608E-02  0.8645081E-01
         -2   -1    0    0    0  501 -0.00000000000E+00  0.00000000000E+00  0.91568390003E+03  0.91568390003E+03  0.00000000000E+00 0. -1.
          2   -1    0    0  501    0  0.00000000000E+00 -0.00000000000E+00 -0.10062135765E+04  0.10062135765E+04  0.00000000000E+00 0.  1.
         23    2    1    2    0    0 -0.57372328166E+03  0.69829839074E+03  0.27180209093E+03  0.94821202625E+03  0.91927273738E+02 0.  0.
         13    1    3    3    0    0 -0.40172879549E+03  0.49982239953E+03  0.14924953770E+03  0.65839492761E+03  0.00000000000E+00 0. -1.
        -13    1    3    3    0    0 -0.17199448617E+03  0.19847599121E+03  0.12255255323E+03  0.28981709864E+03  0.00000000000E+00 0.  1.
         22    1    1    2    0    0  0.57372328166E+03 -0.69829839074E+03 -0.36233176741E+03  0.97368545029E+03  0.00000000000E+00 0. -1.
<mgrwt>
<rscale>  0 0.19197641E+04</rscale>
<asrwt>0</asrwt>
<pdfrwt beam="1">  1        2 0.15480209E+00 0.19197641E+04</pdfrwt>
<pdfrwt beam="2">  1       -2 0.14087445E+00 0.19197641E+04</pdfrwt>
<totfact> 0.82467616E+00</totfact>
</mgrwt>
</event>
<event>
 6    1  0.2325157E-005  0.8197225E+03  0.7818608E-02  0.9531900E-01
         -2   -1    0    0    0  501 -0.00000000000E+00  0.00000000000E+00  0.13100771206E+04  0.13100771206E+04  0.00000000000E+00 0. -1.
          2   -1    0    0  501    0  0.00000000000E+00 -0.00000000000E+00 -0.12822623538E+03  0.12822623538E+03  0.00000000000E+00 0.  1.
         23    2    1    2    0    0 -0.16665653989E+03 -0.32544740080E+03  0.29485228804E+03  0.47889889259E+03  0.93358794941E+02 0.  0.
         13    1    3    3    0    0 -0.10693539900E+03 -0.10851148367E+03  0.12101431549E+03  0.19456203690E+03  0.00000000000E+00 0.  1.
        -13    1    3    3    0    0 -0.59721140889E+02 -0.21693591713E+03  0.17383797255E+03  0.28433685570E+03  0.00000000000E+00 0. -1.
         22    1    1    2    0    0  0.16665653989E+03  0.32544740080E+03  0.88699859714E+03  0.95940446335E+03  0.00000000000E+00 0. -1.
<mgrwt>
<rscale>  0 0.81972253E+03</rscale>
<asrwt>0</asrwt>
<pdfrwt beam="1">  1        2 0.19727114E-01 0.81972253E+03</pdfrwt>
<pdfrwt beam="2">  1       -2 0.20155032E+00 0.81972253E+03</pdfrwt>
<totfact> 0.37999794E+01</totfact>
</mgrwt>
</event>
<event>
 6    1  0.2325157E-005  0.1624989E+04  0.7818608E-02  0.8805342E-01
          2   -1    0    0  501    0  0.00000000000E+00  0.00000000000E+00  0.16488240603E+04  0.16488240603E+04  0.00000000000E+00 0. -1.
         -2   -1    0    0    0  501 -0.00000000000E+00 -0.00000000000E+00 -0.40037463925E+03  0.40037463925E+03  0.00000000000E+00 0.  1.
         23    2    1    2    0    0  0.30009733842E+03 -0.36441407279E+02  0.15736225080E+04  0.16052122975E+04  0.95038590662E+02 0.  0.
         11    1    3    3    0    0  0.70070864467E+02  0.22556925313E+01  0.59786328562E+03  0.60195973494E+03  0.00000000000E+00 0.  1.
        -11    1    3    3    0    0  0.23002647395E+03 -0.38697099811E+02  0.97575922237E+03  0.10032525626E+04  0.00000000000E+00 0. -1.
         22    1    1    2    0    0 -0.30009733842E+03  0.36441407279E+02 -0.32517308696E+03  0.44398640202E+03  0.00000000000E+00 0.  1.
<mgrwt>
<rscale>  0 0.16249890E+04</rscale>
<asrwt>0</asrwt>
<pdfrwt beam="1">  1        2 0.25366524E+00 0.16249890E+04</pdfrwt>
<pdfrwt beam="2">  1       -2 0.61596099E-01 0.16249890E+04</pdfrwt>
<totfact> 0.24549694E+01</totfact>
</mgrwt>
</event>
<event>
 6    1  0.2325157E-005  0.9082965E+03  0.7818608E-02  0.9415269E-01
         -2   -1    0    0    0  501 -0.00000000000E+00  0.00000000000E+00  0.91938029975E+02  0.91938029975E+02  0.00000000000E+00 0. -1.
          2   -1    0    0  501    0  0.00000000000E+00 -0.00000000000E+00 -0.22433657849E+04  0.22433657849E+04  0.00000000000E+00 0.  1.
         23    2    1    2    0    0 -0.11818842258E+03  0.37445830097E+03 -0.52373641080E+03  0.66091836519E+03  0.91245465910E+02 0.  0.
         13    1    3    3    0    0 -0.13143137697E+03  0.31521262894E+03 -0.45975177648E+03  0.57271712413E+03  0.00000000000E+00 0. -1.
        -13    1    3    3    0    0  0.13242954393E+02  0.59245672022E+02 -0.63984634324E+02  0.88201241057E+02  0.00000000000E+00 0.  1.
         22    1    1    2    0    0  0.11818842258E+03 -0.37445830097E+03 -0.16276913442E+04  0.16743854497E+04  0.00000000000E+00 0.  1.
<mgrwt>
<rscale>  0 0.90829650E+03</rscale>
<asrwt>0</asrwt>
<pdfrwt beam="1">  1        2 0.34513318E+00 0.90829650E+03</pdfrwt>
<pdfrwt beam="2">  1       -2 0.14144313E-01 0.90829650E+03</pdfrwt>
<totfact> 0.19187239E+02</totfact>
</mgrwt>
</event>
<event>
 6    1  0.2325157E-005  0.2470197E+04  0.7818608E-02  0.8413681E-01
          2   -1    0    0  501    0  0.00000000000E+00  0.00000000000E+00  0.41415997987E+04  0.41415997987E+04  0.00000000000E+00 0.  1.
         -2   -1    0    0    0  501 -0.00000000000E+00 -0.00000000000E+00 -0.36832828403E+03  0.36832828403E+03  0.00000000000E+00 0. -1.
         23    2    1    2    0    0  0.90507352604E+03 -0.12531112598E+03  0.34018980657E+04  0.35236323844E+04  0.90629827827E+02 0.  0.
         11    1    3    3    0    0  0.47475661906E+03 -0.28472255086E+02  0.18654967685E+04  0.19251708262E+04  0.00000000000E+00 0. -1.
        -11    1    3    3    0    0  0.43031690699E+03 -0.96838870890E+02  0.15364012971E+04  0.15984615583E+04  0.00000000000E+00 0.  1.
         22    1    1    2    0    0 -0.90507352604E+03  0.12531112598E+03  0.37137344900E+03  0.98629569829E+03  0.00000000000E+00 0. -1.
<mgrwt>
<rscale>  0 0.24701970E+04</rscale>
<asrwt>0</asrwt>
<pdfrwt beam="1">  1        2 0.63716917E+00 0.24701970E+04</pdfrwt>
<pdfrwt beam="2">  1       -2 0.56665893E-01 0.24701970E+04</pdfrwt>
<totfact> 0.68479031E-01</totfact>
</mgrwt>
</event>
<event>
 6    1  0.2325157E-005  0.1001017E+04  0.7818608E-02  0.9307430E-01
         -2   -1    0    0    0  501 -0.00000000000E+00  0.00000000000E+00  0.14478707684E+03  0.14478707684E+03  0.00000000000E+00 0. -1.
          2   -1    0    0  501    0  0.00000000000E+00 -0.00000000000E+00 -0.17301864254E+04  0.17301864254E+04  0.00000000000E+00 0.  1.
         23    2    1    2    0    0  0.23380947540E+03  0.10304190492E+03 -0.15963521592E+04  0.16192305277E+04  0.91009783425E+02 0.  0.
         13    1    3    3    0    0  0.47780250037E+02  0.64691989108E+02 -0.41771559798E+03  0.42538726655E+03  0.00000000000E+00 0. -1.
        -13    1    3    3    0    0  0.18602922536E+03  0.38349915811E+02 -0.11786365612E+04  0.11938432611E+04  0.00000000000E+00 0.  1.
         22    1    1    2    0    0 -0.23380947540E+03 -0.10304190492E+03  0.10952810665E+02  0.25574297452E+03  0.00000000000E+00 0. -1.
<mgrwt>
<rscale>  0 0.10010168E+04</rscale>
<asrwt>0</asrwt>
<pdfrwt beam="1">  1        2 0.26618251E+00 0.10010168E+04</pdfrwt>
<pdfrwt beam="2">  1       -2 0.22274936E-01 0.10010168E+04</pdfrwt>
<totfact> 0.16645568E+02</totfact>
</mgrwt>
</event>
<event>
 6    1  0.2325157E-005  0.4375417E+04  0.7818608E-02  0.7932818E-01
         -2   -1    0    0    0  501 -0.00000000000E+00  0.00000000000E+00  0.14837858639E+04  0.14837858639E+04  0.00000000000E+00 0. -1.
          2   -1    0    0  501    0  0.00000000000E+00 -0.00000000000E+00 -0.32255787456E+04  0.32255787456E+04  0.00000000000E+00 0.  1.
         23    2    1    2    0    0 -0.11832386315E+04 -0.93034371730E+03 -0.25786821474E+04  0.29871634789E+04  0.89168047302E+02 0.  0.
         11    1    3    3    0    0 -0.25791456990E+03 -0.22599844761E+03 -0.65381635296E+03  0.73828927061E+03  0.00000000000E+00 0. -1.
        -11    1    3    3    0    0 -0.92532406163E+03 -0.70434526969E+03 -0.19248657944E+04  0.22488742083E+04  0.00000000000E+00 0.  1.
         22    1    1    2    0    0  0.11832386315E+04  0.93034371730E+03  0.83688926568E+03  0.17222011307E+04  0.00000000000E+00 0. -1.
<mgrwt>
<rscale>  0 0.43754168E+04</rscale>
<asrwt>0</asrwt>
<pdfrwt beam="1">  1        2 0.49624288E+00 0.43754168E+04</pdfrwt>
<pdfrwt beam="2">  1       -2 0.22827475E+00 0.43754168E+04</pdfrwt>
<totfact> 0.83616930E-02</totfact>
</mgrwt>
</event>
<event>
 6    1  0.2325157E-005  0.3274944E+04  0.7818608E-02  0.8169300E-01
         -2   -1    0    0    0  501 -0.00000000000E+00  0.00000000000E+00  0.80342152637E+03  0.80342152637E+03  0.00000000000E+00 0. -1.
          2   -1    0    0  501    0  0.00000000000E+00 -0.00000000000E+00 -0.33373695256E+04  0.33373695256E+04  0.00000000000E+00 0.  1.
         23    2    1    2    0    0  0.15462373831E+04  0.23689240616E+03 -0.18748205099E+04  0.24433173101E+04  0.88766415545E+02 0.  0.
         11    1    3    3    0    0  0.10499455800E+04  0.12069949393E+03 -0.12840258808E+04  0.16630323362E+04  0.00000000000E+00 0. -1.
        -11    1    3    3    0    0  0.49629180316E+03  0.11619291223E+03 -0.59079462913E+03  0.78028497394E+03  0.00000000000E+00 0.  1.
         22    1    1    2    0    0 -0.15462373831E+04 -0.23689240616E+03 -0.65912748936E+03  0.16974737419E+04  0.00000000000E+00 0. -1.
<mgrwt>
<rscale>  0 0.32749440E+04</rscale>
<asrwt>0</asrwt>
<pdfrwt beam="1">  1        2 0.51344147E+00 0.32749440E+04</pdfrwt>
<pdfrwt beam="2">  1       -2 0.12360331E+00 0.32749440E+04</pdfrwt>
<totfact> 0.43346294E-01</totfact>
</mgrwt>
</event>
<event>
 6    1  0.2325157E-005  0.1664357E+04  0.7818608E-02  0.8781958E-01
          2   -1    0    0  501    0  0.00000000000E+00  0.00000000000E+00  0.14787440976E+04  0.14787440976E+04  0.00000000000E+00 0.  1.
         -2   -1    0    0    0  501 -0.00000000000E+00 -0.00000000000E+00 -0.46831682604E+03  0.46831682604E+03  0.00000000000E+00 0. -1.
         23    2    1    2    0    0 -0.21183500119E+03  0.77339394515E+03  0.25869019895E+03  0.84791539712E+03  0.95013891163E+02 0.  0.
         11    1    3    3    0    0 -0.69766468207E+02  0.21026645259E+03  0.29235749900E+02  0.22345932570E+03  0.00000000000E+00 0.  1.
        -11    1    3    3    0    0 -0.14206853298E+03  0.56312749257E+03  0.22945444905E+03  0.62445607142E+03  0.00000000000E+00 0. -1.
         22    1    1    2    0    0  0.21183500119E+03 -0.77339394515E+03  0.75173707264E+03  0.10991455265E+04  0.00000000000E+00 0. -1.
<mgrwt>
<rscale>  0 0.16643566E+04</rscale>
<asrwt>0</asrwt>
<pdfrwt beam="1">  1        2 0.22749909E+00 0.16643566E+04</pdfrwt>
<pdfrwt beam="2">  1       -2 0.72048743E-01 0.16643566E+04</pdfrwt>
<totfact> 0.21728002E+01</totfact>
</mgrwt>
</event>
<event>
 6    1  0.2325157E-005  0.9671101E+03  0.7818608E-02  0.9345372E-01
         -2   -1    0    0    0  501 -0.00000000000E+00  0.00000000000E+00  0.28551751254E+03  0.28551751254E+03  0.00000000000E+00 0. -1.
          2   -1    0    0  501    0  0.00000000000E+00 -0.00000000000E+00 -0.81895318950E+03  0.81895318950E+03  0.00000000000E+00 0.  1.
         23    2    1    2    0    0  0.68580018400E+02  0.39999887847E+03  0.22344025505E+02  0.41628947636E+03  0.89974168214E+02 0.  0.
         13    1    3    3    0    0  0.40214339209E+02  0.27332547560E+03  0.56663096424E+02  0.28201899792E+03  0.00000000000E+00 0.  1.
        -13    1    3    3    0    0  0.28365679191E+02  0.12667340287E+03 -0.34319070920E+02  0.13427047844E+03  0.00000000000E+00 0. -1.
         22    1    1    2    0    0 -0.68580018400E+02 -0.39999887847E+03 -0.55577970246E+03  0.68818122568E+03  0.00000000000E+00 0. -1.
<mgrwt>
<rscale>  0 0.96711008E+03</rscale>
<asrwt>0</asrwt>
<pdfrwt beam="1">  1        2 0.12599280E+00 0.96711008E+03</pdfrwt>
<pdfrwt beam="2">  1       -2 0.43925771E-01 0.96711008E+03</pdfrwt>
<totfact> 0.16400188E+02</totfact>
</mgrwt>
</event>
<event>
 6    1  0.2325157E-005  0.2702014E+04  0.7818608E-02  0.8334352E-01
         -2   -1    0    0    0  501 -0.00000000000E+00  0.00000000000E+00  0.86427332897E+03  0.86427332897E+03  0.00000000000E+00 0.  1.
          2   -1    0    0  501    0  0.00000000000E+00 -0.00000000000E+00 -0.21118549104E+04  0.21118549104E+04  0.00000000000E+00 0. -1.
         23    2    1    2    0    0  0.61574483328E+03 -0.11924550791E+04 -0.76824592106E+03  0.15510480694E+04  0.12023935655E+03 0.  0.
         11    1    3    3    0    0  0.36890350564E+03 -0.82383768971E+03 -0.48503204794E+03  0.10247216320E+04  0.00000000000E+00 0. -1.
        -11    1    3    3    0    0  0.24684132764E+03 -0.36861738943E+03 -0.28321387313E+03  0.52632643744E+03  0.00000000000E+00 0.  1.
         22    1    1    2    0    0 -0.61574483328E+03  0.11924550791E+04 -0.47933566032E+03  0.14250801699E+04  0.00000000000E+00 0.  1.
<mgrwt>
<rscale>  0 0.27020140E+04</rscale>
<asrwt>0</asrwt>
<pdfrwt beam="1">  1        2 0.32490075E+00 0.27020140E+04</pdfrwt>
<pdfrwt beam="2">  1       -2 0.13296513E+00 0.27020140E+04</pdfrwt>
<totfact> 0.20816611E+00</totfact>
</mgrwt>
</event>
<event>
 6    1  0.2325157E-005  0.2260378E+04  0.7818608E-02  0.8493709E-01
         -2   -1    0    0    0  501 -0.00000000000E+00  0.00000000000E+00  0.69604804729E+03  0.69604804729E+03  0.00000000000E+00 0. -1.
          2   -1    0    0  501    0  0.00000000000E+00 -0.00000000000E+00 -0.18351137521E+04  0.18351137521E+04  0.00000000000E+00 0.  1.
         23    2    1    2    0    0  0.36167269798E+03 -0.77854208054E+03 -0.13905454743E+04  0.16366356756E+04  0.89580728406E+02 0.  0.
         13    1    3    3    0    0  0.30830901782E+03 -0.63878219238E+03 -0.12054222111E+04  0.13986206944E+04  0.00000000000E+00 0. -1.
        -13    1    3    3    0    0  0.53363680164E+02 -0.13975988816E+03 -0.18512326319E+03  0.23801498119E+03  0.00000000000E+00 0.  1.
         22    1    1    2    0    0 -0.36167269798E+03  0.77854208054E+03  0.25147976951E+03  0.89452612377E+03  0.00000000000E+00 0. -1.
<mgrwt>
<rscale>  0 0.22603781E+04</rscale>
<asrwt>0</asrwt>
<pdfrwt beam="1">  1        2 0.28232519E+00 0.22603781E+04</pdfrwt>
<pdfrwt beam="2">  1       -2 0.10708432E+00 0.22603781E+04</pdfrwt>
<totfact> 0.52610932E+00</totfact>
</mgrwt>
</event>
<event>
 6    1  0.2325157E-005  0.2910270E+04  0.7818608E-02  0.8269828E-01
         -2   -1    0    0    0  501 -0.00000000000E+00  0.00000000000E+00  0.19393779094E+04  0.19393779094E+04  0.00000000000E+00 0. -1.
          2   -1    0    0  501    0  0.00000000000E+00 -0.00000000000E+00 -0.10918027527E+04  0.10918027527E+04  0.00000000000E+00 0.  1.
         23    2    1    2    0    0 -0.10445882531E+04 -0.72152910616E+03  0.11616929886E+04  0.17233431792E+04  0.92802175429E+02 0.  0.
         13    1    3    3    0    0 -0.59149850277E+02 -0.61114780134E+02  0.10080235649E+03  0.13188948484E+03  0.00000000000E+00 0. -1.
        -13    1    3    3    0    0 -0.98543840284E+03 -0.66041432603E+03  0.10608906321E+04  0.15914536943E+04  0.00000000000E+00 0.  1.
         22    1    1    2    0    0  0.10445882531E+04  0.72152910616E+03 -0.31411783192E+03  0.13078374830E+04  0.00000000000E+00 0.  1.
<mgrwt>
<rscale>  0 0.29102702E+04</rscale>
<asrwt>0</asrwt>
<pdfrwt beam="1">  1        2 0.16796965E+00 0.29102702E+04</pdfrwt>
<pdfrwt beam="2">  1       -2 0.29836583E+00 0.29102702E+04</pdfrwt>
<totfact> 0.61818419E-01</totfact>
</mgrwt>
</event>
<event>
 6    1  0.2325157E-005  0.6318262E+03  0.7818608E-02  0.9841492E-01
         -2   -1    0    0    0  501 -0.00000000000E+00  0.00000000000E+00  0.12779541761E+03  0.12779541761E+03  0.00000000000E+00 0. -1.
          2   -1    0    0  501    0  0.00000000000E+00 -0.00000000000E+00 -0.78094406891E+03  0.78094406891E+03  0.00000000000E+00 0.  1.
         23    2    1    2    0    0  0.15370057501E+03 -0.26822250668E+03 -0.35799375877E+03  0.48132447692E+03  0.89143372845E+02 0.  0.
         11    1    3    3    0    0  0.21066907201E+02 -0.30763127352E+01 -0.47335524096E+02  0.51903083921E+02  0.00000000000E+00 0. -1.
        -11    1    3    3    0    0  0.13263366780E+03 -0.26514619395E+03 -0.31065823467E+03  0.42942139300E+03  0.00000000000E+00 0.  1.
         22    1    1    2    0    0 -0.15370057501E+03  0.26822250668E+03 -0.29515489252E+03  0.42741500960E+03  0.00000000000E+00 0. -1.
<mgrwt>
<rscale>  0 0.63182616E+03</rscale>
<asrwt>0</asrwt>
<pdfrwt beam="1">  1        2 0.12014524E+00 0.63182616E+03</pdfrwt>
<pdfrwt beam="2">  1       -2 0.19660833E-01 0.63182616E+03</pdfrwt>
<totfact> 0.78651852E+02</totfact>
</mgrwt>
</event>
<event>
 6    1  0.2325157E-005  0.1371430E+04  0.7818608E-02  0.8974762E-01
          2   -1    0    0  501    0  0.00000000000E+00  0.00000000000E+00  0.28454492116E+04  0.28454492116E+04  0.00000000000E+00 0.  1.
         -2   -1    0    0    0  501 -0.00000000000E+00 -0.00000000000E+00 -0.16524818420E+03  0.16524818420E+03  0.00000000000E+00 0. -1.
         23    2    1    2    0    0 -0.43255617764E+03 -0.63959547671E+01  0.25049912876E+04  0.25439595594E+04  0.97995580650E+02 0.  0.
         11    1    3    3    0    0 -0.17056750351E+03  0.33181181052E+02  0.11811386934E+04  0.11938521169E+04  0.00000000000E+00 0. -1.
        -11    1    3    3    0    0 -0.26198867412E+03 -0.39577135819E+02  0.13238525942E+04  0.13501074425E+04  0.00000000000E+00 0.  1.
         22    1    1    2    0    0  0.43255617764E+03  0.63959547671E+01  0.17520973988E+03  0.46673783648E+03  0.00000000000E+00 0. -1.
<mgrwt>
<rscale>  0 0.13714304E+04</rscale>
<asrwt>0</asrwt>
<pdfrwt beam="1">  1        2 0.43776138E+00 0.13714304E+04</pdfrwt>
<pdfrwt beam="2">  1       -2 0.25422800E-01 0.13714304E+04</pdfrwt>
<totfact> 0.29676040E+01</totfact>
</mgrwt>
</event>
<event>
 6    1  0.2325157E-005  0.2576022E+04  0.7818608E-02  0.8376392E-01
         -2   -1    0    0    0  501 -0.00000000000E+00  0.00000000000E+00  0.84691084688E+03  0.84691084688E+03  0.00000000000E+00 0. -1.
          2   -1    0    0  501    0  0.00000000000E+00 -0.00000000000E+00 -0.19588508703E+04  0.19588508703E+04  0.00000000000E+00 0.  1.
         23    2    1    2    0    0  0.95836116930E+03 -0.31664319940E+03 -0.14252768377E+04  0.17489272904E+04  0.92809246367E+02 0.  0.
         13    1    3    3    0    0  0.76762793181E+03 -0.28582052807E+03 -0.11863621939E+04  0.14416661441E+04  0.00000000000E+00 0. -1.
        -13    1    3    3    0    0  0.19073323749E+03 -0.30822671330E+02 -0.23891464384E+03  0.30726114624E+03  0.00000000000E+00 0.  1.
         22    1    1    2    0    0 -0.95836116930E+03  0.31664319940E+03  0.31333681431E+03  0.10568344268E+04  0.00000000000E+00 0. -1.
<mgrwt>
<rscale>  0 0.25760218E+04</rscale>
<asrwt>0</asrwt>
<pdfrwt beam="1">  1        2 0.30136167E+00 0.25760218E+04</pdfrwt>
<pdfrwt beam="2">  1       -2 0.13029398E+00 0.25760218E+04</pdfrwt>
<totfact> 0.26956065E+00</totfact>
</mgrwt>
</event>
<event>
 6    1  0.2325157E-005  0.2639620E+04  0.7818608E-02  0.8354866E-01
          2   -1    0    0  501    0  0.00000000000E+00  0.00000000000E+00  0.99893792037E+03  0.99893792037E+03  0.00000000000E+00 0.  1.
         -2   -1    0    0    0  501 -0.00000000000E+00 -0.00000000000E+00 -0.17437509711E+04  0.17437509711E+04  0.00000000000E+00 0. -1.
         23    2    1    2    0    0 -0.99113892533E+03 -0.68266271927E+03 -0.93182574172E+03  0.15247568309E+04  0.90550665010E+02 0.  0.
         11    1    3    3    0    0 -0.76407283918E+03 -0.51402694837E+03 -0.75843022697E+03  0.11929993363E+04  0.00000000000E+00 0.  1.
        -11    1    3    3    0    0 -0.22706608615E+03 -0.16863577090E+03 -0.17339551475E+03  0.33175749463E+03  0.00000000000E+00 0. -1.
         22    1    1    2    0    0  0.99113892533E+03  0.68266271927E+03  0.18701269097E+03  0.12179320606E+04  0.00000000000E+00 0.  1.
<mgrwt>
<rscale>  0 0.26396204E+04</rscale>
<asrwt>0</asrwt>
<pdfrwt beam="1">  1        2 0.15368276E+00 0.26396204E+04</pdfrwt>
<pdfrwt beam="2">  1       -2 0.26826938E+00 0.26396204E+04</pdfrwt>
<totfact> 0.11045637E+00</totfact>
</mgrwt>
</event>
<event>
 6    1  0.2325157E-005  0.9475367E+03  0.7818608E-02  0.9368034E-01
          2   -1    0    0  501    0  0.00000000000E+00  0.00000000000E+00  0.25767449906E+04  0.25767449906E+04  0.00000000000E+00 0.  1.
         -2   -1    0    0    0  501 -0.00000000000E+00 -0.00000000000E+00 -0.87108523676E+02  0.87108523676E+02  0.00000000000E+00 0. -1.
         23    2    1    2    0    0  0.44636778932E+03  0.25246005518E+02  0.85587940922E+03  0.97002834982E+03  0.92433068764E+02 0.  0.
         13    1    3    3    0    0  0.32036697271E+03  0.46539214250E+02  0.67437023680E+03  0.74804820162E+03  0.00000000000E+00 0.  1.
        -13    1    3    3    0    0  0.12600081661E+03 -0.21293208732E+02  0.18150917242E+03  0.22198014820E+03  0.00000000000E+00 0. -1.
         22    1    1    2    0    0 -0.44636778932E+03 -0.25246005518E+02  0.16337570577E+04  0.16938251644E+04  0.00000000000E+00 0.  1.
<mgrwt>
<rscale>  0 0.94753671E+03</rscale>
<asrwt>0</asrwt>
<pdfrwt beam="1">  1        2 0.39642225E+00 0.94753671E+03</pdfrwt>
<pdfrwt beam="2">  1       -2 0.13401313E-01 0.94753671E+03</pdfrwt>
<totfact> 0.13568286E+02</totfact>
</mgrwt>
</event>
<event>
 6    1  0.2325157E-005  0.1831708E+04  0.7818608E-02  0.8689617E-01
         -2   -1    0    0    0  501 -0.00000000000E+00  0.00000000000E+00  0.70214300435E+03  0.70214300435E+03  0.00000000000E+00 0. -1.
          2   -1    0    0  501    0  0.00000000000E+00 -0.00000000000E+00 -0.11946116416E+04  0.11946116416E+04  0.00000000000E+00 0.  1.
         23    2    1    2    0    0  0.11439898814E+03 -0.68856385050E+03 -0.85719805632E+03  0.11092047403E+04  0.91320006181E+02 0.  0.
         13    1    3    3    0    0  0.51900114238E+02 -0.10780923869E+03 -0.13617297044E+03  0.18127198262E+03  0.00000000000E+00 0. -1.
        -13    1    3    3    0    0  0.62498873902E+02 -0.58075461182E+03 -0.72102508589E+03  0.92793275773E+03  0.00000000000E+00 0.  1.
         22    1    1    2    0    0 -0.11439898814E+03  0.68856385050E+03  0.36472941907E+03  0.78754990562E+03  0.00000000000E+00 0. -1.
<mgrwt>
<rscale>  0 0.18317076E+04</rscale>
<asrwt>0</asrwt>
<pdfrwt beam="1">  1        2 0.18378641E+00 0.18317076E+04</pdfrwt>
<pdfrwt beam="2">  1       -2 0.10802200E+00 0.18317076E+04</pdfrwt>
<totfact> 0.12338283E+01</totfact>
</mgrwt>
</event>
<event>
 6    1  0.2325157E-005  0.2035292E+04  0.7818608E-02  0.8590296E-01
          2   -1    0    0  501    0  0.00000000000E+00  0.00000000000E+00  0.26298516477E+04  0.26298516477E+04  0.00000000000E+00 0.  1.
         -2   -1    0    0    0  501 -0.00000000000E+00 -0.00000000000E+00 -0.39378769894E+03  0.39378769894E+03  0.00000000000E+00 0. -1.
         23    2    1    2    0    0  0.98804718315E+03 -0.18803895886E+03  0.91125259247E+03  0.13602930159E+04  0.91760098416E+02 0.  0.
         11    1    3    3    0    0  0.25545962388E+03 -0.80453392742E+02  0.27746585173E+03  0.38564188921E+03  0.00000000000E+00 0. -1.
        -11    1    3    3    0    0  0.73258755928E+03 -0.10758556612E+03  0.63378674074E+03  0.97465112670E+03  0.00000000000E+00 0.  1.
         22    1    1    2    0    0 -0.98804718315E+03  0.18803895886E+03  0.13248113563E+04  0.16633463307E+04  0.00000000000E+00 0. -1.
<mgrwt>
<rscale>  0 0.20352919E+04</rscale>
<asrwt>0</asrwt>
<pdfrwt beam="1">  1        2 0.40459255E+00 0.20352919E+04</pdfrwt>
<pdfrwt beam="2">  1       -2 0.60582725E-01 0.20352919E+04</pdfrwt>
<totfact> 0.68753669E+00</totfact>
</mgrwt>
</event>
<event>
 6    1  0.2325157E-005  0.2952596E+04  0.7818608E-02  0.8257398E-01
         -2   -1    0    0    0  501 -0.00000000000E+00  0.00000000000E+00  0.13702145960E+04  0.13702145960E+04  0.00000000000E+00 0. -1.
          2   -1    0    0  501    0  0.00000000000E+00 -0.00000000000E+00 -0.15905944272E+04  0.15905944272E+04  0.00000000000E+00 0.  1.
         23    2    1    2    0    0 -0.62505726790E+03 -0.60533755964E+03  0.10843746437E+04  0.13925251239E+04  0.78279648978E+02 0.  0.
         11    1    3    3    0    0 -0.38075758813E+03 -0.41814123341E+03  0.72084509357E+03  0.91620744426E+03  0.00000000000E+00 0. -1.
        -11    1    3    3    0    0 -0.24429967977E+03 -0.18719632623E+03  0.36352955013E+03  0.47631767961E+03  0.00000000000E+00 0.  1.
         22    1    1    2    0    0  0.62505726790E+03  0.60533755964E+03 -0.13047544748E+04  0.15682838993E+04  0.00000000000E+00 0.  1.
<mgrwt>
<rscale>  0 0.29525959E+04</rscale>
<asrwt>0</asrwt>
<pdfrwt beam="1">  1        2 0.24470684E+00 0.29525959E+04</pdfrwt>
<pdfrwt beam="2">  1       -2 0.21080224E+00 0.29525959E+04</pdfrwt>
<totfact> 0.10977532E+00</totfact>
</mgrwt>
</event>
<event>
 6    1  0.2325157E-005  0.3896898E+04  0.7818608E-02  0.8025675E-01
          2   -1    0    0  501    0  0.00000000000E+00  0.00000000000E+00  0.18735066563E+04  0.18735066563E+04  0.00000000000E+00 0.  1.
         -2   -1    0    0    0  501 -0.00000000000E+00 -0.00000000000E+00 -0.20263889297E+04  0.20263889297E+04  0.00000000000E+00 0. -1.
         23    2    1    2    0    0  0.15939807578E+04 -0.74740170747E+03 -0.90970806576E+03  0.19836050943E+04  0.87957015093E+02 0.  0.
         11    1    3    3    0    0  0.49165276711E+03 -0.27393480517E+03 -0.30368172401E+03  0.63951959344E+03  0.00000000000E+00 0. -1.
        -11    1    3    3    0    0  0.11023279907E+04 -0.47346690229E+03 -0.60602634175E+03  0.13440855008E+04  0.00000000000E+00 0.  1.
         22    1    1    2    0    0 -0.15939807578E+04  0.74740170747E+03  0.75682579240E+03  0.19162904917E+04  0.00000000000E+00 0. -1.
<mgrwt>
<rscale>  0 0.38968978E+04</rscale>
<asrwt>0</asrwt>
<pdfrwt beam="1">  1        2 0.28823179E+00 0.38968978E+04</pdfrwt>
<pdfrwt beam="2">  1       -2 0.31175214E+00 0.38968978E+04</pdfrwt>
<totfact> 0.16819305E-01</totfact>
</mgrwt>
</event>
<event>
 6    1  0.2325157E-005  0.4348385E+03  0.7818608E-02  0.1032342E+00
          2   -1    0    0  501    0  0.00000000000E+00  0.00000000000E+00  0.13780365776E+04  0.13780365776E+04  0.00000000000E+00 0.  1.
         -2   -1    0    0    0  501 -0.00000000000E+00 -0.00000000000E+00 -0.34303247973E+02  0.34303247973E+02  0.00000000000E+00 0. -1.
         23    2    1    2    0    0  0.17668051984E+03  0.17590629079E+02  0.34736319040E+03  0.40027318218E+03  0.89621414887E+02 0.  0.
         13    1    3    3    0    0  0.12463522062E+03 -0.12703619000E+02  0.15845236661E+03  0.20199621937E+03  0.00000000000E+00 0.  1.
        -13    1    3    3    0    0  0.52045299222E+02  0.30294248080E+02  0.18891082379E+03  0.19827696282E+03  0.00000000000E+00 0. -1.
         22    1    1    2    0    0 -0.17668051984E+03 -0.17590629079E+02  0.99637013918E+03  0.10120666433E+04  0.00000000000E+00 0.  1.
<mgrwt>
<rscale>  0 0.43483850E+03</rscale>
<asrwt>0</asrwt>
<pdfrwt beam="1">  1        2 0.21200558E+00 0.43483850E+03</pdfrwt>
<pdfrwt beam="2">  1       -2 0.52774238E-02 0.43483850E+03</pdfrwt>
<totfact> 0.28646960E+03</totfact>
</mgrwt>
</event>
<event>
 6    1  0.2325157E-005  0.1561853E+04  0.7818608E-02  0.8844332E-01
         -1   -1    0    0    0  501 -0.00000000000E+00  0.00000000000E+00  0.69891472385E+03  0.69891472385E+03  0.00000000000E+00 0. -1.
          1   -1    0    0  501    0  0.00000000000E+00 -0.00000000000E+00 -0.87256111647E+03  0.87256111647E+03  0.00000000000E+00 0.  1.
         23    2    1    2    0    0 -0.43627931785E+03  0.24212685151E+03 -0.68785068897E+03  0.85497663322E+03  0.94241273530E+02 0.  0.
         13    1    3    3    0    0 -0.16562973911E+03  0.58686603226E+02 -0.18478153331E+03  0.25499322133E+03  0.00000000000E+00 0. -1.
        -13    1    3    3    0    0 -0.27064957874E+03  0.18344024829E+03 -0.50306915566E+03  0.59998341189E+03  0.00000000000E+00 0.  1.
         22    1    1    2    0    0  0.43627931785E+03 -0.24212685151E+03  0.51420429634E+03  0.71649920711E+03  0.00000000000E+00 0. -1.
<mgrwt>
<rscale>  0 0.15618525E+04</rscale>
<asrwt>0</asrwt>
<pdfrwt beam="1">  1        1 0.13424017E+00 0.15618525E+04</pdfrwt>
<pdfrwt beam="2">  1       -1 0.10752534E+00 0.15618525E+04</pdfrwt>
<totfact> 0.14865536E+01</totfact>
</mgrwt>
</event>
<event>
 6    1  0.2325157E-005  0.5957875E+03  0.7818608E-02  0.9914184E-01
         -2   -1    0    0    0  501 -0.00000000000E+00  0.00000000000E+00  0.20415864897E+03  0.20415864897E+03  0.00000000000E+00 0. -1.
          2   -1    0    0  501    0  0.00000000000E+00 -0.00000000000E+00 -0.43466526121E+03  0.43466526121E+03  0.00000000000E+00 0.  1.
         23    2    1    2    0    0 -0.13955689007E+03 -0.11151607157E+03 -0.36419079537E+03  0.41570192425E+03  0.90891114054E+02 0.  0.
         11    1    3    3    0    0 -0.65307159178E+02 -0.99970989617E+02 -0.17239998981E+03  0.20971642828E+03  0.00000000000E+00 0.  1.
        -11    1    3    3    0    0 -0.74249730891E+02 -0.11545081955E+02 -0.19179080555E+03  0.20598549597E+03  0.00000000000E+00 0. -1.
         22    1    1    2    0    0  0.13955689007E+03  0.11151607157E+03  0.13368418312E+03  0.22312198592E+03  0.00000000000E+00 0. -1.
<mgrwt>
<rscale>  0 0.59578745E+03</rscale>
<asrwt>0</asrwt>
<pdfrwt beam="1">  1        2 0.66871579E-01 0.59578745E+03</pdfrwt>
<pdfrwt beam="2">  1       -2 0.31409023E-01 0.59578745E+03</pdfrwt>
<totfact> 0.68463353E+02</totfact>
</mgrwt>
</event>
<event>
 6    1  0.2325157E-005  0.2478855E+04  0.7818608E-02  0.8410557E-01
          2   -1    0    0  501    0  0.00000000000E+00  0.00000000000E+00  0.15054414479E+04  0.15054414479E+04  0.00000000000E+00 0.  1.
         -2   -1    0    0    0  501 -0.00000000000E+00 -0.00000000000E+00 -0.10204186440E+04  0.10204186440E+04  0.00000000000E+00 0. -1.
         23    2    1    2    0    0 -0.11963910143E+04 -0.20620831131E+03  0.48877698657E+03  0.13118224398E+04  0.90010244307E+02 0.  0.
         13    1    3    3    0    0 -0.90234360565E+03 -0.17925993120E+03  0.40268950966E+03  0.10042494445E+04  0.00000000000E+00 0.  1.
        -13    1    3    3    0    0 -0.29404740866E+03 -0.26948380101E+02  0.86087476904E+02  0.30757299526E+03  0.00000000000E+00 0. -1.
         22    1    1    2    0    0  0.11963910143E+04  0.20620831131E+03 -0.37541826367E+01  0.12140376521E+04  0.00000000000E+00 0. -1.
<mgrwt>
<rscale>  0 0.24788550E+04</rscale>
<asrwt>0</asrwt>
<pdfrwt beam="1">  1        2 0.23160638E+00 0.24788550E+04</pdfrwt>
<pdfrwt beam="2">  1       -2 0.15698748E+00 0.24788550E+04</pdfrwt>
<totfact> 0.29873659E+00</totfact>
</mgrwt>
</event>
<event>
 6    1  0.2325157E-005  0.2262740E+04  0.7818608E-02  0.8492759E-01
         -2   -1    0    0    0  501 -0.00000000000E+00  0.00000000000E+00  0.28718190772E+04  0.28718190772E+04  0.00000000000E+00 0. -1.
          2   -1    0    0  501    0  0.00000000000E+00 -0.00000000000E+00 -0.44570990023E+03  0.44570990023E+03  0.00000000000E+00 0.  1.
         23    2    1    2    0    0 -0.11758709927E+03 -0.33780938462E+03  0.27858363458E+04  0.28102366137E+04  0.92756526465E+02 0.  0.
         11    1    3    3    0    0 -0.30225445176E+02 -0.27251728798E+02  0.51397431323E+03  0.51558299906E+03  0.00000000000E+00 0.  1.
        -11    1    3    3    0    0 -0.87361654098E+02 -0.31055765582E+03  0.22718620325E+04  0.22946536146E+04  0.00000000000E+00 0. -1.
         22    1    1    2    0    0  0.11758709927E+03  0.33780938462E+03 -0.35972716885E+03  0.50729236369E+03  0.00000000000E+00 0.  1.
<mgrwt>
<rscale>  0 0.22627401E+04</rscale>
<asrwt>0</asrwt>
<pdfrwt beam="1">  1        2 0.68570756E-01 0.22627401E+04</pdfrwt>
<pdfrwt beam="2">  1       -2 0.44181831E+00 0.22627401E+04</pdfrwt>
<totfact> 0.25148053E-01</totfact>
</mgrwt>
</event>
<event>
 6    1  0.2325157E-005  0.2378590E+04  0.7818608E-02  0.8447563E-01
          2   -1    0    0  501    0  0.00000000000E+00  0.00000000000E+00  0.25183019851E+04  0.25183019851E+04  0.00000000000E+00 0.  1.
         -2   -1    0    0    0  501 -0.00000000000E+00 -0.00000000000E+00 -0.56165724313E+03  0.56165724313E+03  0.00000000000E+00 0. -1.
         23    2    1    2    0    0 -0.38453609925E+03 -0.88234675277E+03  0.18804644643E+04  0.21144504306E+04  0.91379527069E+02 0.  0.
         11    1    3    3    0    0 -0.92973770976E+01 -0.19236039384E+02  0.80465687673E+02  0.83253788651E+02  0.00000000000E+00 0.  1.
        -11    1    3    3    0    0 -0.37523872216E+03 -0.86311071339E+03  0.17999987767E+04  0.20311966419E+04  0.00000000000E+00 0. -1.
         22    1    1    2    0    0  0.38453609925E+03  0.88234675277E+03  0.76180277686E+02  0.96550879772E+03  0.00000000000E+00 0. -1.
<mgrwt>
<rscale>  0 0.23785900E+04</rscale>
<asrwt>0</asrwt>
<pdfrwt beam="1">  1        2 0.38743107E+00 0.23785900E+04</pdfrwt>
<pdfrwt beam="2">  1       -2 0.86408808E-01 0.23785900E+04</pdfrwt>
<totfact> 0.35508728E+00</totfact>
</mgrwt>
</event>
<event>
 6    1  0.2325157E-005  0.6328822E+03  0.7818608E-02  0.9839440E-01
          2   -1    0    0  501    0  0.00000000000E+00  0.00000000000E+00  0.59215105700E+03  0.59215105700E+03  0.00000000000E+00 0.  1.
         -2   -1    0    0    0  501 -0.00000000000E+00 -0.00000000000E+00 -0.16910375959E+03  0.16910375959E+03  0.00000000000E+00 0. -1.
         23    2    1    2    0    0  0.25127077360E+03 -0.89656124622E+02  0.40539772516E+03  0.49388479257E+03  0.91649606799E+02 0.  0.
         11    1    3    3    0    0  0.21758298185E+03 -0.76222935849E+02  0.27662466421E+03  0.36010206163E+03  0.00000000000E+00 0.  1.
        -11    1    3    3    0    0  0.33687791747E+02 -0.13433188773E+02  0.12877306094E+03  0.13378273094E+03  0.00000000000E+00 0. -1.
         22    1    1    2    0    0 -0.25127077360E+03  0.89656124622E+02  0.17649572250E+02  0.26737002402E+03  0.00000000000E+00 0.  1.
<mgrwt>
<rscale>  0 0.63288220E+03</rscale>
<asrwt>0</asrwt>
<pdfrwt beam="1">  1        2 0.91100162E-01 0.63288220E+03</pdfrwt>
<pdfrwt beam="2">  1       -2 0.26015963E-01 0.63288220E+03</pdfrwt>
<totfact> 0.67561253E+02</totfact>
</mgrwt>
</event>
<event>
 6    1  0.2325157E-005  0.2443094E+04  0.7818608E-02  0.8423544E-01
          2   -1    0    0  501    0  0.00000000000E+00  0.00000000000E+00  0.24068648166E+04  0.24068648166E+04  0.00000000000E+00 0.  1.
         -2   -1    0    0    0  501 -0.00000000000E+00 -0.00000000000E+00 -0.61996704472E+03  0.61996704472E+03  0.00000000000E+00 0. -1.
         23    2    1    2    0    0  0.10949177280E+04 -0.72732160021E+02  0.23451521001E+03  0.11257725733E+04  0.90728743609E+02 0.  0.
         13    1    3    3    0    0  0.39154703705E+03 -0.58289730522E+02  0.11451425267E+03  0.41209257330E+03  0.00000000000E+00 0.  1.
        -13    1    3    3    0    0  0.70337069094E+03 -0.14442429499E+02  0.12000095734E+03  0.71368000001E+03  0.00000000000E+00 0. -1.
         22    1    1    2    0    0 -0.10949177280E+04  0.72732160021E+02  0.15523825619E+04  0.19010592880E+04  0.00000000000E+00 0.  1.
<mgrwt>
<rscale>  0 0.24430938E+04</rscale>
<asrwt>0</asrwt>
<pdfrwt beam="1">  1        2 0.37028689E+00 0.24430938E+04</pdfrwt>
<pdfrwt beam="2">  1       -2 0.95379547E-01 0.24430938E+04</pdfrwt>
<totfact> 0.32590341E+00</totfact>
</mgrwt>
</event>
<event>
 6    1  0.2325157E-005  0.4835203E+04  0.7818608E-02  0.7854444E-01
          2   -1    0    0  501    0  0.00000000000E+00  0.00000000000E+00  0.31945753787E+04  0.31945753787E+04  0.00000000000E+00 0.  1.
         -2   -1    0    0    0  501 -0.00000000000E+00 -0.00000000000E+00 -0.18296007697E+04  0.18296007697E+04  0.00000000000E+00 0. -1.
         23    2    1    2    0    0  0.11242517296E+03  0.12118944852E+04 -0.14868113155E+04  0.19235293414E+04  0.89607903571E+02 0.  0.
         11    1    3    3    0    0  0.41332718744E+02  0.84123313444E+03 -0.10570761473E+04  0.13515885326E+04  0.00000000000E+00 0.  1.
        -11    1    3    3    0    0  0.71092454212E+02  0.37066135077E+03 -0.42973516819E+03  0.57194080881E+03  0.00000000000E+00 0. -1.
         22    1    1    2    0    0 -0.11242517296E+03 -0.12118944852E+04  0.28517859245E+04  0.31006468070E+04  0.00000000000E+00 0.  1.
<mgrwt>
<rscale>  0 0.48352032E+04</rscale>
<asrwt>0</asrwt>
<pdfrwt beam="1">  1        2 0.49147313E+00 0.48352032E+04</pdfrwt>
<pdfrwt beam="2">  1       -2 0.28147704E+00 0.48352032E+04</pdfrwt>
<totfact> 0.39738427E-02</totfact>
</mgrwt>
</event>
<event>
 6    1  0.2325157E-005  0.2508794E+04  0.7818608E-02  0.8399859E-01
          2   -1    0    0  501    0  0.00000000000E+00  0.00000000000E+00  0.12709834214E+04  0.12709834214E+04  0.00000000000E+00 0.  1.
         -2   -1    0    0    0  501 -0.00000000000E+00 -0.00000000000E+00 -0.12380270104E+04  0.12380270104E+04  0.00000000000E+00 0. -1.
         23    2    1    2    0    0  0.10539401668E+04 -0.17938859251E+02  0.69337918853E+03  0.12651173806E+04  0.92927981221E+02 0.  0.
         13    1    3    3    0    0  0.88511781803E+03  0.18771515521E+02  0.58644112602E+03  0.10619317849E+04  0.00000000000E+00 0. -1.
        -13    1    3    3    0    0  0.16882234876E+03 -0.36710374772E+02  0.10693806251E+03  0.20318559562E+03  0.00000000000E+00 0.  1.
         22    1    1    2    0    0 -0.10539401668E+04  0.17938859251E+02 -0.66042277758E+03  0.12438930513E+04  0.00000000000E+00 0. -1.
<mgrwt>
<rscale>  0 0.25087940E+04</rscale>
<asrwt>0</asrwt>
<pdfrwt beam="1">  1        2 0.19553591E+00 0.25087940E+04</pdfrwt>
<pdfrwt beam="2">  1       -2 0.19046569E+00 0.25087940E+04</pdfrwt>
<totfact> 0.23578791E+00</totfact>
</mgrwt>
</event>
<event>
 6    1  0.2325157E-005  0.1940934E+04  0.7818608E-02  0.8634745E-01
          1   -1    0    0  501    0  0.00000000000E+00  0.00000000000E+00  0.19739305587E+04  0.19739305587E+04  0.00000000000E+00 0.  1.
         -1   -1    0    0    0  501 -0.00000000000E+00 -0.00000000000E+00 -0.47712213020E+03  0.47712213020E+03  0.00000000000E+00 0. -1.
         23    2    1    2    0    0  0.23073265166E+03  0.29117119219E+03  0.18792392364E+04  0.19178814758E+04  0.93332888739E+02 0.  0.
         13    1    3    3    0    0  0.14839847453E+03  0.11268621011E+03  0.88694600893E+03  0.90630762545E+03  0.00000000000E+00 0.  1.
        -13    1    3    3    0    0  0.82334177123E+02  0.17848498207E+03  0.99229322742E+03  0.10115738504E+04  0.00000000000E+00 0. -1.
         22    1    1    2    0    0 -0.23073265166E+03 -0.29117119219E+03 -0.38243080784E+03  0.53317121311E+03  0.00000000000E+00 0. -1.
<mgrwt>
<rscale>  0 0.19409337E+04</rscale>
<asrwt>0</asrwt>
<pdfrwt beam="1">  1        1 0.30368162E+00 0.19409337E+04</pdfrwt>
<pdfrwt beam="2">  1       -1 0.73403406E-01 0.19409337E+04</pdfrwt>
<totfact> 0.54118017E+00</totfact>
</mgrwt>
</event>
<event>
 6    1  0.2325157E-005  0.2515113E+04  0.7818608E-02  0.8397621E-01
          2   -1    0    0  501    0  0.00000000000E+00  0.00000000000E+00  0.24347273789E+04  0.24347273789E+04  0.00000000000E+00 0.  1.
         -2   -1    0    0    0  501 -0.00000000000E+00 -0.00000000000E+00 -0.64953813865E+03  0.64953813865E+03  0.00000000000E+00 0. -1.
         23    2    1    2    0    0  0.83582994596E+02 -0.84156203224E+03 -0.24502936478E+03  0.88494736064E+03  0.88767507588E+02 0.  0.
         11    1    3    3    0    0 -0.22925756608E+01 -0.27801238600E+03 -0.11090621257E+03  0.29932646167E+03  0.00000000000E+00 0. -1.
        -11    1    3    3    0    0  0.85875570256E+02 -0.56354964625E+03 -0.13412315222E+03  0.58562089897E+03  0.00000000000E+00 0.  1.
         22    1    1    2    0    0 -0.83582994596E+02  0.84156203224E+03  0.20302186050E+04  0.21993181569E+04  0.00000000000E+00 0.  1.
<mgrwt>
<rscale>  0 0.25151130E+04</rscale>
<asrwt>0</asrwt>
<pdfrwt beam="1">  1        2 0.37457344E+00 0.25151130E+04</pdfrwt>
<pdfrwt beam="2">  1       -2 0.99928946E-01 0.25151130E+04</pdfrwt>
<totfact> 0.27979965E+00</totfact>
</mgrwt>
</event>
<event>
 6    1  0.2325157E-005  0.1886501E+04  0.7818608E-02  0.8661605E-01
          2   -1    0    0  501    0  0.00000000000E+00  0.00000000000E+00  0.22606981396E+04  0.22606981396E+04  0.00000000000E+00 0.  1.
         -2   -1    0    0    0  501 -0.00000000000E+00 -0.00000000000E+00 -0.39356039072E+03  0.39356039072E+03  0.00000000000E+00 0. -1.
         23    2    1    2    0    0 -0.34900495247E+03  0.47000154129E+03 -0.10098751991E+03  0.60091419015E+03  0.90517838531E+02 0.  0.
         11    1    3    3    0    0 -0.35904393763E+02  0.14298977331E+02  0.11346757280E+01  0.38663597003E+02  0.00000000000E+00 0.  1.
        -11    1    3    3    0    0 -0.31310055870E+03  0.45570256396E+03 -0.10212219564E+03  0.56225059315E+03  0.00000000000E+00 0. -1.
         22    1    1    2    0    0  0.34900495247E+03 -0.47000154129E+03  0.19681252688E+04  0.20533443402E+04  0.00000000000E+00 0.  1.
<mgrwt>
<rscale>  0 0.18865007E+04</rscale>
<asrwt>0</asrwt>
<pdfrwt beam="1">  1        2 0.34779971E+00 0.18865007E+04</pdfrwt>
<pdfrwt beam="2">  1       -2 0.60547753E-01 0.18865007E+04</pdfrwt>
<totfact> 0.11370043E+01</totfact>
</mgrwt>
</event>
<event>
 6    1  0.2325157E-005  0.9068170E+03  0.7818608E-02  0.9417100E-01
         -2   -1    0    0    0  501 -0.00000000000E+00  0.00000000000E+00  0.54729794572E+03  0.54729794572E+03  0.00000000000E+00 0. -1.
          2   -1    0    0  501    0  0.00000000000E+00 -0.00000000000E+00 -0.37562583562E+03  0.37562583562E+03  0.00000000000E+00 0.  1.
         23    2    1    2    0    0 -0.17057591488E+03  0.56265163352E+02  0.50527245039E+03  0.54404240361E+03  0.91760429696E+02 0.  0.
         11    1    3    3    0    0 -0.12380230959E+03 -0.78212979801E-01  0.25819691103E+03  0.28634360975E+03  0.00000000000E+00 0.  1.
        -11    1    3    3    0    0 -0.46773605289E+02  0.56343376332E+02  0.24707553936E+03  0.25769879387E+03  0.00000000000E+00 0. -1.
         22    1    1    2    0    0  0.17057591488E+03 -0.56265163352E+02 -0.33360034030E+03  0.37888137773E+03  0.00000000000E+00 0.  1.
<mgrwt>
<rscale>  0 0.90681696E+03</rscale>
<asrwt>0</asrwt>
<pdfrwt beam="1">  1        2 0.57788590E-01 0.90681696E+03</pdfrwt>
<pdfrwt beam="2">  1       -2 0.84199685E-01 0.90681696E+03</pdfrwt>
<totfact> 0.10546251E+02</totfact>
</mgrwt>
</event>
<event>
 6    1  0.2325157E-005  0.4309562E+04  0.7818608E-02  0.7944852E-01
          2   -1    0    0  501    0  0.00000000000E+00  0.00000000000E+00  0.26763713045E+04  0.26763713045E+04  0.00000000000E+00 0.  1.
         -2   -1    0    0    0  501 -0.00000000000E+00 -0.00000000000E+00 -0.17348416339E+04  0.17348416339E+04  0.00000000000E+00 0. -1.
         23    2    1    2    0    0  0.17609853963E+04 -0.10814841947E+04 -0.15014967632E+03  0.20740262907E+04  0.91446704582E+02 0.  0.
         13    1    3    3    0    0  0.46423098438E+03 -0.32976413772E+03 -0.26497360205E+02  0.57004991315E+03  0.00000000000E+00 0. -1.
        -13    1    3    3    0    0  0.12967544119E+04 -0.75172005703E+03 -0.12365231612E+03  0.15039763775E+04  0.00000000000E+00 0.  1.
         22    1    1    2    0    0 -0.17609853963E+04  0.10814841947E+04  0.10916793469E+04  0.23371866476E+04  0.00000000000E+00 0.  1.
<mgrwt>
<rscale>  0 0.43095616E+04</rscale>
<asrwt>0</asrwt>
<pdfrwt beam="1">  1        2 0.41174943E+00 0.43095616E+04</pdfrwt>
<pdfrwt beam="2">  1       -2 0.26689871E+00 0.43095616E+04</pdfrwt>
<totfact> 0.10684072E-01</totfact>
</mgrwt>
</event>
<event>
 6    1  0.2325157E-005  0.1611292E+04  0.7818608E-02  0.8813641E-01
          2   -1    0    0  501    0  0.00000000000E+00  0.00000000000E+00  0.29426553593E+04  0.29426553593E+04  0.00000000000E+00 0.  1.
         -2   -1    0    0    0  501 -0.00000000000E+00 -0.00000000000E+00 -0.22057135558E+03  0.22057135558E+03  0.00000000000E+00 0. -1.
         23    2    1    2    0    0  0.52018614239E+03  0.31841041426E+03  0.33964196174E+03  0.70395672197E+03  0.90661952296E+02 0.  0.
         11    1    3    3    0    0  0.10755052092E+03  0.10310076341E+03  0.57568824049E+02  0.15972179396E+03  0.00000000000E+00 0. -1.
        -11    1    3    3    0    0  0.41263562147E+03  0.21530965085E+03  0.28207313769E+03  0.54423492801E+03  0.00000000000E+00 0.  1.
         22    1    1    2    0    0 -0.52018614239E+03 -0.31841041426E+03  0.23824420419E+04  0.24592699929E+04  0.00000000000E+00 0.  1.
<mgrwt>
<rscale>  0 0.16112920E+04</rscale>
<asrwt>0</asrwt>
<pdfrwt beam="1">  1        2 0.45271618E+00 0.16112920E+04</pdfrwt>
<pdfrwt beam="2">  1       -2 0.33934057E-01 0.16112920E+04</pdfrwt>
<totfact> 0.14800558E+01</totfact>
</mgrwt>
</event>
<event>
 6    1  0.2325157E-005  0.1752054E+04  0.7818608E-02  0.8732220E-01
         -2   -1    0    0    0  501 -0.00000000000E+00  0.00000000000E+00  0.65091008727E+03  0.65091008727E+03  0.00000000000E+00 0.  1.
          2   -1    0    0  501    0  0.00000000000E+00 -0.00000000000E+00 -0.11790011123E+04  0.11790011123E+04  0.00000000000E+00 0. -1.
         23    2    1    2    0    0 -0.37783657854E+03 -0.54644322759E+03 -0.85723771199E+03  0.10884948371E+04  0.92756857146E+02 0.  0.
         13    1    3    3    0    0 -0.25188977721E+03 -0.37958416723E+03 -0.51612434012E+03  0.68841625079E+03  0.00000000000E+00 0.  1.
        -13    1    3    3    0    0 -0.12594680133E+03 -0.16685906035E+03 -0.34111337186E+03  0.40007858634E+03  0.00000000000E+00 0. -1.
         22    1    1    2    0    0  0.37783657854E+03  0.54644322759E+03  0.32914668690E+03  0.74141636248E+03  0.00000000000E+00 0.  1.
<mgrwt>
<rscale>  0 0.17520545E+04</rscale>
<asrwt>0</asrwt>
<pdfrwt beam="1">  1        2 0.18138479E+00 0.17520545E+04</pdfrwt>
<pdfrwt beam="2">  1       -2 0.10014001E+00 0.17520545E+04</pdfrwt>
<totfact> 0.15215373E+01</totfact>
</mgrwt>
</event>
<event>
 6    1  0.2325157E-005  0.3955376E+04  0.7818608E-02  0.8013610E-01
          2   -1    0    0  501    0  0.00000000000E+00  0.00000000000E+00  0.23672018711E+04  0.23672018711E+04  0.00000000000E+00 0.  1.
         -2   -1    0    0    0  501 -0.00000000000E+00 -0.00000000000E+00 -0.16522670498E+04  0.16522670498E+04  0.00000000000E+00 0. -1.
         23    2    1    2    0    0  0.18994741515E+04  0.44616655942E+03  0.67900396472E+03  0.20679675304E+04  0.91524158257E+02 0.  0.
         11    1    3    3    0    0  0.60399967481E+03  0.10795196062E+03  0.24178932391E+03  0.65949322220E+03  0.00000000000E+00 0. -1.
        -11    1    3    3    0    0  0.12954744767E+04  0.33821459880E+03  0.43721464080E+03  0.14084743082E+04  0.00000000000E+00 0.  1.
         22    1    1    2    0    0 -0.18994741515E+04 -0.44616655942E+03  0.35930856585E+02  0.19515013906E+04  0.00000000000E+00 0. -1.
<mgrwt>
<rscale>  0 0.39553759E+04</rscale>
<asrwt>0</asrwt>
<pdfrwt beam="1">  1        2 0.36418491E+00 0.39553759E+04</pdfrwt>
<pdfrwt beam="2">  1       -2 0.25419493E+00 0.39553759E+04</pdfrwt>
<totfact> 0.19903442E-01</totfact>
</mgrwt>
</event>
<event>
 6    1  0.2325157E-005  0.3120993E+04  0.7818608E-02  0.8210000E-01
          2   -1    0    0  501    0  0.00000000000E+00  0.00000000000E+00  0.42870507737E+04  0.42870507737E+04  0.00000000000E+00 0.  1.
         -2   -1    0    0    0  501 -0.00000000000E+00 -0.00000000000E+00 -0.56802421804E+03  0.56802421804E+03  0.00000000000E+00 0. -1.
         23    2    1    2    0    0 -0.13802781291E+03 -0.11368445672E+04  0.35068416045E+04  0.36903906137E+04  0.97865188727E+02 0.  0.
         11    1    3    3    0    0 -0.78931185297E+02 -0.64513795743E+03  0.21442433739E+04  0.22405831300E+04  0.00000000000E+00 0. -1.
        -11    1    3    3    0    0 -0.59096627609E+02 -0.49170660977E+03  0.13625982306E+04  0.14498074836E+04  0.00000000000E+00 0.  1.
         22    1    1    2    0    0  0.13802781291E+03  0.11368445672E+04  0.21218495120E+03  0.11646843781E+04  0.00000000000E+00 0. -1.
<mgrwt>
<rscale>  0 0.31209926E+04</rscale>
<asrwt>0</asrwt>
<pdfrwt beam="1">  1        2 0.65954625E+00 0.31209926E+04</pdfrwt>
<pdfrwt beam="2">  1       -2 0.87388344E-01 0.31209926E+04</pdfrwt>
<totfact> 0.18645134E-01</totfact>
</mgrwt>
</event>
<event>
 6    1  0.2325157E-005  0.8496028E+03  0.7818608E-02  0.9490870E-01
          2   -1    0    0  501    0  0.00000000000E+00  0.00000000000E+00  0.12712524818E+04  0.12712524818E+04  0.00000000000E+00 0.  1.
         -2   -1    0    0    0  501 -0.00000000000E+00 -0.00000000000E+00 -0.14195153670E+03  0.14195153670E+03  0.00000000000E+00 0. -1.
         23    2    1    2    0    0 -0.10689573676E+03  0.40126219707E+03  0.67184042093E+03  0.79537865442E+03  0.93912743448E+02 0.  0.
         13    1    3    3    0    0 -0.12051975972E+03  0.30916951010E+03  0.54434096635E+03  0.63750912629E+03  0.00000000000E+00 0.  1.
        -13    1    3    3    0    0  0.13624022953E+02  0.92092686965E+02  0.12749945458E+03  0.15786952813E+03  0.00000000000E+00 0. -1.
         22    1    1    2    0    0  0.10689573676E+03 -0.40126219707E+03  0.45746052420E+03  0.61782536410E+03  0.00000000000E+00 0.  1.
<mgrwt>
<rscale>  0 0.84960283E+03</rscale>
<asrwt>0</asrwt>
<pdfrwt beam="1">  1        2 0.19557730E+00 0.84960283E+03</pdfrwt>
<pdfrwt beam="2">  1       -2 0.21838699E-01 0.84960283E+03</pdfrwt>
<totfact> 0.31537549E+02</totfact>
</mgrwt>
</event>
<event>
 6    1  0.2325157E-005  0.1161829E+04  0.7818608E-02  0.9146940E-01
          2   -1    0    0  501    0  0.00000000000E+00  0.00000000000E+00  0.25548187862E+03  0.25548187862E+03  0.00000000000E+00 0.  1.
         -2   -1    0    0    0  501 -0.00000000000E+00 -0.00000000000E+00 -0.13208827225E+04  0.13208827225E+04  0.00000000000E+00 0. -1.
         23    2    1    2    0    0  0.30172641583E+03  0.46858640807E+03 -0.33132775070E+03  0.65469472641E+03  0.90747201444E+02 0.  0.
         11    1    3    3    0    0  0.14487533074E+03  0.16694950878E+03 -0.94722327291E+02  0.24048559047E+03  0.00000000000E+00 0.  1.
        -11    1    3    3    0    0  0.15685108509E+03  0.30163689929E+03 -0.23660542341E+03  0.41420913594E+03  0.00000000000E+00 0. -1.
         22    1    1    2    0    0 -0.30172641583E+03 -0.46858640807E+03 -0.73407309319E+03  0.92166987473E+03  0.00000000000E+00 0. -1.
<mgrwt>
<rscale>  0 0.11618289E+04</rscale>
<asrwt>0</asrwt>
<pdfrwt beam="1">  1        2 0.39304905E-01 0.11618289E+04</pdfrwt>
<pdfrwt beam="2">  1       -2 0.20321272E+00 0.11618289E+04</pdfrwt>
<totfact> 0.16460125E+01</totfact>
</mgrwt>
</event>
<event>
 6    1  0.2325157E-005  0.1774254E+04  0.7818608E-02  0.8720112E-01
         -2   -1    0    0    0  501 -0.00000000000E+00  0.00000000000E+00  0.15625018319E+04  0.15625018319E+04  0.00000000000E+00 0. -1.
          2   -1    0    0  501    0  0.00000000000E+00 -0.00000000000E+00 -0.50367574700E+03  0.50367574700E+03  0.00000000000E+00 0.  1.
         23    2    1    2    0    0  0.53938559307E+03  0.24217891527E+03  0.12973237440E+04  0.14286286957E+04  0.91343355068E+02 0.  0.
         13    1    3    3    0    0  0.22581591495E+03  0.93911983958E+02  0.64523822462E+03  0.69003235771E+03  0.00000000000E+00 0.  1.
        -13    1    3    3    0    0  0.31356967811E+03  0.14826693131E+03  0.65208551935E+03  0.73859633800E+03  0.00000000000E+00 0. -1.
         22    1    1    2    0    0 -0.53938559307E+03 -0.24217891527E+03 -0.23849765911E+03  0.63754888315E+03  0.00000000000E+00 0.  1.
<mgrwt>
<rscale>  0 0.17742540E+04</rscale>
<asrwt>0</asrwt>
<pdfrwt beam="1">  1        2 0.77488577E-01 0.17742540E+04</pdfrwt>
<pdfrwt beam="2">  1       -2 0.24038489E+00 0.17742540E+04</pdfrwt>
<totfact> 0.42538584E+00</totfact>
</mgrwt>
</event>
<event>
 6    1  0.2325157E-005  0.1561710E+04  0.7818608E-02  0.8844423E-01
          2   -1    0    0  501    0  0.00000000000E+00  0.00000000000E+00  0.21775257544E+04  0.21775257544E+04  0.00000000000E+00 0.  1.
         -2   -1    0    0    0  501 -0.00000000000E+00 -0.00000000000E+00 -0.28001243685E+03  0.28001243685E+03  0.00000000000E+00 0. -1.
         23    2    1    2    0    0  0.12521766923E+03  0.68555217702E+03  0.14976529847E+04  0.16540772165E+04  0.85707196808E+02 0.  0.
         13    1    3    3    0    0  0.23087636987E+02  0.30859110382E+03  0.59851349033E+03  0.67378031022E+03  0.00000000000E+00 0.  1.
        -13    1    3    3    0    0  0.10213003224E+03  0.37696107320E+03  0.89913949434E+03  0.98029690628E+03  0.00000000000E+00 0. -1.
         22    1    1    2    0    0 -0.12521766923E+03 -0.68555217702E+03  0.39986033284E+03  0.80346097471E+03  0.00000000000E+00 0. -1.
<mgrwt>
<rscale>  0 0.15617097E+04</rscale>
<asrwt>0</asrwt>
<pdfrwt beam="1">  1        2 0.33500395E+00 0.15617097E+04</pdfrwt>
<pdfrwt beam="2">  1       -2 0.43078838E-01 0.15617097E+04</pdfrwt>
<totfact> 0.26142639E+01</totfact>
</mgrwt>
</event>
<event>
 6    1  0.2325157E-005  0.5593741E+03  0.7818608E-02  0.9993472E-01
          2   -1    0    0  501    0  0.00000000000E+00  0.00000000000E+00  0.21385940573E+04  0.21385940573E+04  0.00000000000E+00 0.  1.
         -2   -1    0    0    0  501 -0.00000000000E+00 -0.00000000000E+00 -0.36577697796E+02  0.36577697796E+02  0.00000000000E+00 0. -1.
         23    2    1    2    0    0 -0.10405681724E+03  0.19460732032E+03  0.16994491382E+04  0.17160854908E+04  0.90123294978E+02 0.  0.
         11    1    3    3    0    0 -0.74205992628E+02  0.18658125108E+03  0.15797270745E+04  0.15924373527E+04  0.00000000000E+00 0. -1.
        -11    1    3    3    0    0 -0.29850824614E+02  0.80260692387E+01  0.11972206370E+03  0.12364813810E+03  0.00000000000E+00 0.  1.
         22    1    1    2    0    0  0.10405681724E+03 -0.19460732032E+03  0.40256722130E+03  0.45908626423E+03  0.00000000000E+00 0. -1.
<mgrwt>
<rscale>  0 0.55937410E+03</rscale>
<asrwt>0</asrwt>
<pdfrwt beam="1">  1        2 0.32901437E+00 0.55937410E+03</pdfrwt>
<pdfrwt beam="2">  1       -2 0.56273398E-02 0.55937410E+03</pdfrwt>
<totfact> 0.99823532E+02</totfact>
</mgrwt>
</event>
<event>
 6    1  0.2325157E-005  0.5913031E+03  0.7818608E-02  0.9923616E-01
          2   -1    0    0  501    0  0.00000000000E+00  0.00000000000E+00  0.60353388623E+03  0.60353388623E+03  0.00000000000E+00 0.  1.
         -2   -1    0    0    0  501 -0.00000000000E+00 -0.00000000000E+00 -0.14483002572E+03  0.14483002572E+03  0.00000000000E+00 0. -1.
         23    2    1    2    0    0 -0.72542835310E+02 -0.23890773575E+03  0.51135397613E+02  0.27039799151E+03  0.90337565666E+02 0.  0.
         13    1    3    3    0    0  0.11308239715E+01 -0.12549421407E+03  0.50160536345E+02  0.13515234343E+03  0.00000000000E+00 0. -1.
        -13    1    3    3    0    0 -0.73673659282E+02 -0.11341352168E+03  0.97486126831E+00  0.13524564808E+03  0.00000000000E+00 0.  1.
         22    1    1    2    0    0  0.72542835310E+02  0.23890773575E+03  0.40756846289E+03  0.47796592044E+03  0.00000000000E+00 0.  1.
<mgrwt>
<rscale>  0 0.59130306E+03</rscale>
<asrwt>0</asrwt>
<pdfrwt beam="1">  1        2 0.92851366E-01 0.59130306E+03</pdfrwt>
<pdfrwt beam="2">  1       -2 0.22281543E-01 0.59130306E+03</pdfrwt>
<totfact> 0.87188392E+02</totfact>
</mgrwt>
</event>
<event>
 6    1  0.2325157E-005  0.1338076E+04  0.7818608E-02  0.8999904E-01
          2   -1    0    0  501    0  0.00000000000E+00  0.00000000000E+00  0.39665410116E+03  0.39665410116E+03  0.00000000000E+00 0.  1.
         -2   -1    0    0    0  501 -0.00000000000E+00 -0.00000000000E+00 -0.11284682579E+04  0.11284682579E+04  0.00000000000E+00 0. -1.
         23    2    1    2    0    0 -0.34541772387E+03 -0.19549779848E+03 -0.97709078019E+03  0.10585460897E+04  0.90998011787E+02 0.  0.
         13    1    3    3    0    0 -0.28465846820E+03 -0.11797161610E+03 -0.71576640353E+03  0.77927484891E+03  0.00000000000E+00 0. -1.
        -13    1    3    3    0    0 -0.60759255665E+02 -0.77526182383E+02 -0.26132437666E+03  0.27927124081E+03  0.00000000000E+00 0.  1.
         22    1    1    2    0    0  0.34541772387E+03  0.19549779848E+03  0.24527662341E+03  0.46657626940E+03  0.00000000000E+00 0.  1.
<mgrwt>
<rscale>  0 0.13380756E+04</rscale>
<asrwt>0</asrwt>
<pdfrwt beam="1">  1        2 0.61023708E-01 0.13380756E+04</pdfrwt>
<pdfrwt beam="2">  1       -2 0.17361050E+00 0.13380756E+04</pdfrwt>
<totfact> 0.15751823E+01</totfact>
</mgrwt>
</event>
<event>
 6    1  0.2325157E-005  0.3523228E+03  0.7818608E-02  0.1061666E+00
          2   -1    0    0  501    0  0.00000000000E+00  0.00000000000E+00  0.89841931813E+03  0.89841931813E+03  0.00000000000E+00 0.  1.
         -2   -1    0    0    0  501 -0.00000000000E+00 -0.00000000000E+00 -0.34541605715E+02  0.34541605715E+02  0.00000000000E+00 0. -1.
         23    2    1    2    0    0 -0.10833262024E+03 -0.30820751784E+01  0.78757689391E+03  0.80041934282E+03  0.92996262062E+02 0.  0.
         11    1    3    3    0    0  0.73535192824E+01  0.32993130799E+00  0.26830585542E+03  0.26840680907E+03  0.00000000000E+00 0.  1.
        -11    1    3    3    0    0 -0.11568613952E+03 -0.34120064864E+01  0.51927103849E+03  0.53201253376E+03  0.00000000000E+00 0. -1.
         22    1    1    2    0    0  0.10833262024E+03  0.30820751784E+01  0.76300818508E+02  0.13254158102E+03  0.00000000000E+00 0. -1.
<mgrwt>
<rscale>  0 0.35232284E+03</rscale>
<asrwt>0</asrwt>
<pdfrwt beam="1">  1        2 0.13821834E+00 0.35232284E+03</pdfrwt>
<pdfrwt beam="2">  1       -2 0.53140939E-02 0.35232284E+03</pdfrwt>
<totfact> 0.54551254E+03</totfact>
</mgrwt>
</event>
<event>
 6    1  0.2325157E-005  0.3248112E+04  0.7818608E-02  0.8176225E-01
          2   -1    0    0  501    0  0.00000000000E+00  0.00000000000E+00  0.23355488477E+04  0.23355488477E+04  0.00000000000E+00 0.  1.
         -2   -1    0    0    0  501 -0.00000000000E+00 -0.00000000000E+00 -0.11293096495E+04  0.11293096495E+04  0.00000000000E+00 0. -1.
         23    2    1    2    0    0 -0.33027990474E+03 -0.14009963129E+04  0.14029224256E+04  0.20120819224E+04  0.91688854240E+02 0.  0.
         13    1    3    3    0    0 -0.19054691081E+03 -0.62486309763E+03  0.61101468596E+03  0.89448362894E+03  0.00000000000E+00 0.  1.
        -13    1    3    3    0    0 -0.13973299393E+03 -0.77613321529E+03  0.79190773965E+03  0.11175982935E+04  0.00000000000E+00 0. -1.
         22    1    1    2    0    0  0.33027990474E+03  0.14009963129E+04 -0.19668322735E+03  0.14527765748E+04  0.00000000000E+00 0. -1.
<mgrwt>
<rscale>  0 0.32481120E+04</rscale>
<asrwt>0</asrwt>
<pdfrwt beam="1">  1        2 0.35931521E+00 0.32481120E+04</pdfrwt>
<pdfrwt beam="2">  1       -2 0.17373995E+00 0.32481120E+04</pdfrwt>
<totfact> 0.72780287E-01</totfact>
</mgrwt>
</event>
<event>
 6    1  0.2325157E-005  0.6842412E+03  0.7818608E-02  0.9744568E-01
          2   -1    0    0  501    0  0.00000000000E+00  0.00000000000E+00  0.15046237407E+04  0.15046237407E+04  0.00000000000E+00 0.  1.
         -2   -1    0    0    0  501 -0.00000000000E+00 -0.00000000000E+00 -0.77791207079E+02  0.77791207079E+02  0.00000000000E+00 0. -1.
         23    2    1    2    0    0  0.31355666998E+03 -0.94629231722E+02  0.55626416797E+03  0.65227422936E+03  0.93591500353E+02 0.  0.
         11    1    3    3    0    0  0.31393196421E+03 -0.90520384372E+02  0.50904548308E+03  0.60487562521E+03  0.00000000000E+00 0. -1.
        -11    1    3    3    0    0 -0.37529422594E+00 -0.41088473502E+01  0.47218684887E+02  0.47398604144E+02  0.00000000000E+00 0.  1.
         22    1    1    2    0    0 -0.31355666998E+03  0.94629231722E+02  0.87056836567E+03  0.93014071843E+03  0.00000000000E+00 0. -1.
<mgrwt>
<rscale>  0 0.68424118E+03</rscale>
<asrwt>0</asrwt>
<pdfrwt beam="1">  1        2 0.23148055E+00 0.68424118E+03</pdfrwt>
<pdfrwt beam="2">  1       -2 0.11967879E-01 0.68424118E+03</pdfrwt>
<totfact> 0.65516993E+02</totfact>
</mgrwt>
</event>
<event>
 6    1  0.2325157E-005  0.5379806E+04  0.7818608E-02  0.7772448E-01
         -2   -1    0    0    0  501 -0.00000000000E+00  0.00000000000E+00  0.18998461849E+04  0.18998461849E+04  0.00000000000E+00 0. -1.
          2   -1    0    0  501    0  0.00000000000E+00 -0.00000000000E+00 -0.38085077496E+04  0.38085077496E+04  0.00000000000E+00 0.  1.
         23    2    1    2    0    0  0.63738573221E+03 -0.94238947809E+03  0.16308615504E+04  0.19904805662E+04  0.89134660900E+02 0.  0.
         13    1    3    3    0    0  0.24961710085E+03 -0.43733016626E+03  0.75919020725E+03  0.91100831069E+03  0.00000000000E+00 0. -1.
        -13    1    3    3    0    0  0.38776863137E+03 -0.50505931182E+03  0.87167134317E+03  0.10794722555E+04  0.00000000000E+00 0.  1.
         22    1    1    2    0    0 -0.63738573221E+03  0.94238947809E+03 -0.35395231151E+04  0.37178733682E+04  0.00000000000E+00 0.  1.
<mgrwt>
<rscale>  0 0.53798063E+04</rscale>
<asrwt>0</asrwt>
<pdfrwt beam="1">  1        2 0.58592426E+00 0.53798063E+04</pdfrwt>
<pdfrwt beam="2">  1       -2 0.29228403E+00 0.53798063E+04</pdfrwt>
<totfact> 0.12067319E-02</totfact>
</mgrwt>
</event>
<event>
 6    1  0.2325157E-005  0.3791674E+04  0.7818608E-02  0.8047944E-01
          2   -1    0    0  501    0  0.00000000000E+00  0.00000000000E+00  0.26303384334E+04  0.26303384334E+04  0.00000000000E+00 0.  1.
         -2   -1    0    0    0  501 -0.00000000000E+00 -0.00000000000E+00 -0.13664392944E+04  0.13664392944E+04  0.00000000000E+00 0. -1.
         23    2    1    2    0    0 -0.17424830242E+04  0.25349397322E+03 -0.10520689359E+03  0.17663164273E+04  0.91098555816E+02 0.  0.
         13    1    3    3    0    0 -0.20747627322E+03  0.44189054840E+02 -0.39046147495E+02  0.21569348194E+03  0.00000000000E+00 0. -1.
        -13    1    3    3    0    0 -0.15350067510E+04  0.20930491838E+03 -0.66160746096E+02  0.15506229454E+04  0.00000000000E+00 0.  1.
         22    1    1    2    0    0  0.17424830242E+04 -0.25349397322E+03  0.13691060326E+04  0.22304613004E+04  0.00000000000E+00 0.  1.
<mgrwt>
<rscale>  0 0.37916739E+04</rscale>
<asrwt>0</asrwt>
<pdfrwt beam="1">  1        2 0.40466745E+00 0.37916739E+04</pdfrwt>
<pdfrwt beam="2">  1       -2 0.21022143E+00 0.37916739E+04</pdfrwt>
<totfact> 0.26741932E-01</totfact>
</mgrwt>
</event>
<event>
 6    1  0.2325157E-005  0.2345873E+04  0.7818608E-02  0.8460050E-01
          2   -1    0    0  501    0  0.00000000000E+00  0.00000000000E+00  0.94770539457E+03  0.94770539457E+03  0.00000000000E+00 0.  1.
         -2   -1    0    0    0  501 -0.00000000000E+00 -0.00000000000E+00 -0.14516960303E+04  0.14516960303E+04  0.00000000000E+00 0. -1.
         23    2    1    2    0    0 -0.29857825474E+03 -0.44979356290E+03  0.81045995816E+03  0.97840051453E+03  0.94651992150E+02 0.  0.
         11    1    3    3    0    0 -0.21002285205E+02 -0.95622163285E+02  0.15570611096E+03  0.18392685254E+03  0.00000000000E+00 0.  1.
        -11    1    3    3    0    0 -0.27757596954E+03 -0.35417139962E+03  0.65475384720E+03  0.79447366199E+03  0.00000000000E+00 0. -1.
         22    1    1    2    0    0  0.29857825474E+03  0.44979356290E+03 -0.13144505939E+04  0.14210009103E+04  0.00000000000E+00 0. -1.
<mgrwt>
<rscale>  0 0.23458731E+04</rscale>
<asrwt>0</asrwt>
<pdfrwt beam="1">  1        2 0.14580083E+00 0.23458731E+04</pdfrwt>
<pdfrwt beam="2">  1       -2 0.22333785E+00 0.23458731E+04</pdfrwt>
<totfact> 0.23162111E+00</totfact>
</mgrwt>
</event>
<event>
 6    1  0.2325157E-005  0.5855523E+04  0.7818608E-02  0.7708578E-01
          2   -1    0    0  501    0  0.00000000000E+00  0.00000000000E+00  0.18626782782E+04  0.18626782782E+04  0.00000000000E+00 0.  1.
         -2   -1    0    0    0  501 -0.00000000000E+00 -0.00000000000E+00 -0.46018618957E+04  0.46018618957E+04  0.00000000000E+00 0. -1.
         23    2    1    2    0    0  0.20378548061E+04  0.18998982034E+04 -0.37927973090E+03  0.28132922026E+04  0.91074194176E+02 0.  0.
         13    1    3    3    0    0  0.87451149339E+03  0.76223798836E+03 -0.18062663723E+03  0.11740541236E+04  0.00000000000E+00 0. -1.
        -13    1    3    3    0    0  0.11633433127E+04  0.11376602150E+04 -0.19865309366E+03  0.16392380790E+04  0.00000000000E+00 0.  1.
         22    1    1    2    0    0 -0.20378548061E+04 -0.18998982034E+04 -0.23599038866E+04  0.36512479713E+04  0.00000000000E+00 0.  1.
<mgrwt>
<rscale>  0 0.58555233E+04</rscale>
<asrwt>0</asrwt>
<pdfrwt beam="1">  1        2 0.28656589E+00 0.58555233E+04</pdfrwt>
<pdfrwt beam="2">  1       -2 0.70797874E+00 0.58555233E+04</pdfrwt>
<totfact> 0.11725756E-03</totfact>
</mgrwt>
</event>
<event>
 6    1  0.2325157E-005  0.1771668E+04  0.7818608E-02  0.8721513E-01
          2   -1    0    0  501    0  0.00000000000E+00  0.00000000000E+00  0.82839820495E+03  0.82839820495E+03  0.00000000000E+00 0.  1.
         -2   -1    0    0    0  501 -0.00000000000E+00 -0.00000000000E+00 -0.94725182874E+03  0.94725182874E+03  0.00000000000E+00 0. -1.
         23    2    1    2    0    0 -0.88244592226E+01 -0.81643855344E+03  0.27814756704E+03  0.86776252516E+03  0.94846973616E+02 0.  0.
         11    1    3    3    0    0  0.28645139203E+02 -0.44706872304E+03  0.11686001520E+03  0.46297651158E+03  0.00000000000E+00 0.  1.
        -11    1    3    3    0    0 -0.37469598425E+02 -0.36936983039E+03  0.16128755184E+03  0.40478601358E+03  0.00000000000E+00 0. -1.
         22    1    1    2    0    0  0.88244592226E+01  0.81643855344E+03 -0.39700119084E+03  0.90788750853E+03  0.00000000000E+00 0.  1.
<mgrwt>
<rscale>  0 0.17716678E+04</rscale>
<asrwt>0</asrwt>
<pdfrwt beam="1">  1        2 0.12744588E+00 0.17716678E+04</pdfrwt>
<pdfrwt beam="2">  1       -2 0.14573105E+00 0.17716678E+04</pdfrwt>
<totfact> 0.10054187E+01</totfact>
</mgrwt>
</event>
<event>
 6    1  0.2325157E-005  0.6719081E+03  0.7818608E-02  0.9766517E-01
         -1   -1    0    0    0  501 -0.00000000000E+00  0.00000000000E+00  0.78041586838E+02  0.78041586838E+02  0.00000000000E+00 0. -1.
          1   -1    0    0  501    0  0.00000000000E+00 -0.00000000000E+00 -0.14462176167E+04  0.14462176167E+04  0.00000000000E+00 0.  1.
         23    2    1    2    0    0 -0.13164707441E+03 -0.25912106944E+03 -0.10512346700E+04  0.10942283832E+04  0.88129123718E+02 0.  0.
         13    1    3    3    0    0 -0.32650333707E+02 -0.51502433671E+02 -0.11516346054E+03  0.13031180917E+03  0.00000000000E+00 0. -1.
        -13    1    3    3    0    0 -0.98996740701E+02 -0.20761863577E+03 -0.93607120944E+03  0.96391657406E+03  0.00000000000E+00 0.  1.
         22    1    1    2    0    0  0.13164707441E+03  0.25912106944E+03 -0.31694135992E+03  0.43003082036E+03  0.00000000000E+00 0.  1.
<mgrwt>
<rscale>  0 0.67190808E+03</rscale>
<asrwt>0</asrwt>
<pdfrwt beam="1">  1        1 0.22249502E+00 0.67190808E+03</pdfrwt>
<pdfrwt beam="2">  1       -1 0.12006398E-01 0.67190808E+03</pdfrwt>
<totfact> 0.34349702E+02</totfact>
</mgrwt>
</event>
<event>
 6    1  0.2325157E-005  0.1608346E+04  0.7818608E-02  0.8815437E-01
          2   -1    0    0  501    0  0.00000000000E+00  0.00000000000E+00  0.32378946360E+04  0.32378946360E+04  0.00000000000E+00 0.  1.
         -2   -1    0    0    0  501 -0.00000000000E+00 -0.00000000000E+00 -0.19972679285E+03  0.19972679285E+03  0.00000000000E+00 0. -1.
         23    2    1    2    0    0 -0.59542727382E+03  0.34520479458E+03  0.64559034508E+03  0.94801763048E+03  0.90832513081E+02 0.  0.
         11    1    3    3    0    0 -0.19275237667E+03  0.12339387695E+03  0.27316914661E+03  0.35637187072E+03  0.00000000000E+00 0. -1.
        -11    1    3    3    0    0 -0.40267489714E+03  0.22181091763E+03  0.37242119847E+03  0.59164575976E+03  0.00000000000E+00 0.  1.
         22    1    1    2    0    0  0.59542727382E+03 -0.34520479458E+03  0.23925774981E+04  0.24896037984E+04  0.00000000000E+00 0.  1.
<mgrwt>
<rscale>  0 0.16083461E+04</rscale>
<asrwt>0</asrwt>
<pdfrwt beam="1">  1        2 0.49813760E+00 0.16083461E+04</pdfrwt>
<pdfrwt beam="2">  1       -2 0.30727201E-01 0.16083461E+04</pdfrwt>
<totfact> 0.11603847E+01</totfact>
</mgrwt>
</event>
<event>
 6    1  0.2325157E-005  0.3427045E+04  0.7818608E-02  0.8131300E-01
         -2   -1    0    0    0  501 -0.00000000000E+00  0.00000000000E+00  0.12550966464E+04  0.12550966464E+04  0.00000000000E+00 0. -1.
          2   -1    0    0  501    0  0.00000000000E+00 -0.00000000000E+00 -0.23393889716E+04  0.23393889716E+04  0.00000000000E+00 0.  1.
         23    2    1    2    0    0  0.57979274959E+03 -0.90730939569E+03  0.85388498694E+03  0.13773024354E+04  0.92045943607E+02 0.  0.
         11    1    3    3    0    0  0.30202541122E+03 -0.38757281600E+03  0.38618422076E+03  0.62495622974E+03  0.00000000000E+00 0. -1.
        -11    1    3    3    0    0  0.27776733837E+03 -0.51973657968E+03  0.46770076619E+03  0.75234620569E+03  0.00000000000E+00 0.  1.
         22    1    1    2    0    0 -0.57979274959E+03  0.90730939569E+03 -0.19381773121E+04  0.22171831826E+04  0.00000000000E+00 0.  1.
<mgrwt>
<rscale>  0 0.34270449E+04</rscale>
<asrwt>0</asrwt>
<pdfrwt beam="1">  1        2 0.35990599E+00 0.34270449E+04</pdfrwt>
<pdfrwt beam="2">  1       -2 0.19309179E+00 0.34270449E+04</pdfrwt>
<totfact> 0.52596326E-01</totfact>
</mgrwt>
</event>
<event>
 6    1  0.2325157E-005  0.3261216E+04  0.7818608E-02  0.8172835E-01
         -2   -1    0    0    0  501 -0.00000000000E+00  0.00000000000E+00  0.59364031815E+03  0.59364031815E+03  0.00000000000E+00 0. -1.
          2   -1    0    0  501    0  0.00000000000E+00 -0.00000000000E+00 -0.44789443040E+04  0.44789443040E+04  0.00000000000E+00 0.  1.
         23    2    1    2    0    0  0.26146043744E+03  0.14478897521E+04 -0.30328816465E+04  0.33721816878E+04  0.92151828339E+02 0.  0.
         11    1    3    3    0    0  0.12776434260E+03  0.94452266522E+03 -0.19315936249E+04  0.21539500282E+04  0.00000000000E+00 0. -1.
        -11    1    3    3    0    0  0.13369609484E+03  0.50336708687E+03 -0.11012880216E+04  0.12182316596E+04  0.00000000000E+00 0.  1.
         22    1    1    2    0    0 -0.26146043744E+03 -0.14478897521E+04 -0.85242233941E+03  0.17004029344E+04  0.00000000000E+00 0.  1.
<mgrwt>
<rscale>  0 0.32612157E+04</rscale>
<asrwt>0</asrwt>
<pdfrwt beam="1">  1        2 0.68906832E+00 0.32612157E+04</pdfrwt>
<pdfrwt beam="2">  1       -2 0.91329284E-01 0.32612157E+04</pdfrwt>
<totfact> 0.11009185E-01</totfact>
</mgrwt>
</event>
<event>
 6    1  0.2325157E-005  0.2631715E+04  0.7818608E-02  0.8357508E-01
         -2   -1    0    0    0  501 -0.00000000000E+00  0.00000000000E+00  0.47986348325E+03  0.47986348325E+03  0.00000000000E+00 0. -1.
          2   -1    0    0  501    0  0.00000000000E+00 -0.00000000000E+00 -0.36082770293E+04  0.36082770293E+04  0.00000000000E+00 0.  1.
         23    2    1    2    0    0  0.84200783772E+03 -0.73587106064E+03 -0.49399793803E+03  0.12262130130E+04  0.95294144090E+02 0.  0.
         11    1    3    3    0    0  0.49259304244E+03 -0.37722172368E+03 -0.24579069869E+03  0.66735088360E+03  0.00000000000E+00 0.  1.
        -11    1    3    3    0    0  0.34941479528E+03 -0.35864933695E+03 -0.24820723934E+03  0.55886212944E+03  0.00000000000E+00 0. -1.
         22    1    1    2    0    0 -0.84200783772E+03  0.73587106064E+03 -0.26344156080E+04  0.28619274995E+04  0.00000000000E+00 0.  1.
<mgrwt>
<rscale>  0 0.26317146E+04</rscale>
<asrwt>0</asrwt>
<pdfrwt beam="1">  1        2 0.55511953E+00 0.26317146E+04</pdfrwt>
<pdfrwt beam="2">  1       -2 0.73825153E-01 0.26317146E+04</pdfrwt>
<totfact> 0.99431428E-01</totfact>
</mgrwt>
</event>
<event>
 6    1  0.2325157E-005  0.2135197E+04  0.7818608E-02  0.8545895E-01
          2   -1    0    0  501    0  0.00000000000E+00  0.00000000000E+00  0.12319864499E+04  0.12319864499E+04  0.00000000000E+00 0.  1.
         -2   -1    0    0    0  501 -0.00000000000E+00 -0.00000000000E+00 -0.92514554330E+03  0.92514554330E+03  0.00000000000E+00 0. -1.
         23    2    1    2    0    0 -0.49906678164E+02 -0.10602166926E+04  0.57413279493E+02  0.10668273326E+04  0.90962415234E+02 0.  0.
         11    1    3    3    0    0 -0.49829421786E+02 -0.64392981126E+03 -0.50858613263E+01  0.64587494075E+03  0.00000000000E+00 0. -1.
        -11    1    3    3    0    0 -0.77256378565E-01 -0.41628688139E+03  0.62499140819E+02  0.42095239183E+03  0.00000000000E+00 0.  1.
         22    1    1    2    0    0  0.49906678164E+02  0.10602166926E+04  0.24942762715E+03  0.10903046607E+04  0.00000000000E+00 0. -1.
<mgrwt>
<rscale>  0 0.21351972E+04</rscale>
<asrwt>0</asrwt>
<pdfrwt beam="1">  1        2 0.18953638E+00 0.21351972E+04</pdfrwt>
<pdfrwt beam="2">  1       -2 0.14233008E+00 0.21351972E+04</pdfrwt>
<totfact> 0.57313621E+00</totfact>
</mgrwt>
</event>
<event>
 6    1  0.2325157E-005  0.1458729E+04  0.7818608E-02  0.8912372E-01
          2   -1    0    0  501    0  0.00000000000E+00  0.00000000000E+00  0.81933729751E+03  0.81933729751E+03  0.00000000000E+00 0.  1.
         -2   -1    0    0    0  501 -0.00000000000E+00 -0.00000000000E+00 -0.64927134507E+03  0.64927134507E+03  0.00000000000E+00 0. -1.
         23    2    1    2    0    0  0.40397415664E+03  0.16821974110E+03  0.66929184626E+03  0.80474156733E+03  0.90357147927E+02 0.  0.
         11    1    3    3    0    0  0.17409881359E+03  0.65843750862E+02  0.20685617574E+03  0.27827194228E+03  0.00000000000E+00 0.  1.
        -11    1    3    3    0    0  0.22987534305E+03  0.10237599024E+03  0.46243567053E+03  0.52646962505E+03  0.00000000000E+00 0. -1.
         22    1    1    2    0    0 -0.40397415664E+03 -0.16821974110E+03 -0.49922589383E+03  0.66386707525E+03  0.00000000000E+00 0. -1.
<mgrwt>
<rscale>  0 0.14587285E+04</rscale>
<asrwt>0</asrwt>
<pdfrwt beam="1">  1        2 0.12605189E+00 0.14587285E+04</pdfrwt>
<pdfrwt beam="2">  1       -2 0.99887898E-01 0.14587285E+04</pdfrwt>
<totfact> 0.26784002E+01</totfact>
</mgrwt>
</event>
<event>
 6    1  0.2325157E-005  0.4437927E+04  0.7818608E-02  0.7921595E-01
          2   -1    0    0  501    0  0.00000000000E+00  0.00000000000E+00  0.19789616359E+04  0.19789616359E+04  0.00000000000E+00 0.  1.
         -2   -1    0    0    0  501 -0.00000000000E+00 -0.00000000000E+00 -0.24880716873E+04  0.24880716873E+04  0.00000000000E+00 0. -1.
         23    2    1    2    0    0  0.23808502436E+03  0.19722420142E+04 -0.12476949031E+04  0.23476158031E+04  0.90190610402E+02 0.  0.
         11    1    3    3    0    0  0.83240681794E+02  0.95523876358E+03 -0.63959133460E+03  0.11526001830E+04  0.00000000000E+00 0. -1.
        -11    1    3    3    0    0  0.15484434257E+03  0.10170032506E+04 -0.60810356851E+03  0.11950156201E+04  0.00000000000E+00 0.  1.
         22    1    1    2    0    0 -0.23808502436E+03 -0.19722420142E+04  0.73858485167E+03  0.21194175201E+04  0.00000000000E+00 0.  1.
<mgrwt>
<rscale>  0 0.44379267E+04</rscale>
<asrwt>0</asrwt>
<pdfrwt beam="1">  1        2 0.30445564E+00 0.44379267E+04</pdfrwt>
<pdfrwt beam="2">  1       -2 0.38278026E+00 0.44379267E+04</pdfrwt>
<totfact> 0.50209322E-02</totfact>
</mgrwt>
</event>
<event>
 6    1  0.2966627E-005  0.2867851E+04  0.7818608E-02  0.8282508E-01
          2   -1    0    0  501    0  0.00000000000E+00  0.00000000000E+00  0.10339384610E+04  0.10339384610E+04  0.00000000000E+00 0. -1.
         -2   -1    0    0    0  501 -0.00000000000E+00 -0.00000000000E+00 -0.19886503119E+04  0.19886503119E+04  0.00000000000E+00 0.  1.
         23    2    1    2    0    0 -0.11163911640E+04  0.65915601828E+03 -0.11201163083E+04  0.17156172651E+04  0.88691424298E+02 0.  0.
         11    1    3    3    0    0 -0.78295042608E+03  0.43206102979E+03 -0.81322132974E+03  0.12087253759E+04  0.00000000000E+00 0. -1.
        -11    1    3    3    0    0 -0.33344073792E+03  0.22709498849E+03 -0.30689497858E+03  0.50689188924E+03  0.00000000000E+00 0.  1.
         22    1    1    2    0    0  0.11163911640E+04 -0.65915601828E+03  0.16540445746E+03  0.13069715077E+04  0.00000000000E+00 0. -1.
<mgrwt>
<rscale>  0 0.28678508E+04</rscale>
<asrwt>0</asrwt>
<pdfrwt beam="1">  1        2 0.15906746E+00 0.28678508E+04</pdfrwt>
<pdfrwt beam="2">  1       -2 0.30594620E+00 0.28678508E+04</pdfrwt>
<totfact> 0.60594630E-01</totfact>
</mgrwt>
</event>
<event>
 6    1  0.2325157E-005  0.2669032E+04  0.7818608E-02  0.8345124E-01
         -2   -1    0    0    0  501 -0.00000000000E+00  0.00000000000E+00  0.54236464744E+03  0.54236464744E+03  0.00000000000E+00 0. -1.
          2   -1    0    0  501    0  0.00000000000E+00 -0.00000000000E+00 -0.32836440730E+04  0.32836440730E+04  0.00000000000E+00 0.  1.
         23    2    1    2    0    0 -0.11652822031E+04  0.27927673189E+03 -0.53539553946E+03  0.13156697344E+04  0.91980217876E+02 0.  0.
         13    1    3    3    0    0 -0.68448309610E+03  0.17552278816E+03 -0.26739734941E+03  0.75553074092E+03  0.00000000000E+00 0. -1.
        -13    1    3    3    0    0 -0.48079910701E+03  0.10375394373E+03 -0.26799819005E+03  0.56013899348E+03  0.00000000000E+00 0.  1.
         22    1    1    2    0    0  0.11652822031E+04 -0.27927673189E+03 -0.22058838861E+04  0.25103389860E+04  0.00000000000E+00 0.  1.
<mgrwt>
<rscale>  0 0.26690316E+04</rscale>
<asrwt>0</asrwt>
<pdfrwt beam="1">  1        2 0.50517602E+00 0.26690316E+04</pdfrwt>
<pdfrwt beam="2">  1       -2 0.83440714E-01 0.26690316E+04</pdfrwt>
<totfact> 0.12624990E+00</totfact>
</mgrwt>
</event>
<event>
 6    1  0.2325157E-005  0.3898528E+04  0.7818608E-02  0.8025335E-01
          2   -1    0    0  501    0  0.00000000000E+00  0.00000000000E+00  0.20263938427E+04  0.20263938427E+04  0.00000000000E+00 0.  1.
         -2   -1    0    0    0  501 -0.00000000000E+00 -0.00000000000E+00 -0.18750702239E+04  0.18750702239E+04  0.00000000000E+00 0. -1.
         23    2    1    2    0    0  0.34978724009E+03  0.87533740879E+03 -0.16305410071E+04  0.18856247284E+04  0.91378049392E+02 0.  0.
         13    1    3    3    0    0  0.93658284791E+02  0.17078593995E+03 -0.28220850644E+03  0.34290137460E+03  0.00000000000E+00 0.  1.
        -13    1    3    3    0    0  0.25612895530E+03  0.70455146885E+03 -0.13483325006E+04  0.15427233538E+04  0.00000000000E+00 0. -1.
         22    1    1    2    0    0 -0.34978724009E+03 -0.87533740879E+03  0.17818646259E+04  0.20158393382E+04  0.00000000000E+00 0.  1.
<mgrwt>
<rscale>  0 0.38985283E+04</rscale>
<asrwt>0</asrwt>
<pdfrwt beam="1">  1        2 0.31175290E+00 0.38985283E+04</pdfrwt>
<pdfrwt beam="2">  1       -2 0.28847234E+00 0.38985283E+04</pdfrwt>
<totfact> 0.19206146E-01</totfact>
</mgrwt>
</event>
<event>
 6    1  0.2325157E-005  0.2319031E+04  0.7818608E-02  0.8470455E-01
         -2   -1    0    0    0  501 -0.00000000000E+00  0.00000000000E+00  0.16312564195E+04  0.16312564195E+04  0.00000000000E+00 0. -1.
          2   -1    0    0  501    0  0.00000000000E+00 -0.00000000000E+00 -0.82419657938E+03  0.82419657938E+03  0.00000000000E+00 0.  1.
         23    2    1    2    0    0  0.45416814365E+03  0.94182402057E+03 -0.12198447477E+03  0.10567305363E+04  0.92184737064E+02 0.  0.
         13    1    3    3    0    0  0.32226691811E+03  0.75229641786E+03 -0.10628300965E+03  0.82528900694E+03  0.00000000000E+00 0.  1.
        -13    1    3    3    0    0  0.13190122553E+03  0.18952760271E+03 -0.15701465122E+02  0.23144152932E+03  0.00000000000E+00 0. -1.
         22    1    1    2    0    0 -0.45416814365E+03 -0.94182402057E+03  0.92904431493E+03  0.13987224627E+04  0.00000000000E+00 0.  1.
<mgrwt>
<rscale>  0 0.23190308E+04</rscale>
<asrwt>0</asrwt>
<pdfrwt beam="1">  1        2 0.12679947E+00 0.23190308E+04</pdfrwt>
<pdfrwt beam="2">  1       -2 0.25096253E+00 0.23190308E+04</pdfrwt>
<totfact> 0.18988238E+00</totfact>
</mgrwt>
</event>
<event>
 6    1  0.2325157E-005  0.1109967E+04  0.7818608E-02  0.9195531E-01
          2   -1    0    0  501    0  0.00000000000E+00  0.00000000000E+00  0.32631301902E+03  0.32631301902E+03  0.00000000000E+00 0.  1.
         -2   -1    0    0    0  501 -0.00000000000E+00 -0.00000000000E+00 -0.94389954246E+03  0.94389954246E+03  0.00000000000E+00 0. -1.
         23    2    1    2    0    0 -0.30321026102E+02 -0.54595101199E+03 -0.39086285355E+03  0.67827887042E+03  0.91140461102E+02 0.  0.
         11    1    3    3    0    0  0.21923674719E+02 -0.25046109195E+03 -0.21254503254E+03  0.32922150134E+03  0.00000000000E+00 0. -1.
        -11    1    3    3    0    0 -0.52244700820E+02 -0.29548992005E+03 -0.17831782102E+03  0.34905736908E+03  0.00000000000E+00 0.  1.
         22    1    1    2    0    0  0.30321026102E+02  0.54595101199E+03 -0.22672366989E+03  0.59193369106E+03  0.00000000000E+00 0.  1.
<mgrwt>
<rscale>  0 0.11099670E+04</rscale>
<asrwt>0</asrwt>
<pdfrwt beam="1">  1        2 0.50202003E-01 0.11099670E+04</pdfrwt>
<pdfrwt beam="2">  1       -2 0.14521531E+00 0.11099670E+04</pdfrwt>
<totfact> 0.32339248E+01</totfact>
</mgrwt>
</event>
<event>
 6    1  0.2325157E-005  0.9822803E+03  0.7818608E-02  0.9328196E-01
         -2   -1    0    0    0  501 -0.00000000000E+00  0.00000000000E+00  0.77666414630E+03  0.77666414630E+03  0.00000000000E+00 0.  1.
          2   -1    0    0  501    0  0.00000000000E+00 -0.00000000000E+00 -0.31058294747E+03  0.31058294747E+03  0.00000000000E+00 0. -1.
         23    2    1    2    0    0  0.21245257262E+03  0.22759621563E+03  0.64985559739E+03  0.72570987225E+03  0.86060375569E+02 0.  0.
         13    1    3    3    0    0  0.10441033409E+03  0.15816116508E+03  0.44831571790E+03  0.48672729010E+03  0.00000000000E+00 0.  1.
        -13    1    3    3    0    0  0.10804223852E+03  0.69435050540E+02  0.20153987949E+03  0.23898258215E+03  0.00000000000E+00 0. -1.
         22    1    1    2    0    0 -0.21245257262E+03 -0.22759621563E+03 -0.18377439857E+03  0.36153722152E+03  0.00000000000E+00 0. -1.
<mgrwt>
<rscale>  0 0.98228029E+03</rscale>
<asrwt>0</asrwt>
<pdfrwt beam="1">  1        2 0.47781992E-01 0.98228029E+03</pdfrwt>
<pdfrwt beam="2">  1       -2 0.11948679E+00 0.98228029E+03</pdfrwt>
<totfact> 0.56623935E+01</totfact>
</mgrwt>
</event>
<event>
 6    1  0.2325157E-005  0.2383350E+04  0.7818608E-02  0.8445763E-01
         -2   -1    0    0    0  501 -0.00000000000E+00  0.00000000000E+00  0.11710573778E+04  0.11710573778E+04  0.00000000000E+00 0. -1.
          2   -1    0    0  501    0  0.00000000000E+00 -0.00000000000E+00 -0.12126559622E+04  0.12126559622E+04  0.00000000000E+00 0.  1.
         23    2    1    2    0    0 -0.70928878752E+03 -0.20173004788E+03 -0.95495872097E+03  0.12098256387E+04  0.89142139305E+02 0.  0.
         11    1    3    3    0    0 -0.20137397222E+03 -0.63517023045E+02 -0.21127443245E+03  0.29870181572E+03  0.00000000000E+00 0. -1.
        -11    1    3    3    0    0 -0.50791481529E+03 -0.13821302483E+03 -0.74368428851E+03  0.91112382299E+03  0.00000000000E+00 0.  1.
         22    1    1    2    0    0  0.70928878752E+03  0.20173004788E+03  0.91336013651E+03  0.11738877013E+04  0.00000000000E+00 0. -1.
<mgrwt>
<rscale>  0 0.23833503E+04</rscale>
<asrwt>0</asrwt>
<pdfrwt beam="1">  1        2 0.18656246E+00 0.23833503E+04</pdfrwt>
<pdfrwt beam="2">  1       -2 0.18016267E+00 0.23833503E+04</pdfrwt>
<totfact> 0.30314079E+00</totfact>
</mgrwt>
</event>
<event>
 6    1  0.2325157E-005  0.3506606E+04  0.7818608E-02  0.8112226E-01
         -2   -1    0    0    0  501 -0.00000000000E+00  0.00000000000E+00  0.13018146292E+04  0.13018146292E+04  0.00000000000E+00 0. -1.
          2   -1    0    0  501    0  0.00000000000E+00 -0.00000000000E+00 -0.23613734997E+04  0.23613734997E+04  0.00000000000E+00 0.  1.
         23    2    1    2    0    0  0.77170508151E+03  0.11764198846E+04 -0.16209213084E+04  0.21483877247E+04  0.93227945501E+02 0.  0.
         13    1    3    3    0    0  0.34528330941E+03  0.55499732479E+03 -0.81976254997E+03  0.10484527803E+04  0.00000000000E+00 0. -1.
        -13    1    3    3    0    0  0.42642177210E+03  0.62142255983E+03 -0.80115875848E+03  0.10999349444E+04  0.00000000000E+00 0.  1.
         22    1    1    2    0    0 -0.77170508151E+03 -0.11764198846E+04  0.56136243798E+03  0.15148004042E+04  0.00000000000E+00 0. -1.
<mgrwt>
<rscale>  0 0.35066055E+04</rscale>
<asrwt>0</asrwt>
<pdfrwt beam="1">  1        2 0.36328823E+00 0.35066055E+04</pdfrwt>
<pdfrwt beam="2">  1       -2 0.20027917E+00 0.35066055E+04</pdfrwt>
<totfact> 0.45497418E-01</totfact>
</mgrwt>
</event>
<event>
 6    1  0.2325157E-005  0.3652047E+03  0.7818608E-02  0.1056542E+00
         -2   -1    0    0    0  501 -0.00000000000E+00  0.00000000000E+00  0.91534387957E+02  0.91534387957E+02  0.00000000000E+00 0. -1.
          2   -1    0    0  501    0  0.00000000000E+00 -0.00000000000E+00 -0.36427425443E+03  0.36427425443E+03  0.00000000000E+00 0.  1.
         23    2    1    2    0    0  0.56739432535E+02 -0.86178052429E+02  0.25422075326E+02  0.14029863706E+03  0.91604616269E+02 0.  0.
         11    1    3    3    0    0  0.45269059789E+02 -0.10081440098E+03  0.21800818975E+01  0.11053318043E+03  0.00000000000E+00 0.  1.
        -11    1    3    3    0    0  0.11470372746E+02  0.14636348549E+02  0.23241993429E+02  0.29765456629E+02  0.00000000000E+00 0. -1.
         22    1    1    2    0    0 -0.56739432535E+02  0.86178052429E+02 -0.29816194180E+03  0.31551000533E+03  0.00000000000E+00 0.  1.
<mgrwt>
<rscale>  0 0.36520471E+03</rscale>
<asrwt>0</asrwt>
<pdfrwt beam="1">  1        2 0.56042195E-01 0.36520471E+03</pdfrwt>
<pdfrwt beam="2">  1       -2 0.14082213E-01 0.36520471E+03</pdfrwt>
<totfact> 0.33785327E+03</totfact>
</mgrwt>
</event>
<event>
 6    1  0.2325157E-005  0.3401248E+04  0.7818608E-02  0.8137600E-01
         -2   -1    0    0    0  501 -0.00000000000E+00  0.00000000000E+00  0.14390887360E+04  0.14390887360E+04  0.00000000000E+00 0. -1.
          2   -1    0    0  501    0  0.00000000000E+00 -0.00000000000E+00 -0.20096895996E+04  0.20096895996E+04  0.00000000000E+00 0.  1.
         23    2    1    2    0    0  0.13295980401E+04  0.74291852238E+03 -0.10497467554E+04  0.18521131657E+04  0.92714881217E+02 0.  0.
         11    1    3    3    0    0  0.48404561638E+02  0.13809249902E+02 -0.21165264955E+02  0.54604628108E+02  0.00000000000E+00 0.  1.
        -11    1    3    3    0    0  0.12811934784E+04  0.72910927248E+03 -0.10285814904E+04  0.17975085376E+04  0.00000000000E+00 0. -1.
         22    1    1    2    0    0 -0.13295980401E+04 -0.74291852238E+03  0.47914589175E+03  0.15966651699E+04  0.00000000000E+00 0. -1.
<mgrwt>
<rscale>  0 0.34012478E+04</rscale>
<asrwt>0</asrwt>
<pdfrwt beam="1">  1        2 0.30918301E+00 0.34012478E+04</pdfrwt>
<pdfrwt beam="2">  1       -2 0.22139827E+00 0.34012478E+04</pdfrwt>
<totfact> 0.52937406E-01</totfact>
</mgrwt>
</event>
<event>
 6    1  0.2325157E-005  0.1091494E+04  0.7818608E-02  0.9213522E-01
          2   -1    0    0  501    0  0.00000000000E+00  0.00000000000E+00  0.15225078771E+04  0.15225078771E+04  0.00000000000E+00 0.  1.
         -2   -1    0    0    0  501 -0.00000000000E+00 -0.00000000000E+00 -0.19562459664E+03  0.19562459664E+03  0.00000000000E+00 0. -1.
         23    2    1    2    0    0  0.37612911385E+03 -0.15260344916E+02  0.55857011323E+02  0.39253307525E+03  0.96209256530E+02 0.  0.
         11    1    3    3    0    0  0.82978043751E+02  0.74762027213E+01 -0.26076003289E+02  0.87299526341E+02  0.00000000000E+00 0.  1.
        -11    1    3    3    0    0  0.29315107010E+03 -0.22736547637E+02  0.81933014612E+02  0.30523354891E+03  0.00000000000E+00 0. -1.
         22    1    1    2    0    0 -0.37612911385E+03  0.15260344916E+02  0.12710262692E+04  0.13255993985E+04  0.00000000000E+00 0.  1.
<mgrwt>
<rscale>  0 0.10914944E+04</rscale>
<asrwt>0</asrwt>
<pdfrwt beam="1">  1        2 0.23423197E+00 0.10914944E+04</pdfrwt>
<pdfrwt beam="2">  1       -2 0.30096093E-01 0.10914944E+04</pdfrwt>
<totfact> 0.12473711E+02</totfact>
</mgrwt>
</event>
<event>
 6    1  0.2325157E-005  0.6075286E+04  0.7818608E-02  0.7681137E-01
          2   -1    0    0  501    0  0.00000000000E+00  0.00000000000E+00  0.18381667913E+04  0.18381667913E+04  0.00000000000E+00 0.  1.
         -2   -1    0    0    0  501 -0.00000000000E+00 -0.00000000000E+00 -0.50198241570E+04  0.50198241570E+04  0.00000000000E+00 0. -1.
         23    2    1    2    0    0 -0.30645752339E+03 -0.27623157445E+03 -0.49875755177E+04  0.50055437916E+04  0.96638544218E+02 0.  0.
         13    1    3    3    0    0 -0.30425812317E+03 -0.24020546085E+03 -0.45583674296E+04  0.45748207934E+04  0.00000000000E+00 0. -1.
        -13    1    3    3    0    0 -0.21994002249E+01 -0.36026113602E+02 -0.42920808815E+03  0.43072299817E+03  0.00000000000E+00 0.  1.
         22    1    1    2    0    0  0.30645752339E+03  0.27623157445E+03  0.18059181521E+04  0.18524471567E+04  0.00000000000E+00 0.  1.
<mgrwt>
<rscale>  0 0.60752857E+04</rscale>
<asrwt>0</asrwt>
<pdfrwt beam="1">  1        2 0.28279489E+00 0.60752857E+04</pdfrwt>
<pdfrwt beam="2">  1       -2 0.77228064E+00 0.60752857E+04</pdfrwt>
<totfact> 0.62176180E-04</totfact>
</mgrwt>
</event>
<event>
 6    1  0.2325157E-005  0.2167436E+04  0.7818608E-02  0.8532105E-01
         -1   -1    0    0    0  501 -0.00000000000E+00  0.00000000000E+00  0.99900350364E+03  0.99900350364E+03  0.00000000000E+00 0. -1.
          1   -1    0    0  501    0  0.00000000000E+00 -0.00000000000E+00 -0.11756162070E+04  0.11756162070E+04  0.00000000000E+00 0.  1.
         23    2    1    2    0    0  0.89035866478E+03  0.56336587930E+03  0.15720124726E+03  0.10693815374E+04  0.93514568221E+02 0.  0.
         13    1    3    3    0    0  0.78302900218E+03  0.48242517901E+03  0.10712516070E+03  0.92592886965E+03  0.00000000000E+00 0. -1.
        -13    1    3    3    0    0  0.10732966260E+03  0.80940700290E+02  0.50076086560E+02  0.14345266774E+03  0.00000000000E+00 0.  1.
         22    1    1    2    0    0 -0.89035866478E+03 -0.56336587930E+03 -0.33381395059E+03  0.11052381732E+04  0.00000000000E+00 0.  1.
<mgrwt>
<rscale>  0 0.21674360E+04</rscale>
<asrwt>0</asrwt>
<pdfrwt beam="1">  1        1 0.18086403E+00 0.21674360E+04</pdfrwt>
<pdfrwt beam="2">  1       -1 0.15369285E+00 0.21674360E+04</pdfrwt>
<totfact> 0.33255988E+00</totfact>
</mgrwt>
</event>
<event>
 6    1  0.2325157E-005  0.2490733E+04  0.7818608E-02  0.8406295E-01
         -2   -1    0    0    0  501 -0.00000000000E+00  0.00000000000E+00  0.80996469216E+03  0.80996469216E+03  0.00000000000E+00 0. -1.
          2   -1    0    0  501    0  0.00000000000E+00 -0.00000000000E+00 -0.19148206735E+04  0.19148206735E+04  0.00000000000E+00 0.  1.
         23    2    1    2    0    0 -0.11080622911E+04  0.15352749963E+03 -0.11473128051E+04  0.16053322331E+04  0.96913217813E+02 0.  0.
         11    1    3    3    0    0 -0.47127195654E+03  0.10406161309E+03 -0.45287837687E+03  0.66183449636E+03  0.00000000000E+00 0.  1.
        -11    1    3    3    0    0 -0.63679033460E+03  0.49465886543E+02 -0.69443442823E+03  0.94349773677E+03  0.00000000000E+00 0. -1.
         22    1    1    2    0    0  0.11080622911E+04 -0.15352749963E+03  0.42456823711E+02  0.11194531326E+04  0.00000000000E+00 0. -1.
<mgrwt>
<rscale>  0 0.24907325E+04</rscale>
<asrwt>0</asrwt>
<pdfrwt beam="1">  1        2 0.29458779E+00 0.24907325E+04</pdfrwt>
<pdfrwt beam="2">  1       -2 0.12460995E+00 0.24907325E+04</pdfrwt>
<totfact> 0.32140157E+00</totfact>
</mgrwt>
</event>
<event>
 6    1  0.2325157E-005  0.5643110E+03  0.7818608E-02  0.9982347E-01
          2   -1    0    0  501    0  0.00000000000E+00  0.00000000000E+00  0.25246412296E+04  0.25246412296E+04  0.00000000000E+00 0.  1.
         -2   -1    0    0    0  501 -0.00000000000E+00 -0.00000000000E+00 -0.31533882252E+02  0.31533882252E+02  0.00000000000E+00 0. -1.
         23    2    1    2    0    0  0.13296823875E+03  0.20513854214E+03  0.18516002285E+04  0.18696667306E+04  0.86417031734E+02 0.  0.
         13    1    3    3    0    0  0.23045007637E+01  0.74339602377E+02  0.51827459314E+03  0.52358403442E+03  0.00000000000E+00 0.  1.
        -13    1    3    3    0    0  0.13066373799E+03  0.13079893976E+03  0.13333256354E+04  0.13460826962E+04  0.00000000000E+00 0. -1.
         22    1    1    2    0    0 -0.13296823875E+03 -0.20513854214E+03  0.64150711888E+03  0.68650838128E+03  0.00000000000E+00 0. -1.
<mgrwt>
<rscale>  0 0.56431105E+03</rscale>
<asrwt>0</asrwt>
<pdfrwt beam="1">  1        2 0.38840618E+00 0.56431105E+03</pdfrwt>
<pdfrwt beam="2">  1       -2 0.48513685E-02 0.56431105E+03</pdfrwt>
<totfact> 0.76880505E+02</totfact>
</mgrwt>
</event>
<event>
 6    1  0.2325157E-005  0.9556854E+03  0.7818608E-02  0.9358530E-01
          2   -1    0    0  501    0  0.00000000000E+00  0.00000000000E+00  0.27904371917E+03  0.27904371917E+03  0.00000000000E+00 0.  1.
         -2   -1    0    0    0  501 -0.00000000000E+00 -0.00000000000E+00 -0.81827189826E+03  0.81827189826E+03  0.00000000000E+00 0. -1.
         23    2    1    2    0    0 -0.48335020262E+02 -0.20898350316E+03 -0.75671084552E+03  0.79185025283E+03  0.91679552774E+02 0.  0.
         11    1    3    3    0    0 -0.44404162205E+02 -0.79177174021E+02 -0.19171066618E+03  0.21211726482E+03  0.00000000000E+00 0.  1.
        -11    1    3    3    0    0 -0.39308580579E+01 -0.12980632913E+03 -0.56500017934E+03  0.57973298801E+03  0.00000000000E+00 0. -1.
         22    1    1    2    0    0  0.48335020262E+02  0.20898350316E+03  0.21748266643E+03  0.30546536460E+03  0.00000000000E+00 0.  1.
<mgrwt>
<rscale>  0 0.95568537E+03</rscale>
<asrwt>0</asrwt>
<pdfrwt beam="1">  1        2 0.42929803E-01 0.95568537E+03</pdfrwt>
<pdfrwt beam="2">  1       -2 0.12588798E+00 0.95568537E+03</pdfrwt>
<totfact> 0.56069686E+01</totfact>
</mgrwt>
</event>
<event>
 6    1  0.2325157E-005  0.2120725E+04  0.7818608E-02  0.8552168E-01
          2   -1    0    0  501    0  0.00000000000E+00  0.00000000000E+00  0.11914850963E+04  0.11914850963E+04  0.00000000000E+00 0.  1.
         -2   -1    0    0    0  501 -0.00000000000E+00 -0.00000000000E+00 -0.94366972887E+03  0.94366972887E+03  0.00000000000E+00 0. -1.
         23    2    1    2    0    0 -0.35604105849E+03  0.85592286598E+03  0.63850662214E+03  0.11291683221E+04  0.89225586116E+02 0.  0.
         11    1    3    3    0    0 -0.17186640385E+03  0.49421864473E+03  0.32124996620E+03  0.61399647422E+03  0.00000000000E+00 0. -1.
        -11    1    3    3    0    0 -0.18417465464E+03  0.36170422125E+03  0.31725665593E+03  0.51517184785E+03  0.00000000000E+00 0.  1.
         22    1    1    2    0    0  0.35604105849E+03 -0.85592286598E+03 -0.39069125474E+03  0.10059865031E+04  0.00000000000E+00 0. -1.
<mgrwt>
<rscale>  0 0.21207248E+04</rscale>
<asrwt>0</asrwt>
<pdfrwt beam="1">  1        2 0.18330540E+00 0.21207248E+04</pdfrwt>
<pdfrwt beam="2">  1       -2 0.14517996E+00 0.21207248E+04</pdfrwt>
<totfact> 0.57591206E+00</totfact>
</mgrwt>
</event>
<event>
 6    1  0.2325157E-005  0.4281065E+04  0.7818608E-02  0.7950129E-01
          2   -1    0    0  501    0  0.00000000000E+00  0.00000000000E+00  0.20653502018E+04  0.20653502018E+04  0.00000000000E+00 0.  1.
         -2   -1    0    0    0  501 -0.00000000000E+00 -0.00000000000E+00 -0.22184515591E+04  0.22184515591E+04  0.00000000000E+00 0. -1.
         23    2    1    2    0    0 -0.74206629534E+03  0.11110831457E+04  0.15954936028E+04  0.20831762867E+04  0.94103461943E+02 0.  0.
         11    1    3    3    0    0 -0.58731338165E+03  0.86424377972E+03  0.11864515481E+04  0.15809875380E+04  0.00000000000E+00 0.  1.
        -11    1    3    3    0    0 -0.15475291369E+03  0.24683936595E+03  0.40904205469E+03  0.50218874876E+03  0.00000000000E+00 0. -1.
         22    1    1    2    0    0  0.74206629534E+03 -0.11110831457E+04 -0.17485949601E+04  0.22006254743E+04  0.00000000000E+00 0. -1.
<mgrwt>
<rscale>  0 0.42810650E+04</rscale>
<asrwt>0</asrwt>
<pdfrwt beam="1">  1        2 0.31774618E+00 0.42810650E+04</pdfrwt>
<pdfrwt beam="2">  1       -2 0.34130024E+00 0.42810650E+04</pdfrwt>
<totfact> 0.83604874E-02</totfact>
</mgrwt>
</event>
<event>
 6    1  0.2325157E-005  0.1100443E+04  0.7818608E-02  0.9204761E-01
         -2   -1    0    0    0  501 -0.00000000000E+00  0.00000000000E+00  0.14463038015E+03  0.14463038015E+03  0.00000000000E+00 0. -1.
          2   -1    0    0  501    0  0.00000000000E+00 -0.00000000000E+00 -0.20932216392E+04  0.20932216392E+04  0.00000000000E+00 0.  1.
         23    2    1    2    0    0  0.31966048610E+01  0.39860536519E+03 -0.22073255811E+03  0.46460862210E+03  0.90784657718E+02 0.  0.
         13    1    3    3    0    0 -0.23365906552E+02  0.28539502606E+03 -0.11895753226E+03  0.31007608900E+03  0.00000000000E+00 0.  1.
        -13    1    3    3    0    0  0.26562511413E+02  0.11321033913E+03 -0.10177502585E+03  0.15453253310E+03  0.00000000000E+00 0. -1.
         22    1    1    2    0    0 -0.31966048610E+01 -0.39860536519E+03 -0.17278587010E+04  0.17732433973E+04  0.00000000000E+00 0.  1.
<mgrwt>
<rscale>  0 0.11004425E+04</rscale>
<asrwt>0</asrwt>
<pdfrwt beam="1">  1        2 0.32203410E+00 0.11004425E+04</pdfrwt>
<pdfrwt beam="2">  1       -2 0.22250828E-01 0.11004425E+04</pdfrwt>
<totfact> 0.10445465E+02</totfact>
</mgrwt>
</event>
<event>
 6    1  0.2325157E-005  0.4709154E+04  0.7818608E-02  0.7875009E-01
          2   -1    0    0  501    0  0.00000000000E+00  0.00000000000E+00  0.30027569753E+04  0.30027569753E+04  0.00000000000E+00 0.  1.
         -2   -1    0    0    0  501 -0.00000000000E+00 -0.00000000000E+00 -0.18463144591E+04  0.18463144591E+04  0.00000000000E+00 0. -1.
         23    2    1    2    0    0 -0.21413075775E+04 -0.94157815344E+03  0.30949385474E+03  0.23612833414E+04  0.90027839818E+02 0.  0.
         13    1    3    3    0    0 -0.12825683646E+04 -0.52971394473E+03  0.15204981136E+03  0.13959575990E+04  0.00000000000E+00 0.  1.
        -13    1    3    3    0    0 -0.85873921284E+03 -0.41186420871E+03  0.15744404338E+03  0.96532574237E+03  0.00000000000E+00 0. -1.
         22    1    1    2    0    0  0.21413075775E+04  0.94157815344E+03  0.84694866152E+03  0.24877880930E+04  0.00000000000E+00 0.  1.
<mgrwt>
<rscale>  0 0.47091543E+04</rscale>
<asrwt>0</asrwt>
<pdfrwt beam="1">  1        2 0.46196261E+00 0.47091543E+04</pdfrwt>
<pdfrwt beam="2">  1       -2 0.28404838E+00 0.47091543E+04</pdfrwt>
<totfact> 0.51376469E-02</totfact>
</mgrwt>
</event>
<event>
 6    1  0.2325157E-005  0.3247563E+04  0.7818608E-02  0.8176368E-01
         -2   -1    0    0    0  501 -0.00000000000E+00  0.00000000000E+00  0.10893485847E+04  0.10893485847E+04  0.00000000000E+00 0. -1.
          2   -1    0    0  501    0  0.00000000000E+00 -0.00000000000E+00 -0.24204066381E+04  0.24204066381E+04  0.00000000000E+00 0.  1.
         23    2    1    2    0    0  0.23147990002E+03  0.52692618705E+03 -0.23055592837E+04  0.23779925274E+04  0.89502509235E+02 0.  0.
         13    1    3    3    0    0 -0.54933939352E+01  0.28508108189E+02 -0.82719953033E+02  0.87666870819E+02  0.00000000000E+00 0. -1.
        -13    1    3    3    0    0  0.23697329396E+03  0.49841807886E+03 -0.22228393306E+04  0.22903256566E+04  0.00000000000E+00 0.  1.
         22    1    1    2    0    0 -0.23147990002E+03 -0.52692618705E+03  0.97450123031E+03  0.11317626954E+04  0.00000000000E+00 0. -1.
<mgrwt>
<rscale>  0 0.32475631E+04</rscale>
<asrwt>0</asrwt>
<pdfrwt beam="1">  1        2 0.37237025E+00 0.32475631E+04</pdfrwt>
<pdfrwt beam="2">  1       -2 0.16759209E+00 0.32475631E+04</pdfrwt>
<totfact> 0.71968355E-01</totfact>
</mgrwt>
</event>
<event>
 6    1  0.2325157E-005  0.7909507E+03  0.7818608E-02  0.9573209E-01
         -2   -1    0    0    0  501 -0.00000000000E+00  0.00000000000E+00  0.10716246376E+03  0.10716246376E+03  0.00000000000E+00 0. -1.
          2   -1    0    0  501    0  0.00000000000E+00 -0.00000000000E+00 -0.14594733969E+04  0.14594733969E+04  0.00000000000E+00 0.  1.
         23    2    1    2    0    0 -0.12884640132E+02  0.29950216914E+03 -0.11797329366E+04  0.12207301970E+04  0.92438351548E+02 0.  0.
         13    1    3    3    0    0 -0.43900485632E+02  0.24872158223E+03 -0.10000862998E+04  0.10314854750E+04  0.00000000000E+00 0.  1.
        -13    1    3    3    0    0  0.31015845500E+02  0.50780586909E+02 -0.17964663685E+03  0.18924472201E+03  0.00000000000E+00 0. -1.
         22    1    1    2    0    0  0.12884640132E+02 -0.29950216914E+03 -0.17257799649E+03  0.34590566364E+03  0.00000000000E+00 0. -1.
<mgrwt>
<rscale>  0 0.79095073E+03</rscale>
<asrwt>0</asrwt>
<pdfrwt beam="1">  1        2 0.22453435E+00 0.79095073E+03</pdfrwt>
<pdfrwt beam="2">  1       -2 0.16486534E-01 0.79095073E+03</pdfrwt>
<totfact> 0.40302601E+02</totfact>
</mgrwt>
</event>
<event>
 6    1  0.2325157E-005  0.1377438E+04  0.7818608E-02  0.8970314E-01
          1   -1    0    0  501    0  0.00000000000E+00  0.00000000000E+00  0.24107383759E+03  0.24107383759E+03  0.00000000000E+00 0.  1.
         -1   -1    0    0    0  501 -0.00000000000E+00 -0.00000000000E+00 -0.19675879731E+04  0.19675879731E+04  0.00000000000E+00 0. -1.
         23    2    1    2    0    0  0.61906674856E+03  0.45588844630E+02 -0.13343239169E+04  0.14744035799E+04  0.90131122352E+02 0.  0.
         13    1    3    3    0    0  0.32798071218E+03 -0.20620053207E+02 -0.68581586151E+03  0.76048664029E+03  0.00000000000E+00 0. -1.
        -13    1    3    3    0    0  0.29108603638E+03  0.66208897837E+02 -0.64850805541E+03  0.71391693961E+03  0.00000000000E+00 0.  1.
         22    1    1    2    0    0 -0.61906674856E+03 -0.45588844630E+02 -0.39219021860E+03  0.73425823080E+03  0.00000000000E+00 0.  1.
<mgrwt>
<rscale>  0 0.13774382E+04</rscale>
<asrwt>0</asrwt>
<pdfrwt beam="1">  1        1 0.37088282E-01 0.13774382E+04</pdfrwt>
<pdfrwt beam="2">  1       -1 0.30270585E+00 0.13774382E+04</pdfrwt>
<totfact> 0.36265990E+00</totfact>
</mgrwt>
</event>
<event>
 6    1  0.2325157E-005  0.1644741E+04  0.7818608E-02  0.8793523E-01
          2   -1    0    0  501    0  0.00000000000E+00  0.00000000000E+00  0.15360267819E+04  0.15360267819E+04  0.00000000000E+00 0.  1.
         -2   -1    0    0    0  501 -0.00000000000E+00 -0.00000000000E+00 -0.44028762856E+03  0.44028762856E+03  0.00000000000E+00 0. -1.
         23    2    1    2    0    0  0.25003434045E+02 -0.37175017669E+03  0.14276745878E+04  0.14773109053E+04  0.73276304952E+02 0.  0.
         11    1    3    3    0    0  0.32509232267E+02 -0.21234899476E+03  0.69426136745E+03  0.72673777395E+03  0.00000000000E+00 0. -1.
        -11    1    3    3    0    0 -0.75057982221E+01 -0.15940118193E+03  0.73341322030E+03  0.75057313136E+03  0.00000000000E+00 0.  1.
         22    1    1    2    0    0 -0.25003434045E+02  0.37175017669E+03 -0.33193543438E+03  0.49900350518E+03  0.00000000000E+00 0. -1.
<mgrwt>
<rscale>  0 0.16447414E+04</rscale>
<asrwt>0</asrwt>
<pdfrwt beam="1">  1        2 0.23631181E+00 0.16447414E+04</pdfrwt>
<pdfrwt beam="2">  1       -2 0.67736559E-01 0.16447414E+04</pdfrwt>
<totfact> 0.23114809E+01</totfact>
</mgrwt>
</event>
<event>
 6    1  0.2325157E-005  0.3209048E+04  0.7818608E-02  0.8186432E-01
          2   -1    0    0  501    0  0.00000000000E+00  0.00000000000E+00  0.20624868201E+04  0.20624868201E+04  0.00000000000E+00 0.  1.
         -2   -1    0    0    0  501 -0.00000000000E+00 -0.00000000000E+00 -0.12482492592E+04  0.12482492592E+04  0.00000000000E+00 0. -1.
         23    2    1    2    0    0  0.51487123563E+03 -0.58682161071E+03  0.18522218127E+04  0.20119430632E+04  0.87961662311E+02 0.  0.
         13    1    3    3    0    0  0.41256566956E+03 -0.50361033853E+03  0.14732689026E+04  0.16107001782E+04  0.00000000000E+00 0. -1.
        -13    1    3    3    0    0  0.10230556607E+03 -0.83211272180E+02  0.37895291009E+03  0.40124288497E+03  0.00000000000E+00 0.  1.
         22    1    1    2    0    0 -0.51487123563E+03  0.58682161071E+03 -0.10379842518E+04  0.12987930162E+04  0.00000000000E+00 0.  1.
<mgrwt>
<rscale>  0 0.32090482E+04</rscale>
<asrwt>0</asrwt>
<pdfrwt beam="1">  1        2 0.31730566E+00 0.32090482E+04</pdfrwt>
<pdfrwt beam="2">  1       -2 0.19203835E+00 0.32090482E+04</pdfrwt>
<totfact> 0.77938555E-01</totfact>
</mgrwt>
</event>
<event>
 6    1  0.2325157E-005  0.2123524E+04  0.7818608E-02  0.8550951E-01
          1   -1    0    0  501    0  0.00000000000E+00  0.00000000000E+00  0.79486785153E+03  0.79486785153E+03  0.00000000000E+00 0. -1.
         -1   -1    0    0    0  501 -0.00000000000E+00 -0.00000000000E+00 -0.14182718777E+04  0.14182718777E+04  0.00000000000E+00 0.  1.
         23    2    1    2    0    0 -0.58744978786E+03  0.42468331234E+03 -0.11180822828E+04  0.13355522711E+04  0.90214792262E+02 0.  0.
         11    1    3    3    0    0 -0.52451717828E+03  0.37277484148E+03 -0.93408532366E+03  0.11342815985E+04  0.00000000000E+00 0. -1.
        -11    1    3    3    0    0 -0.62932609584E+02  0.51908470866E+02 -0.18399695916E+03  0.20127067266E+03  0.00000000000E+00 0.  1.
         22    1    1    2    0    0  0.58744978786E+03 -0.42468331234E+03  0.49467825663E+03  0.87758745811E+03  0.00000000000E+00 0. -1.
<mgrwt>
<rscale>  0 0.21235242E+04</rscale>
<asrwt>0</asrwt>
<pdfrwt beam="1">  1        1 0.12228736E+00 0.21235242E+04</pdfrwt>
<pdfrwt beam="2">  1       -1 0.21819567E+00 0.21235242E+04</pdfrwt>
<totfact> 0.23199400E+00</totfact>
</mgrwt>
</event>
<event>
 6    1  0.2325157E-005  0.1074129E+04  0.7818608E-02  0.9230780E-01
         -2   -1    0    0    0  501 -0.00000000000E+00  0.00000000000E+00  0.47763658822E+03  0.47763658822E+03  0.00000000000E+00 0. -1.
          2   -1    0    0  501    0  0.00000000000E+00 -0.00000000000E+00 -0.60388701549E+03  0.60388701549E+03  0.00000000000E+00 0.  1.
         23    2    1    2    0    0  0.22616408728E+03  0.37282799121E+03  0.24661602917E+03  0.50778124015E+03  0.82894008212E+02 0.  0.
         13    1    3    3    0    0  0.93098811940E+02  0.12104371724E+03  0.46185851092E+02  0.15953715275E+03  0.00000000000E+00 0. -1.
        -13    1    3    3    0    0  0.13306527534E+03  0.25178427397E+03  0.20043017808E+03  0.34824408740E+03  0.00000000000E+00 0.  1.
         22    1    1    2    0    0 -0.22616408728E+03 -0.37282799121E+03 -0.37286645644E+03  0.57374236356E+03  0.00000000000E+00 0. -1.
<mgrwt>
<rscale>  0 0.10741295E+04</rscale>
<asrwt>0</asrwt>
<pdfrwt beam="1">  1        2 0.92905694E-01 0.10741295E+04</pdfrwt>
<pdfrwt beam="2">  1       -2 0.73482552E-01 0.10741295E+04</pdfrwt>
<totfact> 0.81808390E+01</totfact>
</mgrwt>
</event>
<event>
 6    1  0.2325157E-005  0.9853954E+03  0.7818608E-02  0.9324710E-01
         -2   -1    0    0    0  501 -0.00000000000E+00  0.00000000000E+00  0.33952282367E+03  0.33952282367E+03  0.00000000000E+00 0. -1.
          2   -1    0    0  501    0  0.00000000000E+00 -0.00000000000E+00 -0.71497697952E+03  0.71497697952E+03  0.00000000000E+00 0.  1.
         23    2    1    2    0    0 -0.14831252314E+03 -0.11751861984E+03  0.29202266558E+03  0.36071847044E+03  0.95043922367E+02 0.  0.
         13    1    3    3    0    0 -0.75390232097E+02 -0.90151654430E+02  0.23948905727E+03  0.26676959430E+03  0.00000000000E+00 0.  1.
        -13    1    3    3    0    0 -0.72922291039E+02 -0.27366965410E+02  0.52533608308E+02  0.93948876140E+02  0.00000000000E+00 0. -1.
         22    1    1    2    0    0  0.14831252314E+03  0.11751861984E+03 -0.66747682142E+03  0.69378133274E+03  0.00000000000E+00 0.  1.
<mgrwt>
<rscale>  0 0.98539536E+03</rscale>
<asrwt>0</asrwt>
<pdfrwt beam="1">  1        2 0.10999646E+00 0.98539536E+03</pdfrwt>
<pdfrwt beam="2">  1       -2 0.52234282E-01 0.98539536E+03</pdfrwt>
<totfact> 0.13788968E+02</totfact>
</mgrwt>
</event>
<event>
 6    1  0.2325157E-005  0.3546082E+04  0.7818608E-02  0.8102955E-01
         -2   -1    0    0    0  501 -0.00000000000E+00  0.00000000000E+00  0.10360083157E+04  0.10360083157E+04  0.00000000000E+00 0. -1.
          2   -1    0    0  501    0  0.00000000000E+00 -0.00000000000E+00 -0.30344109247E+04  0.30344109247E+04  0.00000000000E+00 0.  1.
         23    2    1    2    0    0 -0.41696973469E+02  0.13150523387E+04  0.36247849676E+03  0.13676686254E+04  0.89585252044E+02 0.  0.
         11    1    3    3    0    0 -0.10248171793E+02  0.71155710319E+03  0.24046212983E+03  0.75115948507E+03  0.00000000000E+00 0. -1.
        -11    1    3    3    0    0 -0.31448801676E+02  0.60349523548E+03  0.12201636693E+03  0.61650914038E+03  0.00000000000E+00 0.  1.
         22    1    1    2    0    0  0.41696973469E+02 -0.13150523387E+04 -0.23608811057E+04  0.27027506149E+04  0.00000000000E+00 0.  1.
<mgrwt>
<rscale>  0 0.35460823E+04</rscale>
<asrwt>0</asrwt>
<pdfrwt beam="1">  1        2 0.46683244E+00 0.35460823E+04</pdfrwt>
<pdfrwt beam="2">  1       -2 0.15938590E+00 0.35460823E+04</pdfrwt>
<totfact> 0.34490425E-01</totfact>
</mgrwt>
</event>
<event>
 6    1  0.2325157E-005  0.2123167E+04  0.7818608E-02  0.8551106E-01
          2   -1    0    0  501    0  0.00000000000E+00  0.00000000000E+00  0.18397819560E+04  0.18397819560E+04  0.00000000000E+00 0.  1.
         -2   -1    0    0    0  501 -0.00000000000E+00 -0.00000000000E+00 -0.61255081798E+03  0.61255081798E+03  0.00000000000E+00 0. -1.
         23    2    1    2    0    0 -0.76983789971E+03 -0.70770531035E+03  0.81274874684E+03  0.13274804056E+04  0.90257983751E+02 0.  0.
         13    1    3    3    0    0 -0.59317515383E+03 -0.58402066406E+03  0.67360371299E+03  0.10708309210E+04  0.00000000000E+00 0.  1.
        -13    1    3    3    0    0 -0.17666274588E+03 -0.12368464628E+03  0.13914503384E+03  0.25664948461E+03  0.00000000000E+00 0. -1.
         22    1    1    2    0    0  0.76983789971E+03  0.70770531035E+03  0.41448239123E+03  0.11248523684E+04  0.00000000000E+00 0. -1.
<mgrwt>
<rscale>  0 0.21231674E+04</rscale>
<asrwt>0</asrwt>
<pdfrwt beam="1">  1        2 0.28304338E+00 0.21231674E+04</pdfrwt>
<pdfrwt beam="2">  1       -2 0.94238588E-01 0.21231674E+04</pdfrwt>
<totfact> 0.71637023E+00</totfact>
</mgrwt>
</event>
<event>
 6    1  0.2325157E-005  0.3308995E+04  0.7818608E-02  0.8160610E-01
         -2   -1    0    0    0  501 -0.00000000000E+00  0.00000000000E+00  0.29025226917E+04  0.29025226917E+04  0.00000000000E+00 0. -1.
          2   -1    0    0  501    0  0.00000000000E+00 -0.00000000000E+00 -0.94309751397E+03  0.94309751397E+03  0.00000000000E+00 0.  1.
         23    2    1    2    0    0  0.91881763520E+01 -0.13909510643E+04  0.20189071453E+04  0.24533675739E+04  0.90537869094E+02 0.  0.
         11    1    3    3    0    0  0.11658555239E+02 -0.71505596484E+03  0.95911725571E+03  0.11963890943E+04  0.00000000000E+00 0.  1.
        -11    1    3    3    0    0 -0.24703788866E+01 -0.67589509950E+03  0.10597898895E+04  0.12569784796E+04  0.00000000000E+00 0. -1.
         22    1    1    2    0    0 -0.91881763520E+01  0.13909510643E+04 -0.59481967565E+02  0.13922526317E+04  0.00000000000E+00 0.  1.
<mgrwt>
<rscale>  0 0.33089950E+04</rscale>
<asrwt>0</asrwt>
<pdfrwt beam="1">  1        2 0.14509193E+00 0.33089950E+04</pdfrwt>
<pdfrwt beam="2">  1       -2 0.44654195E+00 0.33089950E+04</pdfrwt>
<totfact> 0.83663576E-02</totfact>
</mgrwt>
</event>
<event>
 6    1  0.2325157E-005  0.2587668E+04  0.7818608E-02  0.8372402E-01
         -2   -1    0    0    0  501 -0.00000000000E+00  0.00000000000E+00  0.67331661408E+03  0.67331661408E+03  0.00000000000E+00 0. -1.
          2   -1    0    0  501    0  0.00000000000E+00 -0.00000000000E+00 -0.24862106267E+04  0.24862106267E+04  0.00000000000E+00 0.  1.
         23    2    1    2    0    0  0.32532286893E+02  0.12836384265E+04 -0.10845894139E+04  0.16833112850E+04  0.91742714455E+02 0.  0.
         13    1    3    3    0    0 -0.21293660662E+02  0.66994576718E+03 -0.53213265719E+03  0.85583054151E+03  0.00000000000E+00 0.  1.
        -13    1    3    3    0    0  0.53825947555E+02  0.61369265933E+03 -0.55245675676E+03  0.82748074348E+03  0.00000000000E+00 0. -1.
         22    1    1    2    0    0 -0.32532286893E+02 -0.12836384265E+04 -0.72830459872E+03  0.14762159558E+04  0.00000000000E+00 0. -1.
<mgrwt>
<rscale>  0 0.25876684E+04</rscale>
<asrwt>0</asrwt>
<pdfrwt beam="1">  1        2 0.38249393E+00 0.25876684E+04</pdfrwt>
<pdfrwt beam="2">  1       -2 0.10358717E+00 0.25876684E+04</pdfrwt>
<totfact> 0.23836524E+00</totfact>
</mgrwt>
</event>
<event>
 6    1  0.2325157E-005  0.9731220E+03  0.7818608E-02  0.9338525E-01
         -1   -1    0    0    0  501 -0.00000000000E+00  0.00000000000E+00  0.11549951511E+04  0.11549951511E+04  0.00000000000E+00 0.  1.
          1   -1    0    0  501    0  0.00000000000E+00 -0.00000000000E+00 -0.20497196344E+03  0.20497196344E+03  0.00000000000E+00 0. -1.
         23    2    1    2    0    0 -0.43918183061E+03 -0.15385326341E+03  0.30145508795E+03  0.56172398933E+03  0.90039786422E+02 0.  0.
         11    1    3    3    0    0 -0.23399785858E+03 -0.49622326294E+02  0.11438528979E+03  0.26514405068E+03  0.00000000000E+00 0. -1.
        -11    1    3    3    0    0 -0.20518397203E+03 -0.10423093711E+03  0.18706979816E+03  0.29657993866E+03  0.00000000000E+00 0.  1.
         22    1    1    2    0    0  0.43918183061E+03  0.15385326341E+03  0.64856809972E+03  0.79824312523E+03  0.00000000000E+00 0.  1.
<mgrwt>
<rscale>  0 0.97312204E+03</rscale>
<asrwt>0</asrwt>
<pdfrwt beam="1">  1        1 0.31534149E-01 0.97312204E+03</pdfrwt>
<pdfrwt beam="2">  1       -1 0.17769156E+00 0.97312204E+03</pdfrwt>
<totfact> 0.31322181E+01</totfact>
</mgrwt>
</event>
<event>
 6    1  0.2325157E-005  0.2409990E+04  0.7818608E-02  0.8435773E-01
         -2   -1    0    0    0  501 -0.00000000000E+00  0.00000000000E+00  0.10643693233E+04  0.10643693233E+04  0.00000000000E+00 0. -1.
          2   -1    0    0  501    0  0.00000000000E+00 -0.00000000000E+00 -0.13642001573E+04  0.13642001573E+04  0.00000000000E+00 0.  1.
         23    2    1    2    0    0 -0.48649202571E+02  0.65388260906E+03 -0.11665045011E+04  0.13418071070E+04  0.98915873423E+02 0.  0.
         13    1    3    3    0    0 -0.78019581015E+02  0.43282855849E+03 -0.79319242835E+03  0.90696297855E+03  0.00000000000E+00 0. -1.
        -13    1    3    3    0    0  0.29370378444E+02  0.22105405058E+03 -0.37331207278E+03  0.43484412850E+03  0.00000000000E+00 0.  1.
         22    1    1    2    0    0  0.48649202571E+02 -0.65388260906E+03  0.86667366711E+03  0.10867623736E+04  0.00000000000E+00 0. -1.
<mgrwt>
<rscale>  0 0.24099899E+04</rscale>
<asrwt>0</asrwt>
<pdfrwt beam="1">  1        2 0.20987695E+00 0.24099899E+04</pdfrwt>
<pdfrwt beam="2">  1       -2 0.16374913E+00 0.24099899E+04</pdfrwt>
<totfact> 0.32234136E+00</totfact>
</mgrwt>
</event>
<event>
 6    1  0.2325157E-005  0.2179610E+04  0.7818608E-02  0.8526963E-01
         -2   -1    0    0    0  501 -0.00000000000E+00  0.00000000000E+00  0.45725219512E+03  0.45725219512E+03  0.00000000000E+00 0. -1.
          2   -1    0    0  501    0  0.00000000000E+00 -0.00000000000E+00 -0.25974172144E+04  0.25974172144E+04  0.00000000000E+00 0.  1.
         23    2    1    2    0    0  0.37796637441E+03 -0.24300578163E+03  0.31676797334E+03  0.55698445736E+03  0.89327189079E+02 0.  0.
         13    1    3    3    0    0  0.82301684981E+02 -0.18497512649E+02  0.36923938270E+02  0.92082042453E+02  0.00000000000E+00 0.  1.
        -13    1    3    3    0    0  0.29566468943E+03 -0.22450826898E+03  0.27984403507E+03  0.46490241490E+03  0.00000000000E+00 0. -1.
         22    1    1    2    0    0 -0.37796637441E+03  0.24300578163E+03 -0.24569329926E+04  0.24976849521E+04  0.00000000000E+00 0.  1.
<mgrwt>
<rscale>  0 0.21796098E+04</rscale>
<asrwt>0</asrwt>
<pdfrwt beam="1">  1        2 0.39960265E+00 0.21796098E+04</pdfrwt>
<pdfrwt beam="2">  1       -2 0.70346492E-01 0.21796098E+04</pdfrwt>
<totfact> 0.51432870E+00</totfact>
</mgrwt>
</event>
<event>
 6    1  0.2456883E-005  0.2650800E+04  0.7818608E-02  0.8351147E-01
          2   -1    0    0  501    0  0.00000000000E+00  0.00000000000E+00  0.94546178522E+03  0.94546178522E+03  0.00000000000E+00 0.  1.
         -2   -1    0    0    0  501 -0.00000000000E+00 -0.00000000000E+00 -0.18580185224E+04  0.18580185224E+04  0.00000000000E+00 0. -1.
         23    2    1    2    0    0  0.63879834856E+03 -0.10545882458E+04  0.52834862980E+02  0.12375299125E+04  0.92027513717E+02 0.  0.
         13    1    3    3    0    0  0.18197007071E+03 -0.31002876447E+03 -0.26124171486E+02  0.36043503405E+03  0.00000000000E+00 0. -1.
        -13    1    3    3    0    0  0.45682827785E+03 -0.74455948133E+03  0.78959034466E+02  0.87709487845E+03  0.00000000000E+00 0.  1.
         22    1    1    2    0    0 -0.63879834856E+03  0.10545882458E+04 -0.96539160019E+03  0.15659503951E+04  0.00000000000E+00 0. -1.
<mgrwt>
<rscale>  0 0.26508003E+04</rscale>
<asrwt>0</asrwt>
<pdfrwt beam="1">  1        2 0.14545566E+00 0.26508003E+04</pdfrwt>
<pdfrwt beam="2">  1       -2 0.28584900E+00 0.26508003E+04</pdfrwt>
<totfact> 0.93409126E-01</totfact>
</mgrwt>
</event>
<event>
 6    1  0.2325157E-005  0.2449809E+04  0.7818608E-02  0.8421088E-01
          2   -1    0    0  501    0  0.00000000000E+00  0.00000000000E+00  0.29767531969E+04  0.29767531969E+04  0.00000000000E+00 0.  1.
         -2   -1    0    0    0  501 -0.00000000000E+00 -0.00000000000E+00 -0.50403615760E+03  0.50403615760E+03  0.00000000000E+00 0. -1.
         23    2    1    2    0    0  0.81926388858E+03 -0.84606420201E+02 -0.47102908823E+02  0.82978121863E+03  0.89255931466E+02 0.  0.
         13    1    3    3    0    0  0.43899546148E+03 -0.71945250377E+01 -0.16230765796E+01  0.43905741170E+03  0.00000000000E+00 0.  1.
        -13    1    3    3    0    0  0.38026842710E+03 -0.77411895164E+02 -0.45479832243E+02  0.39072380693E+03  0.00000000000E+00 0. -1.
         22    1    1    2    0    0 -0.81926388858E+03  0.84606420201E+02  0.25198199481E+04  0.26510081358E+04  0.00000000000E+00 0.  1.
<mgrwt>
<rscale>  0 0.24498092E+04</rscale>
<asrwt>0</asrwt>
<pdfrwt beam="1">  1        2 0.45796202E+00 0.24498092E+04</pdfrwt>
<pdfrwt beam="2">  1       -2 0.77544026E-01 0.24498092E+04</pdfrwt>
<totfact> 0.23910297E+00</totfact>
</mgrwt>
</event>
<event>
 6    1  0.2325157E-005  0.1214729E+04  0.7818608E-02  0.9100061E-01
         -2   -1    0    0    0  501 -0.00000000000E+00  0.00000000000E+00  0.46947231854E+03  0.46947231854E+03  0.00000000000E+00 0. -1.
          2   -1    0    0  501    0  0.00000000000E+00 -0.00000000000E+00 -0.78575762863E+03  0.78575762863E+03  0.00000000000E+00 0.  1.
         23    2    1    2    0    0 -0.15898102273E+03 -0.57472968928E+03 -0.25828128607E+03  0.65610254157E+03  0.90399894868E+02 0.  0.
         11    1    3    3    0    0 -0.10436958182E+03 -0.24123760085E+03 -0.84448933930E+02  0.27608008279E+03  0.00000000000E+00 0.  1.
        -11    1    3    3    0    0 -0.54611440905E+02 -0.33349208843E+03 -0.17383235214E+03  0.38002245878E+03  0.00000000000E+00 0. -1.
         22    1    1    2    0    0  0.15898102273E+03  0.57472968928E+03 -0.58004024026E+02  0.59912740560E+03  0.00000000000E+00 0.  1.
<mgrwt>
<rscale>  0 0.12147287E+04</rscale>
<asrwt>0</asrwt>
<pdfrwt beam="1">  1        2 0.12088579E+00 0.12147287E+04</pdfrwt>
<pdfrwt beam="2">  1       -2 0.72226511E-01 0.12147287E+04</pdfrwt>
<totfact> 0.60383407E+01</totfact>
</mgrwt>
</event>
<event>
 6    1  0.2325157E-005  0.2900508E+04  0.7818608E-02  0.8272726E-01
          2   -1    0    0  501    0  0.00000000000E+00  0.00000000000E+00  0.27522651577E+04  0.27522651577E+04  0.00000000000E+00 0.  1.
         -2   -1    0    0    0  501 -0.00000000000E+00 -0.00000000000E+00 -0.76418363415E+03  0.76418363415E+03  0.00000000000E+00 0. -1.
         23    2    1    2    0    0 -0.72125814987E+03  0.11970673346E+04  0.53178187525E+03  0.14980355071E+04  0.90193655163E+02 0.  0.
         11    1    3    3    0    0 -0.54261300238E+03  0.92183538057E+03  0.44561090412E+03  0.11587831622E+04  0.00000000000E+00 0. -1.
        -11    1    3    3    0    0 -0.17864514749E+03  0.27523195403E+03  0.86170971124E+02  0.33925234488E+03  0.00000000000E+00 0.  1.
         22    1    1    2    0    0  0.72125814987E+03 -0.11970673346E+04  0.14562996483E+04  0.20184132847E+04  0.00000000000E+00 0.  1.
<mgrwt>
<rscale>  0 0.29005075E+04</rscale>
<asrwt>0</asrwt>
<pdfrwt beam="1">  1        2 0.42342540E+00 0.29005075E+04</pdfrwt>
<pdfrwt beam="2">  1       -2 0.11756671E+00 0.29005075E+04</pdfrwt>
<totfact> 0.11907892E+00</totfact>
</mgrwt>
</event>
<event>
 6    1  0.2325157E-005  0.3202829E+04  0.7818608E-02  0.8188070E-01
          2   -1    0    0  501    0  0.00000000000E+00  0.00000000000E+00  0.22989778582E+04  0.22989778582E+04  0.00000000000E+00 0.  1.
         -2   -1    0    0    0  501 -0.00000000000E+00 -0.00000000000E+00 -0.11155082649E+04  0.11155082649E+04  0.00000000000E+00 0. -1.
         23    2    1    2    0    0  0.14700883329E+04  0.52643680008E+02 -0.79382805816E+02  0.14757423943E+04  0.87079968169E+02 0.  0.
         13    1    3    3    0    0  0.11721248999E+04  0.47448556403E+02 -0.28570113479E+02  0.11734327411E+04  0.00000000000E+00 0.  1.
        -13    1    3    3    0    0  0.29796343305E+03  0.51951236053E+01 -0.50812692337E+02  0.30230965325E+03  0.00000000000E+00 0. -1.
         22    1    1    2    0    0 -0.14700883329E+04 -0.52643680008E+02  0.12628523991E+04  0.19387437287E+04  0.00000000000E+00 0.  1.
<mgrwt>
<rscale>  0 0.32028293E+04</rscale>
<asrwt>0</asrwt>
<pdfrwt beam="1">  1        2 0.35368890E+00 0.32028293E+04</pdfrwt>
<pdfrwt beam="2">  1       -2 0.17161666E+00 0.32028293E+04</pdfrwt>
<totfact> 0.79326329E-01</totfact>
</mgrwt>
</event>
<event>
 6    1  0.2325157E-005  0.3941712E+04  0.7818608E-02  0.8016409E-01
         -2   -1    0    0    0  501 -0.00000000000E+00  0.00000000000E+00  0.28357682610E+04  0.28357682610E+04  0.00000000000E+00 0. -1.
          2   -1    0    0  501    0  0.00000000000E+00 -0.00000000000E+00 -0.13697429414E+04  0.13697429414E+04  0.00000000000E+00 0.  1.
         23    2    1    2    0    0 -0.35857097012E+03  0.15891526314E+04 -0.44819095043E+03  0.16919075830E+04  0.87732062297E+02 0.  0.
         13    1    3    3    0    0 -0.15207427753E+03  0.63088591874E+03 -0.13520666627E+03  0.66289099477E+03  0.00000000000E+00 0.  1.
        -13    1    3    3    0    0 -0.20649669259E+03  0.95826671271E+03 -0.31298428416E+03  0.10290165882E+04  0.00000000000E+00 0. -1.
         22    1    1    2    0    0  0.35857097012E+03 -0.15891526314E+04  0.19142162701E+04  0.25136036194E+04  0.00000000000E+00 0. -1.
<mgrwt>
<rscale>  0 0.39417121E+04</rscale>
<asrwt>0</asrwt>
<pdfrwt beam="1">  1        2 0.21072968E+00 0.39417121E+04</pdfrwt>
<pdfrwt beam="2">  1       -2 0.43627204E+00 0.39417121E+04</pdfrwt>
<totfact> 0.51061595E-02</totfact>
</mgrwt>
</event>
<event>
 6    1  0.2325157E-005  0.2187354E+04  0.7818608E-02  0.8523710E-01
         -2   -1    0    0    0  501 -0.00000000000E+00  0.00000000000E+00  0.66010549970E+03  0.66010549970E+03  0.00000000000E+00 0. -1.
          2   -1    0    0  501    0  0.00000000000E+00 -0.00000000000E+00 -0.18120279072E+04  0.18120279072E+04  0.00000000000E+00 0.  1.
         23    2    1    2    0    0 -0.33858487188E+02  0.14964512746E+03 -0.17986357758E+04  0.18074694000E+04  0.91186163021E+02 0.  0.
         11    1    3    3    0    0 -0.19620673227E+01  0.82484816755E+02 -0.13661552902E+04  0.13686445381E+04  0.00000000000E+00 0.  1.
        -11    1    3    3    0    0 -0.31896419865E+02  0.67160310703E+02 -0.43248048566E+03  0.43882486188E+03  0.00000000000E+00 0. -1.
         22    1    1    2    0    0  0.33858487188E+02 -0.14964512746E+03  0.64671336834E+03  0.66466400694E+03  0.00000000000E+00 0. -1.
<mgrwt>
<rscale>  0 0.21873542E+04</rscale>
<asrwt>0</asrwt>
<pdfrwt beam="1">  1        2 0.27877352E+00 0.21873542E+04</pdfrwt>
<pdfrwt beam="2">  1       -2 0.10155469E+00 0.21873542E+04</pdfrwt>
<totfact> 0.61904608E+00</totfact>
</mgrwt>
</event>
<event>
 6    1  0.2325157E-005  0.2471036E+04  0.7818608E-02  0.8413377E-01
          2   -1    0    0  501    0  0.00000000000E+00  0.00000000000E+00  0.71042567001E+03  0.71042567001E+03  0.00000000000E+00 0.  1.
         -2   -1    0    0    0  501 -0.00000000000E+00 -0.00000000000E+00 -0.21487182111E+04  0.21487182111E+04  0.00000000000E+00 0. -1.
         23    2    1    2    0    0 -0.52246104626E+03 -0.52303796512E+03 -0.18628726620E+04  0.20066167339E+04  0.98396667810E+02 0.  0.
         11    1    3    3    0    0 -0.38326905296E+03 -0.33488036051E+03 -0.11928533545E+04  0.12968959666E+04  0.00000000000E+00 0.  1.
        -11    1    3    3    0    0 -0.13919199330E+03 -0.18815760461E+03 -0.67001930745E+03  0.70972076729E+03  0.00000000000E+00 0. -1.
         22    1    1    2    0    0  0.52246104626E+03  0.52303796512E+03  0.42458012083E+03  0.85252714726E+03  0.00000000000E+00 0.  1.
<mgrwt>
<rscale>  0 0.24710359E+04</rscale>
<asrwt>0</asrwt>
<pdfrwt beam="1">  1        2 0.10929626E+00 0.24710359E+04</pdfrwt>
<pdfrwt beam="2">  1       -2 0.33057203E+00 0.24710359E+04</pdfrwt>
<totfact> 0.74047666E-01</totfact>
</mgrwt>
</event>
<event>
 6    1  0.2325157E-005  0.3323118E+04  0.7818608E-02  0.8157038E-01
         -2   -1    0    0    0  501 -0.00000000000E+00  0.00000000000E+00  0.11730982240E+04  0.11730982240E+04  0.00000000000E+00 0. -1.
          2   -1    0    0  501    0  0.00000000000E+00 -0.00000000000E+00 -0.23534069731E+04  0.23534069731E+04  0.00000000000E+00 0.  1.
         23    2    1    2    0    0  0.16392500609E+04 -0.20704462522E+03 -0.76262939973E+03  0.18222563074E+04  0.94901051210E+02 0.  0.
         11    1    3    3    0    0  0.45800706951E+03 -0.15093809072E+02 -0.20941603918E+03  0.50383864109E+03  0.00000000000E+00 0. -1.
        -11    1    3    3    0    0  0.11812429914E+04 -0.19195081615E+03 -0.55321336056E+03  0.13184176663E+04  0.00000000000E+00 0.  1.
         22    1    1    2    0    0 -0.16392500609E+04  0.20704462522E+03 -0.41767934941E+03  0.17042488897E+04  0.00000000000E+00 0. -1.
<mgrwt>
<rscale>  0 0.33231175E+04</rscale>
<asrwt>0</asrwt>
<pdfrwt beam="1">  1        2 0.36206261E+00 0.33231175E+04</pdfrwt>
<pdfrwt beam="2">  1       -2 0.18047665E+00 0.33231175E+04</pdfrwt>
<totfact> 0.63411296E-01</totfact>
</mgrwt>
</event>
<event>
 6    1  0.2325157E-005  0.2616065E+04  0.7818608E-02  0.8362765E-01
         -2   -1    0    0    0  501 -0.00000000000E+00  0.00000000000E+00  0.94114865771E+03  0.94114865771E+03  0.00000000000E+00 0.  1.
          2   -1    0    0  501    0  0.00000000000E+00 -0.00000000000E+00 -0.18179368110E+04  0.18179368110E+04  0.00000000000E+00 0. -1.
         23    2    1    2    0    0  0.84840138267E+03 -0.45477009922E+03  0.49294935048E+03  0.10849344664E+04  0.86504248615E+02 0.  0.
         11    1    3    3    0    0  0.80748738545E+03 -0.44505931540E+03  0.48616930930E+03  0.10423407644E+04  0.00000000000E+00 0. -1.
        -11    1    3    3    0    0  0.40913997226E+02 -0.97107838289E+01  0.67800411758E+01  0.42593701999E+02  0.00000000000E+00 0.  1.
         22    1    1    2    0    0 -0.84840138267E+03  0.45477009922E+03 -0.13697375038E+04  0.16741510023E+04  0.00000000000E+00 0. -1.
<mgrwt>
<rscale>  0 0.26160648E+04</rscale>
<asrwt>0</asrwt>
<pdfrwt beam="1">  1        2 0.27968258E+00 0.26160648E+04</pdfrwt>
<pdfrwt beam="2">  1       -2 0.14479210E+00 0.26160648E+04</pdfrwt>
<totfact> 0.24506600E+00</totfact>
</mgrwt>
</event>
<event>
 6    1  0.2325157E-005  0.2167599E+04  0.7818608E-02  0.8532036E-01
          1   -1    0    0  501    0  0.00000000000E+00  0.00000000000E+00  0.72230971254E+03  0.72230971254E+03  0.00000000000E+00 0. -1.
         -1   -1    0    0    0  501 -0.00000000000E+00 -0.00000000000E+00 -0.16262021247E+04  0.16262021247E+04  0.00000000000E+00 0.  1.
         23    2    1    2    0    0 -0.19774539032E+03  0.56974328477E+03  0.52054175759E+03  0.80166880904E+03  0.89434378539E+02 0.  0.
         11    1    3    3    0    0 -0.90092296189E+02  0.32455401794E+03  0.23823830062E+03  0.41256444378E+03  0.00000000000E+00 0.  1.
        -11    1    3    3    0    0 -0.10765309413E+03  0.24518926683E+03  0.28230345698E+03  0.38910436526E+03  0.00000000000E+00 0. -1.
         22    1    1    2    0    0  0.19774539032E+03 -0.56974328477E+03 -0.14244341698E+04  0.15468430282E+04  0.00000000000E+00 0.  1.
<mgrwt>
<rscale>  0 0.21675992E+04</rscale>
<asrwt>0</asrwt>
<pdfrwt beam="1">  1        1 0.11112457E+00 0.21675992E+04</pdfrwt>
<pdfrwt beam="2">  1       -1 0.25018494E+00 0.21675992E+04</pdfrwt>
<totfact> 0.16504698E+00</totfact>
</mgrwt>
</event>
<event>
 6    1  0.2325157E-005  0.3507337E+04  0.7818608E-02  0.8112053E-01
         -2   -1    0    0    0  501 -0.00000000000E+00  0.00000000000E+00  0.14072639991E+04  0.14072639991E+04  0.00000000000E+00 0. -1.
          2   -1    0    0  501    0  0.00000000000E+00 -0.00000000000E+00 -0.21853417510E+04  0.21853417510E+04  0.00000000000E+00 0.  1.
         23    2    1    2    0    0  0.11244078171E+04 -0.11262861578E+04 -0.11410315095E+04  0.19602611545E+04  0.88642201605E+02 0.  0.
         13    1    3    3    0    0  0.18033039137E+03 -0.13874041806E+03 -0.17421350651E+03  0.28656290671E+03  0.00000000000E+00 0.  1.
        -13    1    3    3    0    0  0.94407742572E+03 -0.98754573975E+03 -0.96681800296E+03  0.16736982478E+04  0.00000000000E+00 0. -1.
         22    1    1    2    0    0 -0.11244078171E+04  0.11262861578E+04  0.36295375758E+03  0.16323445955E+04  0.00000000000E+00 0. -1.
<mgrwt>
<rscale>  0 0.35073368E+04</rscale>
<asrwt>0</asrwt>
<pdfrwt beam="1">  1        2 0.33620642E+00 0.35073368E+04</pdfrwt>
<pdfrwt beam="2">  1       -2 0.21650216E+00 0.35073368E+04</pdfrwt>
<totfact> 0.44961914E-01</totfact>
</mgrwt>
</event>
<event>
 6    1  0.2325157E-005  0.1703698E+04  0.7818608E-02  0.8759258E-01
          2   -1    0    0  501    0  0.00000000000E+00  0.00000000000E+00  0.15499593535E+04  0.15499593535E+04  0.00000000000E+00 0.  1.
         -2   -1    0    0    0  501 -0.00000000000E+00 -0.00000000000E+00 -0.46817147997E+03  0.46817147997E+03  0.00000000000E+00 0. -1.
         23    2    1    2    0    0  0.51093962294E+03 -0.26887809910E+03  0.12804265535E+04  0.14075474603E+04  0.91339825157E+02 0.  0.
         13    1    3    3    0    0  0.23582809087E+03 -0.17115115251E+03  0.59440400968E+03  0.66198469180E+03  0.00000000000E+00 0. -1.
        -13    1    3    3    0    0  0.27511153207E+03 -0.97726946581E+02  0.68602254382E+03  0.74556276852E+03  0.00000000000E+00 0.  1.
         22    1    1    2    0    0 -0.51093962294E+03  0.26887809910E+03 -0.19863867993E+03  0.61058337320E+03  0.00000000000E+00 0. -1.
<mgrwt>
<rscale>  0 0.17036981E+04</rscale>
<asrwt>0</asrwt>
<pdfrwt beam="1">  1        2 0.23845528E+00 0.17036981E+04</pdfrwt>
<pdfrwt beam="2">  1       -2 0.72026382E-01 0.17036981E+04</pdfrwt>
<totfact> 0.19759725E+01</totfact>
</mgrwt>
</event>
<event>
 6    1  0.2325157E-005  0.1900078E+04  0.7818608E-02  0.8654818E-01
         -2   -1    0    0    0  501 -0.00000000000E+00  0.00000000000E+00  0.32989996144E+03  0.32989996144E+03  0.00000000000E+00 0. -1.
          2   -1    0    0  501    0  0.00000000000E+00 -0.00000000000E+00 -0.27359025483E+04  0.27359025483E+04  0.00000000000E+00 0.  1.
         23    2    1    2    0    0  0.13964152898E+03 -0.88632793848E+03 -0.16986927963E+04  0.19232771879E+04  0.91438254076E+02 0.  0.
         13    1    3    3    0    0  0.40006817043E+02 -0.43526095643E+03 -0.74936773073E+03  0.86752789089E+03  0.00000000000E+00 0. -1.
        -13    1    3    3    0    0  0.99634711941E+02 -0.45106698205E+03 -0.94932506553E+03  0.10557492970E+04  0.00000000000E+00 0.  1.
         22    1    1    2    0    0 -0.13964152898E+03  0.88632793848E+03 -0.70730979063E+03  0.11425253218E+04  0.00000000000E+00 0.  1.
<mgrwt>
<rscale>  0 0.19000780E+04</rscale>
<asrwt>0</asrwt>
<pdfrwt beam="1">  1        2 0.42090809E+00 0.19000780E+04</pdfrwt>
<pdfrwt beam="2">  1       -2 0.50753840E-01 0.19000780E+04</pdfrwt>
<totfact> 0.87025017E+00</totfact>
</mgrwt>
</event>
<event>
 6    1  0.2325157E-005  0.1363042E+04  0.7818608E-02  0.8981014E-01
          2   -1    0    0  501    0  0.00000000000E+00  0.00000000000E+00  0.96013081476E+03  0.96013081476E+03  0.00000000000E+00 0.  1.
         -2   -1    0    0    0  501 -0.00000000000E+00 -0.00000000000E+00 -0.48375767395E+03  0.48375767395E+03  0.00000000000E+00 0. -1.
         23    2    1    2    0    0  0.45921362279E+03 -0.20723090803E+03 -0.24198422330E+03  0.56647233706E+03  0.92264531257E+02 0.  0.
         11    1    3    3    0    0  0.29224812795E+03 -0.84453905609E+02 -0.15872691553E+03  0.34312630936E+03  0.00000000000E+00 0.  1.
        -11    1    3    3    0    0  0.16696549484E+03 -0.12277700242E+03 -0.83257307770E+02  0.22334602770E+03  0.00000000000E+00 0. -1.
         22    1    1    2    0    0 -0.45921362279E+03  0.20723090803E+03  0.71835736411E+03  0.87741615164E+03  0.00000000000E+00 0.  1.
<mgrwt>
<rscale>  0 0.13630417E+04</rscale>
<asrwt>0</asrwt>
<pdfrwt beam="1">  1        2 0.14771243E+00 0.13630417E+04</pdfrwt>
<pdfrwt beam="2">  1       -2 0.74424258E-01 0.13630417E+04</pdfrwt>
<totfact> 0.42393576E+01</totfact>
</mgrwt>
</event>
<event>
 6    1  0.2325157E-005  0.2064102E+04  0.7818608E-02  0.8577224E-01
         -2   -1    0    0    0  501 -0.00000000000E+00  0.00000000000E+00  0.21533021236E+03  0.21533021236E+03  0.00000000000E+00 0. -1.
          2   -1    0    0  501    0  0.00000000000E+00 -0.00000000000E+00 -0.49464930488E+04  0.49464930488E+04  0.00000000000E+00 0.  1.
         23    2    1    2    0    0  0.13527821060E+03  0.10177633676E+04 -0.21633675027E+04  0.23963729646E+04  0.91115131357E+02 0.  0.
         11    1    3    3    0    0  0.52174288786E+02  0.50565558333E+03 -0.97065679763E+03  0.10957117979E+04  0.00000000000E+00 0. -1.
        -11    1    3    3    0    0  0.83103921817E+02  0.51210778425E+03 -0.11927107051E+04  0.13006611667E+04  0.00000000000E+00 0.  1.
         22    1    1    2    0    0 -0.13527821060E+03 -0.10177633676E+04 -0.25677953337E+04  0.27654502965E+04  0.00000000000E+00 0.  1.
<mgrwt>
<rscale>  0 0.20641021E+04</rscale>
<asrwt>0</asrwt>
<pdfrwt beam="1">  1        2 0.76099892E+00 0.20641021E+04</pdfrwt>
<pdfrwt beam="2">  1       -2 0.33127726E-01 0.20641021E+04</pdfrwt>
<totfact> 0.32167050E-01</totfact>
</mgrwt>
</event>
<event>
 6    1  0.2325157E-005  0.1583296E+04  0.7818608E-02  0.8830876E-01
          1   -1    0    0  501    0  0.00000000000E+00  0.00000000000E+00  0.12091103348E+04  0.12091103348E+04  0.00000000000E+00 0.  1.
         -1   -1    0    0    0  501 -0.00000000000E+00 -0.00000000000E+00 -0.51832043143E+03  0.51832043143E+03  0.00000000000E+00 0. -1.
         23    2    1    2    0    0 -0.98553886058E+02 -0.22622480010E+03  0.11642633988E+04  0.11935134697E+04  0.89858844591E+02 0.  0.
         11    1    3    3    0    0 -0.36222352739E+02 -0.15552576871E+03  0.57510684292E+03  0.59686531508E+03  0.00000000000E+00 0.  1.
        -11    1    3    3    0    0 -0.62331533319E+02 -0.70699031383E+02  0.58915655584E+03  0.59664815459E+03  0.00000000000E+00 0. -1.
         22    1    1    2    0    0  0.98553886058E+02  0.22622480010E+03 -0.47347349544E+03  0.53391729652E+03  0.00000000000E+00 0. -1.
<mgrwt>
<rscale>  0 0.15832960E+04</rscale>
<asrwt>0</asrwt>
<pdfrwt beam="1">  1        1 0.18601697E+00 0.15832960E+04</pdfrwt>
<pdfrwt beam="2">  1       -1 0.79741605E-01 0.15832960E+04</pdfrwt>
<totfact> 0.15882509E+01</totfact>
</mgrwt>
</event>
<event>
 6    1  0.2325157E-005  0.3655746E+04  0.7818608E-02  0.8077840E-01
          2   -1    0    0  501    0  0.00000000000E+00  0.00000000000E+00  0.11108106913E+04  0.11108106913E+04  0.00000000000E+00 0.  1.
         -2   -1    0    0    0  501 -0.00000000000E+00 -0.00000000000E+00 -0.30078207555E+04  0.30078207555E+04  0.00000000000E+00 0. -1.
         23    2    1    2    0    0 -0.47415702762E+03 -0.38269742448E+03  0.99105877791E+03  0.11669837980E+04  0.91495781692E+02 0.  0.
         11    1    3    3    0    0 -0.19113868741E+03 -0.14757834272E+03  0.47916465279E+03  0.53657443990E+03  0.00000000000E+00 0. -1.
        -11    1    3    3    0    0 -0.28301834022E+03 -0.23511908176E+03  0.51189412511E+03  0.63040935814E+03  0.00000000000E+00 0.  1.
         22    1    1    2    0    0  0.47415702762E+03  0.38269742448E+03 -0.28880688421E+04  0.29516476488E+04  0.00000000000E+00 0. -1.
<mgrwt>
<rscale>  0 0.36557459E+04</rscale>
<asrwt>0</asrwt>
<pdfrwt beam="1">  1        2 0.17089395E+00 0.36557459E+04</pdfrwt>
<pdfrwt beam="2">  1       -2 0.46274166E+00 0.36557459E+04</pdfrwt>
<totfact> 0.49754163E-02</totfact>
</mgrwt>
</event>
<event>
 6    1  0.2325157E-005  0.2705420E+04  0.7818608E-02  0.8333249E-01
         -2   -1    0    0    0  501 -0.00000000000E+00  0.00000000000E+00  0.11788602300E+04  0.11788602300E+04  0.00000000000E+00 0. -1.
          2   -1    0    0  501    0  0.00000000000E+00 -0.00000000000E+00 -0.15521974001E+04  0.15521974001E+04  0.00000000000E+00 0.  1.
         23    2    1    2    0    0 -0.97818689057E+03 -0.88476881466E+03 -0.48284191860E+03  0.14075559345E+04  0.91716640810E+02 0.  0.
         11    1    3    3    0    0 -0.25817285675E+03 -0.27389598388E+03 -0.10741766678E+03  0.39142149798E+03  0.00000000000E+00 0. -1.
        -11    1    3    3    0    0 -0.72001403383E+03 -0.61087283078E+03 -0.37542425182E+03  0.10161344366E+04  0.00000000000E+00 0.  1.
         22    1    1    2    0    0  0.97818689057E+03  0.88476881466E+03  0.10950474854E+03  0.13235016956E+04  0.00000000000E+00 0. -1.
<mgrwt>
<rscale>  0 0.27054196E+04</rscale>
<asrwt>0</asrwt>
<pdfrwt beam="1">  1        2 0.23879960E+00 0.27054196E+04</pdfrwt>
<pdfrwt beam="2">  1       -2 0.18136311E+00 0.27054196E+04</pdfrwt>
<totfact> 0.18460584E+00</totfact>
</mgrwt>
</event>
<event>
 6    1  0.2325157E-005  0.1295214E+04  0.7818608E-02  0.9033370E-01
         -2   -1    0    0    0  501 -0.00000000000E+00  0.00000000000E+00  0.15008563333E+03  0.15008563333E+03  0.00000000000E+00 0. -1.
          2   -1    0    0  501    0  0.00000000000E+00 -0.00000000000E+00 -0.27943681911E+04  0.27943681911E+04  0.00000000000E+00 0.  1.
         23    2    1    2    0    0 -0.19895418682E+03 -0.98086459028E+01 -0.27218903705E+04  0.27306736789E+04  0.90623250235E+02 0.  0.
         11    1    3    3    0    0 -0.12650131845E+03 -0.18517932017E+02 -0.11489314043E+04  0.11560228670E+04  0.00000000000E+00 0. -1.
        -11    1    3    3    0    0 -0.72452868376E+02  0.87092861137E+01 -0.15729589663E+04  0.15746508119E+04  0.00000000000E+00 0.  1.
         22    1    1    2    0    0  0.19895418682E+03  0.98086459028E+01  0.77607812807E+02  0.21378014547E+03  0.00000000000E+00 0. -1.
<mgrwt>
<rscale>  0 0.12952135E+04</rscale>
<asrwt>0</asrwt>
<pdfrwt beam="1">  1        2 0.42990280E+00 0.12952135E+04</pdfrwt>
<pdfrwt beam="2">  1       -2 0.23090097E-01 0.12952135E+04</pdfrwt>
<totfact> 0.38162222E+01</totfact>
</mgrwt>
</event>
<event>
 6    1  0.2325157E-005  0.2586561E+04  0.7818608E-02  0.8372780E-01
          2   -1    0    0  501    0  0.00000000000E+00  0.00000000000E+00  0.19445065316E+04  0.19445065316E+04  0.00000000000E+00 0.  1.
         -2   -1    0    0    0  501 -0.00000000000E+00 -0.00000000000E+00 -0.86015386998E+03  0.86015386998E+03  0.00000000000E+00 0. -1.
         23    2    1    2    0    0  0.77360952760E+03 -0.38938732333E+03  0.15825288656E+04  0.18055239149E+04  0.73653297364E+02 0.  0.
         11    1    3    3    0    0  0.24021871364E+03 -0.15230400139E+03  0.47718295681E+03  0.55552237893E+03  0.00000000000E+00 0.  1.
        -11    1    3    3    0    0  0.53339081396E+03 -0.23708332195E+03  0.11053459088E+04  0.12500015360E+04  0.00000000000E+00 0. -1.
         22    1    1    2    0    0 -0.77360952760E+03  0.38938732333E+03 -0.49817620396E+03  0.99913648665E+03  0.00000000000E+00 0. -1.
<mgrwt>
<rscale>  0 0.25865613E+04</rscale>
<asrwt>0</asrwt>
<pdfrwt beam="1">  1        2 0.29915485E+00 0.25865613E+04</pdfrwt>
<pdfrwt beam="2">  1       -2 0.13233136E+00 0.25865613E+04</pdfrwt>
<totfact> 0.26371699E+00</totfact>
</mgrwt>
</event>
<event>
 6    1  0.2325157E-005  0.2126401E+04  0.7818608E-02  0.8549702E-01
         -2   -1    0    0    0  501 -0.00000000000E+00  0.00000000000E+00  0.72186939343E+03  0.72186939343E+03  0.00000000000E+00 0. -1.
          2   -1    0    0  501    0  0.00000000000E+00 -0.00000000000E+00 -0.15659279636E+04  0.15659279636E+04  0.00000000000E+00 0.  1.
         23    2    1    2    0    0 -0.87421721869E+03 -0.12520029400E+03  0.21048497079E+03  0.91230001468E+03  0.89758201713E+02 0.  0.
         11    1    3    3    0    0 -0.31346861028E+03 -0.38222232832E+02  0.31848148507E+02  0.31739220733E+03  0.00000000000E+00 0. -1.
        -11    1    3    3    0    0 -0.56074860841E+03 -0.86978061171E+02  0.17863682228E+03  0.59490780734E+03  0.00000000000E+00 0.  1.
         22    1    1    2    0    0  0.87421721869E+03  0.12520029400E+03 -0.10545435410E+04  0.13754973424E+04  0.00000000000E+00 0.  1.
<mgrwt>
<rscale>  0 0.21264012E+04</rscale>
<asrwt>0</asrwt>
<pdfrwt beam="1">  1        2 0.24091199E+00 0.21264012E+04</pdfrwt>
<pdfrwt beam="2">  1       -2 0.11105683E+00 0.21264012E+04</pdfrwt>
<totfact> 0.68801314E+00</totfact>
</mgrwt>
</event>
<event>
 6    1  0.2325157E-005  0.2459141E+04  0.7818608E-02  0.8417688E-01
         -2   -1    0    0    0  501 -0.00000000000E+00  0.00000000000E+00  0.10136202720E+04  0.10136202720E+04  0.00000000000E+00 0. -1.
          2   -1    0    0  501    0  0.00000000000E+00 -0.00000000000E+00 -0.14915290009E+04  0.14915290009E+04  0.00000000000E+00 0.  1.
         23    2    1    2    0    0  0.48773801334E+03  0.23123158009E+03 -0.13627846893E+04  0.14686349803E+04  0.91379334580E+02 0.  0.
         13    1    3    3    0    0  0.41560253071E+03  0.16332975009E+03 -0.10658982211E+04  0.11556561291E+04  0.00000000000E+00 0.  1.
        -13    1    3    3    0    0  0.72135482631E+02  0.67901830001E+02 -0.29688646816E+03  0.31297885128E+03  0.00000000000E+00 0. -1.
         22    1    1    2    0    0 -0.48773801334E+03 -0.23123158009E+03  0.88487596044E+03  0.10365142925E+04  0.00000000000E+00 0. -1.
<mgrwt>
<rscale>  0 0.24591413E+04</rscale>
<asrwt>0</asrwt>
<pdfrwt beam="1">  1        2 0.22946600E+00 0.24591413E+04</pdfrwt>
<pdfrwt beam="2">  1       -2 0.15594158E+00 0.24591413E+04</pdfrwt>
<totfact> 0.31024660E+00</totfact>
</mgrwt>
</event>
<event>
 6    1  0.2325157E-005  0.3487617E+04  0.7818608E-02  0.8116731E-01
         -2   -1    0    0    0  501 -0.00000000000E+00  0.00000000000E+00  0.22918411558E+04  0.22918411558E+04  0.00000000000E+00 0. -1.
          2   -1    0    0  501    0  0.00000000000E+00 -0.00000000000E+00 -0.13268229597E+04  0.13268229597E+04  0.00000000000E+00 0.  1.
         23    2    1    2    0    0 -0.17058425755E+04 -0.20716109487E+03  0.78313306627E+03  0.18906893436E+04  0.92704816172E+02 0.  0.
         13    1    3    3    0    0 -0.15385198495E+04 -0.20577282478E+03  0.68441338584E+03  0.16964101702E+04  0.00000000000E+00 0. -1.
        -13    1    3    3    0    0 -0.16732272599E+03 -0.13882700908E+01  0.98719680437E+02  0.19427917344E+03  0.00000000000E+00 0.  1.
         22    1    1    2    0    0  0.17058425755E+04  0.20716109487E+03  0.18188512985E+03  0.17279747719E+04  0.00000000000E+00 0. -1.
<mgrwt>
<rscale>  0 0.34876166E+04</rscale>
<asrwt>0</asrwt>
<pdfrwt beam="1">  1        2 0.20412661E+00 0.34876166E+04</pdfrwt>
<pdfrwt beam="2">  1       -2 0.35259095E+00 0.34876166E+04</pdfrwt>
<totfact> 0.19645124E-01</totfact>
</mgrwt>
</event>
<event>
 6    1  0.2325157E-005  0.1133377E+04  0.7818608E-02  0.9173258E-01
         -2   -1    0    0    0  501 -0.00000000000E+00  0.00000000000E+00  0.24112585023E+03  0.24112585023E+03  0.00000000000E+00 0. -1.
          2   -1    0    0  501    0  0.00000000000E+00 -0.00000000000E+00 -0.13318181818E+04  0.13318181818E+04  0.00000000000E+00 0.  1.
         23    2    1    2    0    0  0.26094239047E+03 -0.34198830557E+03 -0.43523206741E+02  0.44086183171E+03  0.86127538217E+02 0.  0.
         11    1    3    3    0    0  0.96466155123E+02 -0.19650272174E+03 -0.14796433772E+02  0.21940367633E+03  0.00000000000E+00 0.  1.
        -11    1    3    3    0    0  0.16447623535E+03 -0.14548558383E+03 -0.28726772968E+02  0.22145815538E+03  0.00000000000E+00 0. -1.
         22    1    1    2    0    0 -0.26094239047E+03  0.34198830557E+03 -0.10471691249E+04  0.11320822004E+04  0.00000000000E+00 0.  1.
<mgrwt>
<rscale>  0 0.11333769E+04</rscale>
<asrwt>0</asrwt>
<pdfrwt beam="1">  1        2 0.20489510E+00 0.11333769E+04</pdfrwt>
<pdfrwt beam="2">  1       -2 0.37096285E-01 0.11333769E+04</pdfrwt>
<totfact> 0.10742315E+02</totfact>
</mgrwt>
</event>
<event>
 6    1  0.2325157E-005  0.2139283E+04  0.7818608E-02  0.8544134E-01
          2   -1    0    0  501    0  0.00000000000E+00  0.00000000000E+00  0.76012644425E+03  0.76012644425E+03  0.00000000000E+00 0.  1.
         -2   -1    0    0    0  501 -0.00000000000E+00 -0.00000000000E+00 -0.15051872164E+04  0.15051872164E+04  0.00000000000E+00 0. -1.
         23    2    1    2    0    0 -0.88691683968E+03 -0.34624284080E+03 -0.88489538986E+03  0.13029939084E+04  0.90816788243E+02 0.  0.
         13    1    3    3    0    0 -0.77304987654E+03 -0.29080082923E+03 -0.72483524382E+03  0.10988891503E+04  0.00000000000E+00 0. -1.
        -13    1    3    3    0    0 -0.11386696313E+03 -0.55442011573E+02 -0.16006014604E+03  0.20410475813E+03  0.00000000000E+00 0.  1.
         22    1    1    2    0    0  0.88691683968E+03  0.34624284080E+03  0.13983461769E+03  0.96231975227E+03  0.00000000000E+00 0.  1.
<mgrwt>
<rscale>  0 0.21392827E+04</rscale>
<asrwt>0</asrwt>
<pdfrwt beam="1">  1        2 0.11694253E+00 0.21392827E+04</pdfrwt>
<pdfrwt beam="2">  1       -2 0.23156726E+00 0.21392827E+04</pdfrwt>
<totfact> 0.28285274E+00</totfact>
</mgrwt>
</event>
<event>
 6    1  0.2325157E-005  0.1244613E+04  0.7818608E-02  0.9074679E-01
          2   -1    0    0  501    0  0.00000000000E+00  0.00000000000E+00  0.15089396574E+04  0.15089396574E+04  0.00000000000E+00 0. -1.
         -2   -1    0    0    0  501 -0.00000000000E+00 -0.00000000000E+00 -0.25664716936E+03  0.25664716936E+03  0.00000000000E+00 0.  1.
         23    2    1    2    0    0 -0.63414111667E+02  0.27401709355E+03 -0.15254232236E+03  0.33287347036E+03  0.91808877804E+02 0.  0.
         11    1    3    3    0    0 -0.40452391869E+02  0.24208588564E+03 -0.95025403317E+02  0.26319536339E+03  0.00000000000E+00 0. -1.
        -11    1    3    3    0    0 -0.22961719798E+02  0.31931207903E+02 -0.57516919043E+02  0.69678106966E+02  0.00000000000E+00 0.  1.
         22    1    1    2    0    0  0.63414111667E+02 -0.27401709355E+03  0.14048348104E+04  0.14327133564E+04  0.00000000000E+00 0. -1.
<mgrwt>
<rscale>  0 0.12446125E+04</rscale>
<asrwt>0</asrwt>
<pdfrwt beam="1">  1        2 0.23214456E+00 0.12446125E+04</pdfrwt>
<pdfrwt beam="2">  1       -2 0.39484181E-01 0.12446125E+04</pdfrwt>
<totfact> 0.74852370E+01</totfact>
</mgrwt>
</event>
<event>
 6    1  0.2325157E-005  0.6250201E+04  0.7818608E-02  0.7660131E-01
          2   -1    0    0  501    0  0.00000000000E+00  0.00000000000E+00  0.32028946008E+04  0.32028946008E+04  0.00000000000E+00 0.  1.
         -2   -1    0    0    0  501 -0.00000000000E+00 -0.00000000000E+00 -0.30491961915E+04  0.30491961915E+04  0.00000000000E+00 0. -1.
         23    2    1    2    0    0 -0.22212763463E+04 -0.17223149982E+04  0.14417728990E+04  0.31602348043E+04  0.89091896842E+02 0.  0.
         13    1    3    3    0    0 -0.13124710976E+04 -0.97446631379E+03  0.86932007129E+03  0.18514541218E+04  0.00000000000E+00 0. -1.
        -13    1    3    3    0    0 -0.90880524869E+03 -0.74784868445E+03  0.57245282770E+03  0.13087806825E+04  0.00000000000E+00 0.  1.
         22    1    1    2    0    0  0.22212763463E+04  0.17223149982E+04 -0.12880744898E+04  0.30918559881E+04  0.00000000000E+00 0. -1.
<mgrwt>
<rscale>  0 0.62502013E+04</rscale>
<asrwt>0</asrwt>
<pdfrwt beam="1">  1        2 0.49275301E+00 0.62502013E+04</pdfrwt>
<pdfrwt beam="2">  1       -2 0.46910711E+00 0.62502013E+04</pdfrwt>
<totfact> 0.22301129E-03</totfact>
</mgrwt>
</event>
<event>
 6    1  0.2325157E-005  0.1698175E+04  0.7818608E-02  0.8762406E-01
          2   -1    0    0  501    0  0.00000000000E+00  0.00000000000E+00  0.14149878079E+04  0.14149878079E+04  0.00000000000E+00 0. -1.
         -2   -1    0    0    0  501 -0.00000000000E+00 -0.00000000000E+00 -0.50950928393E+03  0.50950928393E+03  0.00000000000E+00 0.  1.
         23    2    1    2    0    0  0.39389784940E+03 -0.74764549350E+03  0.51455637235E+03  0.99339590056E+03  0.89094641808E+02 0.  0.
         13    1    3    3    0    0  0.15278830478E+03 -0.37475408207E+03  0.22143149215E+03  0.46132070604E+03  0.00000000000E+00 0. -1.
        -13    1    3    3    0    0  0.24110954462E+03 -0.37289141144E+03  0.29312488020E+03  0.53207519452E+03  0.00000000000E+00 0.  1.
         22    1    1    2    0    0 -0.39389784940E+03  0.74764549350E+03  0.39092215157E+03  0.93110119123E+03  0.00000000000E+00 0.  1.
<mgrwt>
<rscale>  0 0.16981748E+04</rscale>
<asrwt>0</asrwt>
<pdfrwt beam="1">  1        2 0.21769043E+00 0.16981748E+04</pdfrwt>
<pdfrwt beam="2">  1       -2 0.78386044E-01 0.16981748E+04</pdfrwt>
<totfact> 0.19538492E+01</totfact>
</mgrwt>
</event>
<event>
 6    1  0.2325157E-005  0.2236956E+04  0.7818608E-02  0.8503202E-01
          2   -1    0    0  501    0  0.00000000000E+00  0.00000000000E+00  0.22610044109E+04  0.22610044109E+04  0.00000000000E+00 0.  1.
         -2   -1    0    0    0  501 -0.00000000000E+00 -0.00000000000E+00 -0.55329092264E+03  0.55329092264E+03  0.00000000000E+00 0. -1.
         23    2    1    2    0    0 -0.20146080390E+03  0.60513776316E+03  0.20084022151E+04  0.21091769901E+04  0.90387776165E+02 0.  0.
         13    1    3    3    0    0 -0.20539459265E+03  0.53279813559E+03  0.17494463096E+04  0.18402780176E+04  0.00000000000E+00 0.  1.
        -13    1    3    3    0    0  0.39337887446E+01  0.72339627566E+02  0.25895590548E+03  0.26889897246E+03  0.00000000000E+00 0. -1.
         22    1    1    2    0    0  0.20146080390E+03 -0.60513776316E+03 -0.30068872677E+03  0.70511834349E+03  0.00000000000E+00 0. -1.
<mgrwt>
<rscale>  0 0.22369562E+04</rscale>
<asrwt>0</asrwt>
<pdfrwt beam="1">  1        2 0.34784683E+00 0.22369562E+04</pdfrwt>
<pdfrwt beam="2">  1       -2 0.85121682E-01 0.22369562E+04</pdfrwt>
<totfact> 0.52201527E+00</totfact>
</mgrwt>
</event>
<event>
 6    1  0.2325157E-005  0.1226191E+04  0.7818608E-02  0.9090236E-01
          2   -1    0    0  501    0  0.00000000000E+00  0.00000000000E+00  0.19671939920E+04  0.19671939920E+04  0.00000000000E+00 0.  1.
         -2   -1    0    0    0  501 -0.00000000000E+00 -0.00000000000E+00 -0.19107715889E+03  0.19107715889E+03  0.00000000000E+00 0. -1.
         23    2    1    2    0    0  0.37801499377E+03 -0.26427226420E+03  0.15947884482E+04  0.16626754000E+04  0.91674021683E+02 0.  0.
         13    1    3    3    0    0  0.29154045072E+03 -0.15330833693E+03  0.10960633670E+04  0.11444886129E+04  0.00000000000E+00 0. -1.
        -13    1    3    3    0    0  0.86474543049E+02 -0.11096392727E+03  0.49872508113E+03  0.51818678708E+03  0.00000000000E+00 0.  1.
         22    1    1    2    0    0 -0.37801499377E+03  0.26427226420E+03  0.18132838499E+03  0.49559575093E+03  0.00000000000E+00 0. -1.
<mgrwt>
<rscale>  0 0.12261906E+04</rscale>
<asrwt>0</asrwt>
<pdfrwt beam="1">  1        2 0.30264522E+00 0.12261906E+04</pdfrwt>
<pdfrwt beam="2">  1       -2 0.29396487E-01 0.12261906E+04</pdfrwt>
<totfact> 0.73178054E+01</totfact>
</mgrwt>
</event>
<event>
 6    1  0.2685594E-005  0.2300210E+04  0.7818608E-02  0.8477838E-01
          2   -1    0    0  501    0  0.00000000000E+00  0.00000000000E+00  0.22332178498E+04  0.22332178498E+04  0.00000000000E+00 0.  1.
         -2   -1    0    0    0  501 -0.00000000000E+00 -0.00000000000E+00 -0.59230285912E+03  0.59230285912E+03  0.00000000000E+00 0. -1.
         23    2    1    2    0    0 -0.33475606877E+03  0.76387856863E+03 -0.14802800738E+03  0.85172002408E+03  0.89121351234E+02 0.  0.
         13    1    3    3    0    0 -0.16071618183E+03  0.45634967798E+03 -0.59745243682E+02  0.48749791162E+03  0.00000000000E+00 0. -1.
        -13    1    3    3    0    0 -0.17403988694E+03  0.30752889066E+03 -0.88282763701E+02  0.36422211246E+03  0.00000000000E+00 0.  1.
         22    1    1    2    0    0  0.33475606877E+03 -0.76387856863E+03  0.17889429981E+04  0.19738006849E+04  0.00000000000E+00 0.  1.
<mgrwt>
<rscale>  0 0.23002098E+04</rscale>
<asrwt>0</asrwt>
<pdfrwt beam="1">  1        2 0.34357197E+00 0.23002098E+04</pdfrwt>
<pdfrwt beam="2">  1       -2 0.91123518E-01 0.23002098E+04</pdfrwt>
<totfact> 0.46040294E+00</totfact>
</mgrwt>
</event>
<event>
 6    1  0.2325157E-005  0.3050140E+04  0.7818608E-02  0.8229556E-01
          2   -1    0    0  501    0  0.00000000000E+00  0.00000000000E+00  0.22320983826E+04  0.22320983826E+04  0.00000000000E+00 0.  1.
         -2   -1    0    0    0  501 -0.00000000000E+00 -0.00000000000E+00 -0.10419967316E+04  0.10419967316E+04  0.00000000000E+00 0. -1.
         23    2    1    2    0    0  0.13951143912E+03  0.15171469866E+04  0.56816136162E+03  0.16284924452E+04  0.89341426264E+02 0.  0.
         11    1    3    3    0    0  0.64109736221E+02  0.72133663593E+03  0.31765726302E+03  0.79078615147E+03  0.00000000000E+00 0.  1.
        -11    1    3    3    0    0  0.75401702902E+02  0.79581035069E+03  0.25050409860E+03  0.83770629369E+03  0.00000000000E+00 0. -1.
         22    1    1    2    0    0 -0.13951143912E+03 -0.15171469866E+04  0.62194028937E+03  0.16456026690E+04  0.00000000000E+00 0.  1.
<mgrwt>
<rscale>  0 0.30501405E+04</rscale>
<asrwt>0</asrwt>
<pdfrwt beam="1">  1        2 0.34339975E+00 0.30501405E+04</pdfrwt>
<pdfrwt beam="2">  1       -2 0.16030719E+00 0.30501405E+04</pdfrwt>
<totfact> 0.10580414E+00</totfact>
</mgrwt>
</event>
<event>
 6    1  0.2325157E-005  0.2226938E+04  0.7818608E-02  0.8507299E-01
          2   -1    0    0  501    0  0.00000000000E+00  0.00000000000E+00  0.22353771582E+04  0.22353771582E+04  0.00000000000E+00 0.  1.
         -2   -1    0    0    0  501 -0.00000000000E+00 -0.00000000000E+00 -0.55463291447E+03  0.55463291447E+03  0.00000000000E+00 0. -1.
         23    2    1    2    0    0  0.52947208556E+03 -0.53936869694E+03 -0.17937056129E+03  0.78220371536E+03  0.91703726376E+02 0.  0.
         13    1    3    3    0    0  0.46035372685E+03 -0.41947680360E+03 -0.14043453890E+03  0.63844201170E+03  0.00000000000E+00 0. -1.
        -13    1    3    3    0    0  0.69118358714E+02 -0.11989189334E+03 -0.38936022391E+02  0.14376170366E+03  0.00000000000E+00 0.  1.
         22    1    1    2    0    0 -0.52947208556E+03  0.53936869694E+03  0.18601148051E+04  0.20078063574E+04  0.00000000000E+00 0.  1.
<mgrwt>
<rscale>  0 0.22269385E+04</rscale>
<asrwt>0</asrwt>
<pdfrwt beam="1">  1        2 0.34390417E+00 0.22269385E+04</pdfrwt>
<pdfrwt beam="2">  1       -2 0.85328142E-01 0.22269385E+04</pdfrwt>
<totfact> 0.53717856E+00</totfact>
</mgrwt>
</event>
<event>
 6    1  0.2325157E-005  0.2137329E+04  0.7818608E-02  0.8544976E-01
          1   -1    0    0  501    0  0.00000000000E+00  0.00000000000E+00  0.15293094416E+04  0.15293094416E+04  0.00000000000E+00 0.  1.
         -1   -1    0    0    0  501 -0.00000000000E+00 -0.00000000000E+00 -0.74677107091E+03  0.74677107091E+03  0.00000000000E+00 0. -1.
         23    2    1    2    0    0 -0.26276850125E+02  0.93921280366E+03 -0.14587850909E+03  0.95518344384E+03  0.91014880938E+02 0.  0.
         11    1    3    3    0    0  0.15675510462E+02  0.49343977232E+03 -0.11149649500E+03  0.50612251376E+03  0.00000000000E+00 0. -1.
        -11    1    3    3    0    0 -0.41952360588E+02  0.44577303134E+03 -0.34382014085E+02  0.44906093008E+03  0.00000000000E+00 0.  1.
         22    1    1    2    0    0  0.26276850125E+02 -0.93921280366E+03  0.92841687982E+03  0.13208970687E+04  0.00000000000E+00 0.  1.
<mgrwt>
<rscale>  0 0.21373292E+04</rscale>
<asrwt>0</asrwt>
<pdfrwt beam="1">  1        1 0.23527838E+00 0.21373292E+04</pdfrwt>
<pdfrwt beam="2">  1       -1 0.11488786E+00 0.21373292E+04</pdfrwt>
<totfact> 0.39372975E+00</totfact>
</mgrwt>
</event>
<event>
 6    1  0.2325157E-005  0.1221688E+04  0.7818608E-02  0.9094082E-01
          2   -1    0    0  501    0  0.00000000000E+00  0.00000000000E+00  0.11811849806E+04  0.11811849806E+04  0.00000000000E+00 0.  1.
         -2   -1    0    0    0  501 -0.00000000000E+00 -0.00000000000E+00 -0.31589477375E+03  0.31589477375E+03  0.00000000000E+00 0. -1.
         23    2    1    2    0    0 -0.26014911800E+03 -0.40891737047E+03 -0.14615713487E+02  0.49252741220E+03  0.86479206875E+02 0.  0.
         13    1    3    3    0    0 -0.64036487237E+02 -0.15283915039E+03  0.24889130307E+02  0.16757072058E+03  0.00000000000E+00 0. -1.
        -13    1    3    3    0    0 -0.19611263076E+03 -0.25607822008E+03 -0.39504843794E+02  0.32495669162E+03  0.00000000000E+00 0.  1.
         22    1    1    2    0    0  0.26014911800E+03  0.40891737047E+03  0.87990592031E+03  0.10045523421E+04  0.00000000000E+00 0.  1.
<mgrwt>
<rscale>  0 0.12216876E+04</rscale>
<asrwt>0</asrwt>
<pdfrwt beam="1">  1        2 0.18172076E+00 0.12216876E+04</pdfrwt>
<pdfrwt beam="2">  1       -2 0.48599197E-01 0.12216876E+04</pdfrwt>
<totfact> 0.76784209E+01</totfact>
</mgrwt>
</event>
<event>
 6    1  0.3443497E-005  0.4677171E+04  0.7818608E-02  0.7880333E-01
         -2   -1    0    0    0  501 -0.00000000000E+00  0.00000000000E+00  0.15991837188E+04  0.15991837188E+04  0.00000000000E+00 0. -1.
          2   -1    0    0  501    0  0.00000000000E+00 -0.00000000000E+00 -0.34198589480E+04  0.34198589480E+04  0.00000000000E+00 0.  1.
         23    2    1    2    0    0  0.12637759697E+04  0.11941384909E+04  0.76651054419E+03  0.19018922593E+04  0.80989596596E+02 0.  0.
         11    1    3    3    0    0  0.69498686246E+03  0.63329829323E+03  0.37437930666E+03  0.10120441356E+04  0.00000000000E+00 0. -1.
        -11    1    3    3    0    0  0.56878910724E+03  0.56084019762E+03  0.39213123753E+03  0.88984812368E+03  0.00000000000E+00 0.  1.
         22    1    1    2    0    0 -0.12637759697E+04 -0.11941384909E+04 -0.25871857733E+04  0.31171504075E+04  0.00000000000E+00 0.  1.
<mgrwt>
<rscale>  0 0.46771713E+04</rscale>
<asrwt>0</asrwt>
<pdfrwt beam="1">  1        2 0.52613215E+00 0.46771713E+04</pdfrwt>
<pdfrwt beam="2">  1       -2 0.24602826E+00 0.46771713E+04</pdfrwt>
<totfact> 0.46845786E-02</totfact>
</mgrwt>
</event>
<event>
 6    1  0.2325157E-005  0.1919862E+04  0.7818608E-02  0.8645032E-01
         -2   -1    0    0    0  501 -0.00000000000E+00  0.00000000000E+00  0.90763646900E+03  0.90763646900E+03  0.00000000000E+00 0. -1.
          2   -1    0    0  501    0  0.00000000000E+00 -0.00000000000E+00 -0.10152390272E+04  0.10152390272E+04  0.00000000000E+00 0.  1.
         23    2    1    2    0    0  0.88873055669E+03  0.35588386539E+03 -0.27167436455E+02  0.96216475049E+03  0.92345056473E+02 0.  0.
         13    1    3    3    0    0  0.68106674328E+03  0.26672588618E+03  0.18209697527E+02  0.73165989383E+03  0.00000000000E+00 0. -1.
        -13    1    3    3    0    0  0.20766381341E+03  0.89157979209E+02 -0.45377133982E+02  0.23050485666E+03  0.00000000000E+00 0.  1.
         22    1    1    2    0    0 -0.88873055669E+03 -0.35588386539E+03 -0.80435121696E+02  0.96071074567E+03  0.00000000000E+00 0. -1.
<mgrwt>
<rscale>  0 0.19198625E+04</rscale>
<asrwt>0</asrwt>
<pdfrwt beam="1">  1        2 0.15619062E+00 0.19198625E+04</pdfrwt>
<pdfrwt beam="2">  1       -2 0.13963638E+00 0.19198625E+04</pdfrwt>
<totfact> 0.83268902E+00</totfact>
</mgrwt>
</event>
<event>
 6    1  0.2325157E-005  0.1503402E+04  0.7818608E-02  0.8882194E-01
         -2   -1    0    0    0  501 -0.00000000000E+00  0.00000000000E+00  0.33304193095E+03  0.33304193095E+03  0.00000000000E+00 0. -1.
          2   -1    0    0  501    0  0.00000000000E+00 -0.00000000000E+00 -0.16966460448E+04  0.16966460448E+04  0.00000000000E+00 0.  1.
         23    2    1    2    0    0 -0.70755366203E+03  0.24268093937E+03 -0.63538561903E+03  0.98573950998E+03  0.91876404365E+02 0.  0.
         11    1    3    3    0    0 -0.57205125596E+03  0.17469905508E+03 -0.54531370476E+03  0.80940066462E+03  0.00000000000E+00 0. -1.
        -11    1    3    3    0    0 -0.13550240608E+03  0.67981884282E+02 -0.90071914274E+02  0.17633884536E+03  0.00000000000E+00 0.  1.
         22    1    1    2    0    0  0.70755366203E+03 -0.24268093937E+03 -0.72821849484E+03  0.10439484658E+04  0.00000000000E+00 0.  1.
<mgrwt>
<rscale>  0 0.15034018E+04</rscale>
<asrwt>0</asrwt>
<pdfrwt beam="1">  1        2 0.26102247E+00 0.15034018E+04</pdfrwt>
<pdfrwt beam="2">  1       -2 0.51237220E-01 0.15034018E+04</pdfrwt>
<totfact> 0.34240217E+01</totfact>
</mgrwt>
</event>
<event>
 6    1  0.2325157E-005  0.2834529E+04  0.7818608E-02  0.8292628E-01
          2   -1    0    0  501    0  0.00000000000E+00  0.00000000000E+00  0.20053377720E+04  0.20053377720E+04  0.00000000000E+00 0.  1.
         -2   -1    0    0    0  501 -0.00000000000E+00 -0.00000000000E+00 -0.10016458667E+04  0.10016458667E+04  0.00000000000E+00 0. -1.
         23    2    1    2    0    0 -0.23570647638E+03  0.13345823454E+04  0.93717776570E+03  0.16501152919E+04  0.88942298098E+02 0.  0.
         13    1    3    3    0    0 -0.23183717927E+03  0.13085338328E+04  0.90177067936E+03  0.16059886760E+04  0.00000000000E+00 0.  1.
        -13    1    3    3    0    0 -0.38692971140E+01  0.26048512620E+02  0.35407086339E+02  0.44126615924E+02  0.00000000000E+00 0. -1.
         22    1    1    2    0    0  0.23570647638E+03 -0.13345823454E+04  0.66514139664E+02  0.13568683468E+04  0.00000000000E+00 0. -1.
<mgrwt>
<rscale>  0 0.28345287E+04</rscale>
<asrwt>0</asrwt>
<pdfrwt beam="1">  1        2 0.30851350E+00 0.28345287E+04</pdfrwt>
<pdfrwt beam="2">  1       -2 0.15409936E+00 0.28345287E+04</pdfrwt>
<totfact> 0.16056401E+00</totfact>
</mgrwt>
</event>
<event>
 6    1  0.2325157E-005  0.2386770E+04  0.7818608E-02  0.8444473E-01
         -2   -1    0    0    0  501 -0.00000000000E+00  0.00000000000E+00  0.13190609101E+04  0.13190609101E+04  0.00000000000E+00 0. -1.
          2   -1    0    0  501    0  0.00000000000E+00 -0.00000000000E+00 -0.10796828699E+04  0.10796828699E+04  0.00000000000E+00 0.  1.
         23    2    1    2    0    0  0.35659488850E+03  0.43818202405E+03  0.11743731991E+04  0.13063247451E+04  0.90379909999E+02 0.  0.
         13    1    3    3    0    0  0.59182065585E+02  0.98612804842E+02  0.17086619635E+03  0.20596664589E+03  0.00000000000E+00 0. -1.
        -13    1    3    3    0    0  0.29741282291E+03  0.33956921921E+03  0.10035070028E+04  0.11003580992E+04  0.00000000000E+00 0.  1.
         22    1    1    2    0    0 -0.35659488850E+03 -0.43818202405E+03 -0.93499515894E+03  0.10924190350E+04  0.00000000000E+00 0.  1.
<mgrwt>
<rscale>  0 0.23867698E+04</rscale>
<asrwt>0</asrwt>
<pdfrwt beam="1">  1        2 0.16610506E+00 0.23867698E+04</pdfrwt>
<pdfrwt beam="2">  1       -2 0.20293245E+00 0.23867698E+04</pdfrwt>
<totfact> 0.25686625E+00</totfact>
</mgrwt>
</event>
<event>
 6    1  0.2325157E-005  0.1892802E+04  0.7818608E-02  0.8658447E-01
          2   -1    0    0  501    0  0.00000000000E+00  0.00000000000E+00  0.43378115287E+03  0.43378115287E+03  0.00000000000E+00 0.  1.
         -2   -1    0    0    0  501 -0.00000000000E+00 -0.00000000000E+00 -0.20648086394E+04  0.20648086394E+04  0.00000000000E+00 0. -1.
         23    2    1    2    0    0 -0.62781926549E+03 -0.33909554924E+03 -0.10408567548E+01  0.71926429229E+03  0.90538484306E+02 0.  0.
         11    1    3    3    0    0 -0.37190415776E+03 -0.22261073857E+03  0.39261690831E+02  0.43521227447E+03  0.00000000000E+00 0. -1.
        -11    1    3    3    0    0 -0.25591510773E+03 -0.11648481067E+03 -0.40302547586E+02  0.28405201781E+03  0.00000000000E+00 0.  1.
         22    1    1    2    0    0  0.62781926549E+03  0.33909554924E+03 -0.16299866298E+04  0.17793255000E+04  0.00000000000E+00 0. -1.
<mgrwt>
<rscale>  0 0.18928022E+04</rscale>
<asrwt>0</asrwt>
<pdfrwt beam="1">  1        2 0.66735561E-01 0.18928022E+04</pdfrwt>
<pdfrwt beam="2">  1       -2 0.31766287E+00 0.18928022E+04</pdfrwt>
<totfact> 0.16857076E+00</totfact>
</mgrwt>
</event>
<event>
 6    1  0.2325157E-005  0.2305742E+04  0.7818608E-02  0.8475660E-01
         -1   -1    0    0    0  501 -0.00000000000E+00  0.00000000000E+00  0.50568549677E+03  0.50568549677E+03  0.00000000000E+00 0. -1.
          1   -1    0    0  501    0  0.00000000000E+00 -0.00000000000E+00 -0.26283366911E+04  0.26283366911E+04  0.00000000000E+00 0.  1.
         23    2    1    2    0    0  0.21664820333E+03 -0.95739974360E+03 -0.18800476331E+04  0.21228806543E+04  0.92154525663E+02 0.  0.
         11    1    3    3    0    0  0.17034455638E+02 -0.23592881102E+03 -0.48884096857E+03  0.54306359582E+03  0.00000000000E+00 0. -1.
        -11    1    3    3    0    0  0.19961374769E+03 -0.72147093258E+03 -0.13912066645E+04  0.15798170585E+04  0.00000000000E+00 0.  1.
         22    1    1    2    0    0 -0.21664820333E+03  0.95739974360E+03 -0.24260356125E+03  0.10111415336E+04  0.00000000000E+00 0. -1.
<mgrwt>
<rscale>  0 0.23057422E+04</rscale>
<asrwt>0</asrwt>
<pdfrwt beam="1">  1        1 0.40435948E+00 0.23057422E+04</pdfrwt>
<pdfrwt beam="2">  1       -1 0.77797770E-01 0.23057422E+04</pdfrwt>
<totfact> 0.16482885E+00</totfact>
</mgrwt>
</event>
<event>
 6    1  0.2325157E-005  0.1085851E+04  0.7818608E-02  0.9219094E-01
         -2   -1    0    0    0  501 -0.00000000000E+00  0.00000000000E+00  0.37981075489E+03  0.37981075489E+03  0.00000000000E+00 0. -1.
          2   -1    0    0  501    0  0.00000000000E+00 -0.00000000000E+00 -0.77609133475E+03  0.77609133475E+03  0.00000000000E+00 0.  1.
         23    2    1    2    0    0  0.13026483683E+03 -0.29401253323E+03 -0.65938090363E+03  0.74040951717E+03  0.10005388366E+03 0.  0.
         13    1    3    3    0    0  0.10190077989E+03 -0.19860295444E+03 -0.34738248838E+03  0.41291826757E+03  0.00000000000E+00 0.  1.
        -13    1    3    3    0    0  0.28364056936E+02 -0.95409578787E+02 -0.31199841525E+03  0.32749124960E+03  0.00000000000E+00 0. -1.
         22    1    1    2    0    0 -0.13026483683E+03  0.29401253323E+03  0.26310032377E+03  0.41549257247E+03  0.00000000000E+00 0. -1.
<mgrwt>
<rscale>  0 0.10858505E+04</rscale>
<asrwt>0</asrwt>
<pdfrwt beam="1">  1        2 0.11939867E+00 0.10858505E+04</pdfrwt>
<pdfrwt beam="2">  1       -2 0.58432424E-01 0.10858505E+04</pdfrwt>
<totfact> 0.97625864E+01</totfact>
</mgrwt>
</event>
<event>
 6    1  0.2325157E-005  0.1021473E+04  0.7818608E-02  0.9285302E-01
         -2   -1    0    0    0  501 -0.00000000000E+00  0.00000000000E+00  0.20473336096E+03  0.20473336096E+03  0.00000000000E+00 0. -1.
          2   -1    0    0  501    0  0.00000000000E+00 -0.00000000000E+00 -0.12741056191E+04  0.12741056191E+04  0.00000000000E+00 0.  1.
         23    2    1    2    0    0 -0.35477222766E+03  0.13112791469E+03 -0.10268165604E+04  0.10982225709E+04  0.93181021846E+02 0.  0.
         11    1    3    3    0    0 -0.19917226614E+03  0.48964019782E+02 -0.43737898091E+03  0.48308119377E+03  0.00000000000E+00 0.  1.
        -11    1    3    3    0    0 -0.15559996152E+03  0.82163894904E+02 -0.58943757952E+03  0.61514137709E+03  0.00000000000E+00 0. -1.
         22    1    1    2    0    0  0.35477222766E+03 -0.13112791469E+03 -0.42555697696E+02  0.38061640918E+03  0.00000000000E+00 0. -1.
<mgrwt>
<rscale>  0 0.10214733E+04</rscale>
<asrwt>0</asrwt>
<pdfrwt beam="1">  1        2 0.19601625E+00 0.10214733E+04</pdfrwt>
<pdfrwt beam="2">  1       -2 0.31497441E-01 0.10214733E+04</pdfrwt>
<totfact> 0.15957002E+02</totfact>
</mgrwt>
</event>
<event>
 6    1  0.2325157E-005  0.8767912E+03  0.7818608E-02  0.9455068E-01
          2   -1    0    0  501    0  0.00000000000E+00  0.00000000000E+00  0.22724504166E+03  0.22724504166E+03  0.00000000000E+00 0.  1.
         -2   -1    0    0    0  501 -0.00000000000E+00 -0.00000000000E+00 -0.84574208681E+03  0.84574208681E+03  0.00000000000E+00 0. -1.
         23    2    1    2    0    0  0.29507528536E+03  0.21380364748E+03 -0.32378515372E+02  0.38283036754E+03  0.11282419223E+03 0.  0.
         13    1    3    3    0    0  0.23593952563E+03  0.10694961534E+03 -0.28898176047E+02  0.26065453105E+03  0.00000000000E+00 0. -1.
        -13    1    3    3    0    0  0.59135759727E+02  0.10685403213E+03 -0.34803393251E+01  0.12217583650E+03  0.00000000000E+00 0.  1.
         22    1    1    2    0    0 -0.29507528536E+03 -0.21380364748E+03 -0.58611852978E+03  0.69015676092E+03  0.00000000000E+00 0. -1.
<mgrwt>
<rscale>  0 0.87679119E+03</rscale>
<asrwt>0</asrwt>
<pdfrwt beam="1">  1        2 0.34960775E-01 0.87679119E+03</pdfrwt>
<pdfrwt beam="2">  1       -2 0.13011417E+00 0.87679119E+03</pdfrwt>
<totfact> 0.65153586E+01</totfact>
</mgrwt>
</event>
<event>
 6    1  0.2325157E-005  0.8698031E+03  0.7818608E-02  0.9464137E-01
          1   -1    0    0  501    0  0.00000000000E+00  0.00000000000E+00  0.65942458363E+03  0.65942458363E+03  0.00000000000E+00 0.  1.
         -1   -1    0    0    0  501 -0.00000000000E+00 -0.00000000000E+00 -0.28682482604E+03  0.28682482604E+03  0.00000000000E+00 0. -1.
         23    2    1    2    0    0  0.16817894162E+03  0.39678170149E+03  0.21066299292E+03  0.48587631011E+03  0.77311170579E+02 0.  0.
         13    1    3    3    0    0  0.16286270434E+03  0.30545943871E+03  0.16074223920E+03  0.38166450794E+03  0.00000000000E+00 0.  1.
        -13    1    3    3    0    0  0.53162372819E+01  0.91322262786E+02  0.49920753721E+02  0.10421180217E+03  0.00000000000E+00 0. -1.
         22    1    1    2    0    0 -0.16817894162E+03 -0.39678170149E+03  0.16193676467E+03  0.46037309956E+03  0.00000000000E+00 0. -1.
<mgrwt>
<rscale>  0 0.86980306E+03</rscale>
<asrwt>0</asrwt>
<pdfrwt beam="1">  1        1 0.10144994E+00 0.86980306E+03</pdfrwt>
<pdfrwt beam="2">  1       -1 0.44126897E-01 0.86980306E+03</pdfrwt>
<totfact> 0.15271330E+02</totfact>
</mgrwt>
</event>
<event>
 6    1  0.2325157E-005  0.2718300E+04  0.7818608E-02  0.8329091E-01
         -2   -1    0    0    0  501 -0.00000000000E+00  0.00000000000E+00  0.14267394967E+04  0.14267394967E+04  0.00000000000E+00 0. -1.
          2   -1    0    0  501    0  0.00000000000E+00 -0.00000000000E+00 -0.12947628069E+04  0.12947628069E+04  0.00000000000E+00 0.  1.
         23    2    1    2    0    0 -0.72327979726E+03  0.16170693089E+03  0.12048614140E+04  0.14175220782E+04  0.91624333605E+02 0.  0.
         13    1    3    3    0    0 -0.20220483133E+03  0.73772774050E+02  0.40932058140E+03  0.46246357085E+03  0.00000000000E+00 0.  1.
        -13    1    3    3    0    0 -0.52107496593E+03  0.87934156839E+02  0.79554083261E+03  0.95505850732E+03  0.00000000000E+00 0. -1.
         22    1    1    2    0    0  0.72327979726E+03 -0.16170693089E+03 -0.10728847242E+04  0.13039802253E+04  0.00000000000E+00 0.  1.
<mgrwt>
<rscale>  0 0.27183004E+04</rscale>
<asrwt>0</asrwt>
<pdfrwt beam="1">  1        2 0.19919428E+00 0.27183004E+04</pdfrwt>
<pdfrwt beam="2">  1       -2 0.21949838E+00 0.27183004E+04</pdfrwt>
<totfact> 0.14520115E+00</totfact>
</mgrwt>
</event>
<event>
 6    1  0.2325157E-005  0.3172104E+04  0.7818608E-02  0.8196224E-01
         -2   -1    0    0    0  501 -0.00000000000E+00  0.00000000000E+00  0.29880947422E+04  0.29880947422E+04  0.00000000000E+00 0. -1.
          2   -1    0    0  501    0  0.00000000000E+00 -0.00000000000E+00 -0.84186106157E+03  0.84186106157E+03  0.00000000000E+00 0.  1.
         23    2    1    2    0    0 -0.10966401377E+04 -0.11203403194E+04  0.79464751324E+03  0.17600361940E+04  0.92090775281E+02 0.  0.
         11    1    3    3    0    0 -0.67404762734E+03 -0.72723621432E+03  0.46255205534E+03  0.10941513237E+04  0.00000000000E+00 0. -1.
        -11    1    3    3    0    0 -0.42259251040E+03 -0.39310410511E+03  0.33209545791E+03  0.66588487027E+03  0.00000000000E+00 0.  1.
         22    1    1    2    0    0  0.10966401377E+04  0.11203403194E+04  0.13515861674E+04  0.20699196098E+04  0.00000000000E+00 0.  1.
<mgrwt>
<rscale>  0 0.31721038E+04</rscale>
<asrwt>0</asrwt>
<pdfrwt beam="1">  1        2 0.12951709E+00 0.31721038E+04</pdfrwt>
<pdfrwt beam="2">  1       -2 0.45970688E+00 0.31721038E+04</pdfrwt>
<totfact> 0.81153864E-02</totfact>
</mgrwt>
</event>
<event>
 6    1  0.2325157E-005  0.2570627E+04  0.7818608E-02  0.8378247E-01
          2   -1    0    0  501    0  0.00000000000E+00  0.00000000000E+00  0.23491600489E+04  0.23491600489E+04  0.00000000000E+00 0. -1.
         -2   -1    0    0    0  501 -0.00000000000E+00 -0.00000000000E+00 -0.70324339630E+03  0.70324339630E+03  0.00000000000E+00 0.  1.
         23    2    1    2    0    0 -0.34805234156E+01 -0.68741579843E+03 -0.46324307021E+03  0.83404654643E+03  0.92124402562E+02 0.  0.
         13    1    3    3    0    0 -0.46915670352E+02 -0.31161978274E+03 -0.20216947579E+03  0.37440681893E+03  0.00000000000E+00 0.  1.
        -13    1    3    3    0    0  0.43435146936E+02 -0.37579601568E+03 -0.26107359441E+03  0.45963972750E+03  0.00000000000E+00 0. -1.
         22    1    1    2    0    0  0.34805234156E+01  0.68741579843E+03  0.21091597228E+04  0.22183568987E+04  0.00000000000E+00 0. -1.
<mgrwt>
<rscale>  0 0.25706274E+04</rscale>
<asrwt>0</asrwt>
<pdfrwt beam="1">  1        2 0.36140923E+00 0.25706274E+04</pdfrwt>
<pdfrwt beam="2">  1       -2 0.10819129E+00 0.25706274E+04</pdfrwt>
<totfact> 0.25773653E+00</totfact>
</mgrwt>
</event>
<event>
 6    1  0.2325157E-005  0.4286020E+04  0.7818608E-02  0.7949208E-01
         -2   -1    0    0    0  501 -0.00000000000E+00  0.00000000000E+00  0.32518189805E+04  0.32518189805E+04  0.00000000000E+00 0. -1.
          2   -1    0    0  501    0  0.00000000000E+00 -0.00000000000E+00 -0.14122839952E+04  0.14122839952E+04  0.00000000000E+00 0.  1.
         23    2    1    2    0    0 -0.11321483011E+04  0.32382207143E+03 -0.10270822081E+04  0.15650523722E+04  0.88716154713E+02 0.  0.
         13    1    3    3    0    0 -0.53016688684E+03  0.12650664861E+03 -0.42605345430E+03  0.69181096115E+03  0.00000000000E+00 0. -1.
        -13    1    3    3    0    0 -0.60198141427E+03  0.19731542282E+03 -0.60102875376E+03  0.87324141109E+03  0.00000000000E+00 0.  1.
         22    1    1    2    0    0  0.11321483011E+04 -0.32382207143E+03  0.28666171933E+04  0.30990506034E+04  0.00000000000E+00 0. -1.
<mgrwt>
<rscale>  0 0.42860200E+04</rscale>
<asrwt>0</asrwt>
<pdfrwt beam="1">  1        2 0.21727446E+00 0.42860200E+04</pdfrwt>
<pdfrwt beam="2">  1       -2 0.50027984E+00 0.42860200E+04</pdfrwt>
<totfact> 0.18083665E-02</totfact>
</mgrwt>
</event>
<event>
 6    1  0.2325157E-005  0.1104755E+04  0.7818608E-02  0.9200570E-01
          2   -1    0    0  501    0  0.00000000000E+00  0.00000000000E+00  0.29235976410E+04  0.29235976410E+04  0.00000000000E+00 0.  1.
         -2   -1    0    0    0  501 -0.00000000000E+00 -0.00000000000E+00 -0.10436481890E+03  0.10436481890E+03  0.00000000000E+00 0. -1.
         23    2    1    2    0    0  0.48485072435E+03  0.16657657100E+03  0.87853831380E+03  0.10206948760E+04  0.84619631922E+02 0.  0.
         11    1    3    3    0    0  0.93123741032E+02  0.61268212564E+02  0.23298046203E+03  0.25827450649E+03  0.00000000000E+00 0. -1.
        -11    1    3    3    0    0  0.39172698332E+03  0.10530835844E+03  0.64555785177E+03  0.76242036948E+03  0.00000000000E+00 0.  1.
         22    1    1    2    0    0 -0.48485072435E+03 -0.16657657100E+03  0.19406945083E+04  0.20072675839E+04  0.00000000000E+00 0. -1.
<mgrwt>
<rscale>  0 0.11047547E+04</rscale>
<asrwt>0</asrwt>
<pdfrwt beam="1">  1        2 0.44978419E+00 0.11047547E+04</pdfrwt>
<pdfrwt beam="2">  1       -2 0.16056128E-01 0.11047547E+04</pdfrwt>
<totfact> 0.61336547E+01</totfact>
</mgrwt>
</event>
<event>
 6    1  0.2325157E-005  0.3935275E+04  0.7818608E-02  0.8017732E-01
          2   -1    0    0  501    0  0.00000000000E+00  0.00000000000E+00  0.33123281555E+04  0.33123281555E+04  0.00000000000E+00 0.  1.
         -2   -1    0    0    0  501 -0.00000000000E+00 -0.00000000000E+00 -0.11688448425E+04  0.11688448425E+04  0.00000000000E+00 0. -1.
         23    2    1    2    0    0 -0.65423381209E+03 -0.11677913858E+04  0.27126909445E+04  0.30266091702E+04  0.99560569768E+02 0.  0.
         13    1    3    3    0    0 -0.44983369705E+03 -0.83484917409E+03  0.20143241413E+04  0.22263928775E+04  0.00000000000E+00 0.  1.
        -13    1    3    3    0    0 -0.20440011504E+03 -0.33294221171E+03  0.69836680315E+03  0.80021629271E+03  0.00000000000E+00 0. -1.
         22    1    1    2    0    0  0.65423381209E+03  0.11677913858E+04 -0.56920763150E+03  0.14545638279E+04  0.00000000000E+00 0. -1.
<mgrwt>
<rscale>  0 0.39352752E+04</rscale>
<asrwt>0</asrwt>
<pdfrwt beam="1">  1        2 0.50958894E+00 0.39352752E+04</pdfrwt>
<pdfrwt beam="2">  1       -2 0.17982228E+00 0.39352752E+04</pdfrwt>
<totfact> 0.15739573E-01</totfact>
</mgrwt>
</event>
<event>
 6    1  0.2325157E-005  0.2015704E+04  0.7818608E-02  0.8599314E-01
          2   -1    0    0  501    0  0.00000000000E+00  0.00000000000E+00  0.19145647649E+04  0.19145647649E+04  0.00000000000E+00 0.  1.
         -2   -1    0    0    0  501 -0.00000000000E+00 -0.00000000000E+00 -0.53054653359E+03  0.53054653359E+03  0.00000000000E+00 0. -1.
         23    2    1    2    0    0 -0.10026336679E+04 -0.30312146068E+02  0.78267778607E+03  0.12755800124E+04  0.91251044204E+02 0.  0.
         13    1    3    3    0    0 -0.70216631286E+03  0.20676702020E+02  0.54607576430E+03  0.88975490854E+03  0.00000000000E+00 0. -1.
        -13    1    3    3    0    0 -0.30046735499E+03 -0.50988848088E+02  0.23660202176E+03  0.38582510383E+03  0.00000000000E+00 0.  1.
         22    1    1    2    0    0  0.10026336679E+04  0.30312146068E+02  0.60134044523E+03  0.11695312861E+04  0.00000000000E+00 0. -1.
<mgrwt>
<rscale>  0 0.20157040E+04</rscale>
<asrwt>0</asrwt>
<pdfrwt beam="1">  1        2 0.29454842E+00 0.20157040E+04</pdfrwt>
<pdfrwt beam="2">  1       -2 0.81622545E-01 0.20157040E+04</pdfrwt>
<totfact> 0.91355672E+00</totfact>
</mgrwt>
</event>
<event>
 6    1  0.2325157E-005  0.1831504E+04  0.7818608E-02  0.8689723E-01
          2   -1    0    0  501    0  0.00000000000E+00  0.00000000000E+00  0.25589857597E+04  0.25589857597E+04  0.00000000000E+00 0.  1.
         -2   -1    0    0    0  501 -0.00000000000E+00 -0.00000000000E+00 -0.32770879935E+03  0.32770879935E+03  0.00000000000E+00 0. -1.
         23    2    1    2    0    0 -0.91083341632E+03 -0.65616247271E+02  0.11716654008E+04  0.14878737481E+04  0.83937324636E+02 0.  0.
         11    1    3    3    0    0 -0.77929859218E+03 -0.80669213944E+02  0.97456471909E+03  0.12504360078E+04  0.00000000000E+00 0. -1.
        -11    1    3    3    0    0 -0.13153482415E+03  0.15052966672E+02  0.19710068175E+03  0.23743774029E+03  0.00000000000E+00 0.  1.
         22    1    1    2    0    0  0.91083341632E+03  0.65616247271E+02  0.10596115595E+04  0.13988208110E+04  0.00000000000E+00 0.  1.
<mgrwt>
<rscale>  0 0.18315045E+04</rscale>
<asrwt>0</asrwt>
<pdfrwt beam="1">  1        2 0.39369010E+00 0.18315045E+04</pdfrwt>
<pdfrwt beam="2">  1       -2 0.50416740E-01 0.18315045E+04</pdfrwt>
<totfact> 0.11283491E+01</totfact>
</mgrwt>
</event>
<event>
 6    1  0.2325157E-005  0.2676632E+04  0.7818608E-02  0.8342627E-01
         -2   -1    0    0    0  501 -0.00000000000E+00  0.00000000000E+00  0.82080870425E+03  0.82080870425E+03  0.00000000000E+00 0.  1.
          2   -1    0    0  501    0  0.00000000000E+00 -0.00000000000E+00 -0.21821040763E+04  0.21821040763E+04  0.00000000000E+00 0. -1.
         23    2    1    2    0    0  0.13293155736E+04 -0.93144073549E+02 -0.80057795677E+03  0.15571743076E+04  0.90061349385E+02 0.  0.
         11    1    3    3    0    0  0.90723342647E+03 -0.62683149153E+02 -0.59456578776E+03  0.10865128362E+04  0.00000000000E+00 0. -1.
        -11    1    3    3    0    0  0.42208214710E+03 -0.30460924396E+02 -0.20601216901E+03  0.47066147133E+03  0.00000000000E+00 0.  1.
         22    1    1    2    0    0 -0.13293155736E+04  0.93144073549E+02 -0.56071741532E+03  0.14457384730E+04  0.00000000000E+00 0. -1.
<mgrwt>
<rscale>  0 0.26766322E+04</rscale>
<asrwt>0</asrwt>
<pdfrwt beam="1">  1        2 0.33570832E+00 0.26766322E+04</pdfrwt>
<pdfrwt beam="2">  1       -2 0.12627826E+00 0.26766322E+04</pdfrwt>
<totfact> 0.21709295E+00</totfact>
</mgrwt>
</event>
<event>
 6    1  0.2325157E-005  0.5027643E+04  0.7818608E-02  0.7824257E-01
          2   -1    0    0  501    0  0.00000000000E+00  0.00000000000E+00  0.35571546610E+04  0.35571546610E+04  0.00000000000E+00 0.  1.
         -2   -1    0    0    0  501 -0.00000000000E+00 -0.00000000000E+00 -0.17765036949E+04  0.17765036949E+04  0.00000000000E+00 0. -1.
         23    2    1    2    0    0  0.12686936248E+03 -0.20631553349E+04  0.24067972872E+04  0.31738516546E+04  0.89192896978E+02 0.  0.
         11    1    3    3    0    0  0.97953794957E+02 -0.14309236114E+04  0.16079062304E+04  0.21546460900E+04  0.00000000000E+00 0.  1.
        -11    1    3    3    0    0  0.28915567519E+02 -0.63223172355E+03  0.79889105677E+03  0.10192055646E+04  0.00000000000E+00 0. -1.
         22    1    1    2    0    0 -0.12686936248E+03  0.20631553349E+04 -0.62614632107E+03  0.21598067012E+04  0.00000000000E+00 0. -1.
<mgrwt>
<rscale>  0 0.50276429E+04</rscale>
<asrwt>0</asrwt>
<pdfrwt beam="1">  1        2 0.54725456E+00 0.50276429E+04</pdfrwt>
<pdfrwt beam="2">  1       -2 0.27330826E+00 0.50276429E+04</pdfrwt>
<totfact> 0.24843131E-02</totfact>
</mgrwt>
</event>
<event>
 6    1  0.2325157E-005  0.2502137E+04  0.7818608E-02  0.8402225E-01
         -2   -1    0    0    0  501 -0.00000000000E+00  0.00000000000E+00  0.10458795836E+04  0.10458795836E+04  0.00000000000E+00 0. -1.
          2   -1    0    0  501    0  0.00000000000E+00 -0.00000000000E+00 -0.14965128100E+04  0.14965128100E+04  0.00000000000E+00 0.  1.
         23    2    1    2    0    0  0.29177198809E+03 -0.26741956152E+03  0.97858513040E+03  0.10593855743E+04  0.89581374458E+02 0.  0.
         13    1    3    3    0    0  0.24416603637E+03 -0.23932476308E+03  0.90442091251E+03  0.96688705779E+03  0.00000000000E+00 0. -1.
        -13    1    3    3    0    0  0.47605951722E+02 -0.28094798440E+02  0.74164217893E+02  0.92498516499E+02  0.00000000000E+00 0.  1.
         22    1    1    2    0    0 -0.29177198809E+03  0.26741956152E+03 -0.14292183567E+04  0.14830068193E+04  0.00000000000E+00 0.  1.
<mgrwt>
<rscale>  0 0.25021368E+04</rscale>
<asrwt>0</asrwt>
<pdfrwt beam="1">  1        2 0.23023274E+00 0.25021368E+04</pdfrwt>
<pdfrwt beam="2">  1       -2 0.16090455E+00 0.25021368E+04</pdfrwt>
<totfact> 0.28209567E+00</totfact>
</mgrwt>
</event>
<event>
 6    1  0.2325157E-005  0.5205526E+03  0.7818608E-02  0.1008549E+00
         -2   -1    0    0    0  501 -0.00000000000E+00  0.00000000000E+00  0.76286369872E+02  0.76286369872E+02  0.00000000000E+00 0. -1.
          2   -1    0    0  501    0  0.00000000000E+00 -0.00000000000E+00 -0.88801910678E+03  0.88801910678E+03  0.00000000000E+00 0.  1.
         23    2    1    2    0    0  0.20181827290E+03 -0.99994993404E+02 -0.62853774443E+03  0.67397804211E+03  0.91962443929E+02 0.  0.
         11    1    3    3    0    0  0.12157339289E+03 -0.93197303641E+02 -0.31513594027E+03  0.35039476040E+03  0.00000000000E+00 0. -1.
        -11    1    3    3    0    0  0.80244880009E+02 -0.67976897636E+01 -0.31340180416E+03  0.32358328171E+03  0.00000000000E+00 0.  1.
         22    1    1    2    0    0 -0.20181827290E+03  0.99994993404E+02 -0.18319499248E+03  0.29032743455E+03  0.00000000000E+00 0. -1.
<mgrwt>
<rscale>  0 0.52055261E+03</rscale>
<asrwt>0</asrwt>
<pdfrwt beam="1">  1        2 0.13661833E+00 0.52055261E+03</pdfrwt>
<pdfrwt beam="2">  1       -2 0.11736364E-01 0.52055261E+03</pdfrwt>
<totfact> 0.15849731E+03</totfact>
</mgrwt>
</event>
<event>
 6    1  0.2325157E-005  0.1942936E+04  0.7818608E-02  0.8633775E-01
          2   -1    0    0  501    0  0.00000000000E+00  0.00000000000E+00  0.14823975347E+04  0.14823975347E+04  0.00000000000E+00 0.  1.
         -2   -1    0    0    0  501 -0.00000000000E+00 -0.00000000000E+00 -0.63663761498E+03  0.63663761498E+03  0.00000000000E+00 0. -1.
         23    2    1    2    0    0 -0.99957006153E+02  0.51162533710E+03 -0.46748432917E+03  0.70610827757E+03  0.91079157838E+02 0.  0.
         11    1    3    3    0    0  0.89745894371E+01  0.13870460561E+03 -0.98984772291E+02  0.17063849512E+03  0.00000000000E+00 0.  1.
        -11    1    3    3    0    0 -0.10893159559E+03  0.37292073150E+03 -0.36849955688E+03  0.53546978245E+03  0.00000000000E+00 0. -1.
         22    1    1    2    0    0  0.99957006153E+02 -0.51162533710E+03  0.13132442489E+04  0.14129268721E+04  0.00000000000E+00 0.  1.
<mgrwt>
<rscale>  0 0.19429360E+04</rscale>
<asrwt>0</asrwt>
<pdfrwt beam="1">  1        2 0.22806116E+00 0.19429360E+04</pdfrwt>
<pdfrwt beam="2">  1       -2 0.97944249E-01 0.19429360E+04</pdfrwt>
<totfact> 0.10518140E+01</totfact>
</mgrwt>
</event>
<event>
 6    1  0.2325157E-005  0.2866277E+04  0.7818608E-02  0.8282982E-01
         -2   -1    0    0    0  501 -0.00000000000E+00  0.00000000000E+00  0.16492232948E+04  0.16492232948E+04  0.00000000000E+00 0. -1.
          2   -1    0    0  501    0  0.00000000000E+00 -0.00000000000E+00 -0.12453653733E+04  0.12453653733E+04  0.00000000000E+00 0.  1.
         23    2    1    2    0    0  0.90254197057E+03  0.46938108436E+03  0.12196182501E+04  0.15906080222E+04  0.87547662452E+02 0.  0.
         13    1    3    3    0    0  0.75637539687E+03  0.39589902423E+03  0.10705956329E+04  0.13693117934E+04  0.00000000000E+00 0.  1.
        -13    1    3    3    0    0  0.14616657370E+03  0.73482060137E+02  0.14902261726E+03  0.22129622881E+03  0.00000000000E+00 0. -1.
         22    1    1    2    0    0 -0.90254197057E+03 -0.46938108436E+03 -0.81576032862E+03  0.13039806458E+04  0.00000000000E+00 0.  1.
<mgrwt>
<rscale>  0 0.28662767E+04</rscale>
<asrwt>0</asrwt>
<pdfrwt beam="1">  1        2 0.19159467E+00 0.28662767E+04</pdfrwt>
<pdfrwt beam="2">  1       -2 0.25372666E+00 0.28662767E+04</pdfrwt>
<totfact> 0.93904746E-01</totfact>
</mgrwt>
</event>
<event>
 6    1  0.2325157E-005  0.3561298E+04  0.7818608E-02  0.8099415E-01
          2   -1    0    0  501    0  0.00000000000E+00  0.00000000000E+00  0.40746234162E+04  0.40746234162E+04  0.00000000000E+00 0.  1.
         -2   -1    0    0    0  501 -0.00000000000E+00 -0.00000000000E+00 -0.77816054025E+03  0.77816054025E+03  0.00000000000E+00 0. -1.
         23    2    1    2    0    0  0.10472527995E+04  0.30666645897E+03  0.35646113425E+04  0.37290907851E+04  0.94240740303E+02 0.  0.
         11    1    3    3    0    0  0.52134844738E+03  0.11002870185E+03  0.18151982897E+04  0.18917862854E+04  0.00000000000E+00 0. -1.
        -11    1    3    3    0    0  0.52590435211E+03  0.19663775713E+03  0.17494130529E+04  0.18373044997E+04  0.00000000000E+00 0.  1.
         22    1    1    2    0    0 -0.10472527995E+04 -0.30666645897E+03 -0.26814846661E+03  0.11236931713E+04  0.00000000000E+00 0. -1.
<mgrwt>
<rscale>  0 0.35612982E+04</rscale>
<asrwt>0</asrwt>
<pdfrwt beam="1">  1        2 0.62686513E+00 0.35612982E+04</pdfrwt>
<pdfrwt beam="2">  1       -2 0.11971701E+00 0.35612982E+04</pdfrwt>
<totfact> 0.12936390E-01</totfact>
</mgrwt>
</event>
<event>
 6    1  0.2325157E-005  0.3427792E+04  0.7818608E-02  0.8131119E-01
         -2   -1    0    0    0  501 -0.00000000000E+00  0.00000000000E+00  0.12874795108E+04  0.12874795108E+04  0.00000000000E+00 0.  1.
          2   -1    0    0  501    0  0.00000000000E+00 -0.00000000000E+00 -0.22815421613E+04  0.22815421613E+04  0.00000000000E+00 0. -1.
         23    2    1    2    0    0  0.12286055757E+04  0.22189221371E+03  0.72312785733E+03  0.14459458243E+04  0.95590865207E+02 0.  0.
         13    1    3    3    0    0  0.12110655626E+04  0.20602696683E+03  0.70833583162E+03  0.14180502665E+04  0.00000000000E+00 0. -1.
        -13    1    3    3    0    0  0.17540013092E+02  0.15865246873E+02  0.14792025715E+02  0.27895557753E+02  0.00000000000E+00 0.  1.
         22    1    1    2    0    0 -0.12286055757E+04 -0.22189221371E+03 -0.17171905078E+04  0.21230758478E+04  0.00000000000E+00 0. -1.
<mgrwt>
<rscale>  0 0.34277916E+04</rscale>
<asrwt>0</asrwt>
<pdfrwt beam="1">  1        2 0.35100649E+00 0.34277916E+04</pdfrwt>
<pdfrwt beam="2">  1       -2 0.19807377E+00 0.34277916E+04</pdfrwt>
<totfact> 0.52568659E-01</totfact>
</mgrwt>
</event>
<event>
 6    1  0.2325157E-005  0.2559867E+04  0.7818608E-02  0.8381963E-01
         -2   -1    0    0    0  501 -0.00000000000E+00  0.00000000000E+00  0.84838248805E+03  0.84838248805E+03  0.00000000000E+00 0. -1.
          2   -1    0    0  501    0  0.00000000000E+00 -0.00000000000E+00 -0.19310043403E+04  0.19310043403E+04  0.00000000000E+00 0.  1.
         23    2    1    2    0    0 -0.30949330244E+02  0.12381090523E+04 -0.19818859331E+03  0.12575149297E+04  0.90516259908E+02 0.  0.
         13    1    3    3    0    0 -0.28261533213E+01  0.43725339951E+03 -0.11315662711E+03  0.45166685155E+03  0.00000000000E+00 0. -1.
        -13    1    3    3    0    0 -0.28123176922E+02  0.80085565281E+03 -0.85031966202E+02  0.80584807812E+03  0.00000000000E+00 0.  1.
         22    1    1    2    0    0  0.30949330244E+02 -0.12381090523E+04 -0.88443325894E+03  0.15218718987E+04  0.00000000000E+00 0.  1.
<mgrwt>
<rscale>  0 0.25598674E+04</rscale>
<asrwt>0</asrwt>
<pdfrwt beam="1">  1        2 0.29707759E+00 0.25598674E+04</pdfrwt>
<pdfrwt beam="2">  1       -2 0.13052039E+00 0.25598674E+04</pdfrwt>
<totfact> 0.27848573E+00</totfact>
</mgrwt>
</event>
<event>
 6    1  0.2325157E-005  0.1030741E+04  0.7818608E-02  0.9275457E-01
         -2   -1    0    0    0  501 -0.00000000000E+00  0.00000000000E+00  0.12690033585E+03  0.12690033585E+03  0.00000000000E+00 0. -1.
          2   -1    0    0  501    0  0.00000000000E+00 -0.00000000000E+00 -0.20930329960E+04  0.20930329960E+04  0.00000000000E+00 0.  1.
         23    2    1    2    0    0  0.46253917314E+03  0.15144186790E+03 -0.13288377172E+04  0.14180468247E+04  0.90388010037E+02 0.  0.
         11    1    3    3    0    0  0.11876922583E+03  0.81357014887E+02 -0.36771657122E+03  0.39489311165E+03  0.00000000000E+00 0.  1.
        -11    1    3    3    0    0  0.34376994731E+03  0.70084853016E+02 -0.96112114600E+03  0.10231537131E+04  0.00000000000E+00 0. -1.
         22    1    1    2    0    0 -0.46253917314E+03 -0.15144186790E+03 -0.63729494297E+03  0.80188650717E+03  0.00000000000E+00 0. -1.
<mgrwt>
<rscale>  0 0.10307407E+04</rscale>
<asrwt>0</asrwt>
<pdfrwt beam="1">  1        2 0.32200508E+00 0.10307407E+04</pdfrwt>
<pdfrwt beam="2">  1       -2 0.19523129E-01 0.10307407E+04</pdfrwt>
<totfact> 0.13235582E+02</totfact>
</mgrwt>
</event>
<event>
 6    1  0.2325157E-005  0.7290787E+03  0.7818608E-02  0.9668757E-01
          2   -1    0    0  501    0  0.00000000000E+00  0.00000000000E+00  0.22478593158E+04  0.22478593158E+04  0.00000000000E+00 0.  1.
         -2   -1    0    0    0  501 -0.00000000000E+00 -0.00000000000E+00 -0.59117987831E+02  0.59117987831E+02  0.00000000000E+00 0. -1.
         23    2    1    2    0    0  0.55425360767E+02  0.35389074027E+03  0.11654417551E+04  0.12227943659E+04  0.93064225427E+02 0.  0.
         11    1    3    3    0    0  0.75720238240E+02  0.30376278888E+03  0.10423372627E+04  0.10883346708E+04  0.00000000000E+00 0.  1.
        -11    1    3    3    0    0 -0.20294877473E+02  0.50127951384E+02  0.12310449237E+03  0.13445969509E+03  0.00000000000E+00 0. -1.
         22    1    1    2    0    0 -0.55425360767E+02 -0.35389074027E+03  0.10232995729E+04  0.10841829378E+04  0.00000000000E+00 0.  1.
<mgrwt>
<rscale>  0 0.72907865E+03</rscale>
<asrwt>0</asrwt>
<pdfrwt beam="1">  1        2 0.34582444E+00 0.72907865E+03</pdfrwt>
<pdfrwt beam="2">  1       -2 0.90950768E-02 0.72907865E+03</pdfrwt>
<totfact> 0.40092864E+02</totfact>
</mgrwt>
</event>
<event>
 6    1  0.2325157E-005  0.1745674E+04  0.7818608E-02  0.8735735E-01
         -2   -1    0    0    0  501 -0.00000000000E+00  0.00000000000E+00  0.68252230945E+03  0.68252230945E+03  0.00000000000E+00 0.  1.
          2   -1    0    0  501    0  0.00000000000E+00 -0.00000000000E+00 -0.11162188343E+04  0.11162188343E+04  0.00000000000E+00 0. -1.
         23    2    1    2    0    0 -0.24138043467E+03 -0.51495315877E+03  0.46102423436E+03  0.73856827721E+03  0.97460173740E+02 0.  0.
         11    1    3    3    0    0 -0.16983878717E+03 -0.26778646622E+03  0.28907515016E+03  0.42909118793E+03  0.00000000000E+00 0. -1.
        -11    1    3    3    0    0 -0.71541647497E+02 -0.24716669255E+03  0.17194908420E+03  0.30947708928E+03  0.00000000000E+00 0.  1.
         22    1    1    2    0    0  0.24138043467E+03  0.51495315877E+03 -0.89472075916E+03  0.10601728665E+04  0.00000000000E+00 0. -1.
<mgrwt>
<rscale>  0 0.17456738E+04</rscale>
<asrwt>0</asrwt>
<pdfrwt beam="1">  1        2 0.17172597E+00 0.17456738E+04</pdfrwt>
<pdfrwt beam="2">  1       -2 0.10500343E+00 0.17456738E+04</pdfrwt>
<totfact> 0.14840159E+01</totfact>
</mgrwt>
</event>
<event>
 6    1  0.2325157E-005  0.4015255E+04  0.7818608E-02  0.8001476E-01
         -2   -1    0    0    0  501 -0.00000000000E+00  0.00000000000E+00  0.17276046836E+04  0.17276046836E+04  0.00000000000E+00 0. -1.
          2   -1    0    0  501    0  0.00000000000E+00 -0.00000000000E+00 -0.23330388097E+04  0.23330388097E+04  0.00000000000E+00 0.  1.
         23    2    1    2    0    0  0.18190959417E+04  0.46962177929E+03 -0.10160158599E+04  0.21375647064E+04  0.85088106768E+02 0.  0.
         13    1    3    3    0    0  0.42406633661E+03  0.94502558163E+02 -0.19807978620E+03  0.47749198218E+03  0.00000000000E+00 0. -1.
        -13    1    3    3    0    0  0.13950296051E+04  0.37511922112E+03 -0.81793607371E+03  0.16600727242E+04  0.00000000000E+00 0.  1.
         22    1    1    2    0    0 -0.18190959417E+04 -0.46962177929E+03  0.41058173376E+03  0.19230787869E+04  0.00000000000E+00 0. -1.
<mgrwt>
<rscale>  0 0.40152553E+04</rscale>
<asrwt>0</asrwt>
<pdfrwt beam="1">  1        2 0.35892905E+00 0.40152553E+04</pdfrwt>
<pdfrwt beam="2">  1       -2 0.26578534E+00 0.40152553E+04</pdfrwt>
<totfact> 0.17594055E-01</totfact>
</mgrwt>
</event>
<event>
 6    1  0.2325157E-005  0.3707812E+04  0.7818608E-02  0.8066233E-01
         -2   -1    0    0    0  501 -0.00000000000E+00  0.00000000000E+00  0.96501247070E+03  0.96501247070E+03  0.00000000000E+00 0. -1.
          2   -1    0    0  501    0  0.00000000000E+00 -0.00000000000E+00 -0.35615790945E+04  0.35615790945E+04  0.00000000000E+00 0.  1.
         23    2    1    2    0    0  0.94824595712E+03  0.95239985303E+03 -0.28561122531E+04  0.31577965444E+04  0.89810571219E+02 0.  0.
         11    1    3    3    0    0  0.56001560802E+03  0.57388247075E+03 -0.18042875379E+04  0.19744396904E+04  0.00000000000E+00 0. -1.
        -11    1    3    3    0    0  0.38823034910E+03  0.37851738228E+03 -0.10518247152E+04  0.11833568541E+04  0.00000000000E+00 0.  1.
         22    1    1    2    0    0 -0.94824595712E+03 -0.95239985303E+03  0.25954562925E+03  0.13687950208E+04  0.00000000000E+00 0. -1.
<mgrwt>
<rscale>  0 0.37078124E+04</rscale>
<asrwt>0</asrwt>
<pdfrwt beam="1">  1        2 0.54793524E+00 0.37078124E+04</pdfrwt>
<pdfrwt beam="2">  1       -2 0.14846346E+00 0.37078124E+04</pdfrwt>
<totfact> 0.18261342E-01</totfact>
</mgrwt>
</event>
<event>
 6    1  0.2325157E-005  0.1864857E+04  0.7818608E-02  0.8672550E-01
          2   -1    0    0  501    0  0.00000000000E+00  0.00000000000E+00  0.76323881820E+03  0.76323881820E+03  0.00000000000E+00 0.  1.
         -2   -1    0    0    0  501 -0.00000000000E+00 -0.00000000000E+00 -0.11391231016E+04  0.11391231016E+04  0.00000000000E+00 0. -1.
         23    2    1    2    0    0  0.85432374291E+03 -0.35754026421E+03 -0.27819456702E+03  0.97110074324E+03  0.89108575182E+02 0.  0.
         13    1    3    3    0    0  0.62180428086E+03 -0.21650526590E+03 -0.20057532637E+03  0.68829176619E+03  0.00000000000E+00 0.  1.
        -13    1    3    3    0    0  0.23251946206E+03 -0.14103499831E+03 -0.77619240650E+02  0.28280897705E+03  0.00000000000E+00 0. -1.
         22    1    1    2    0    0 -0.85432374291E+03  0.35754026421E+03 -0.97689716349E+02  0.93126117653E+03  0.00000000000E+00 0.  1.
<mgrwt>
<rscale>  0 0.18648571E+04</rscale>
<asrwt>0</asrwt>
<pdfrwt beam="1">  1        2 0.11742136E+00 0.18648571E+04</pdfrwt>
<pdfrwt beam="2">  1       -2 0.17524971E+00 0.18648571E+04</pdfrwt>
<totfact> 0.67326540E+00</totfact>
</mgrwt>
</event>
<event>
 6    1  0.2325157E-005  0.2485269E+04  0.7818608E-02  0.8408252E-01
          2   -1    0    0  501    0  0.00000000000E+00  0.00000000000E+00  0.21612349998E+04  0.21612349998E+04  0.00000000000E+00 0.  1.
         -2   -1    0    0    0  501 -0.00000000000E+00 -0.00000000000E+00 -0.71447144227E+03  0.71447144227E+03  0.00000000000E+00 0. -1.
         23    2    1    2    0    0 -0.25911052591E+03  0.12021626473E+04  0.53170974132E+03  0.13428474200E+04  0.90502205172E+02 0.  0.
         13    1    3    3    0    0 -0.53759334968E+02  0.44985542097E+03  0.18350256688E+03  0.48880789471E+03  0.00000000000E+00 0. -1.
        -13    1    3    3    0    0 -0.20535119094E+03  0.75230722630E+03  0.34820717443E+03  0.85403952526E+03  0.00000000000E+00 0.  1.
         22    1    1    2    0    0  0.25911052591E+03 -0.12021626473E+04  0.91505381624E+03  0.15328590221E+04  0.00000000000E+00 0.  1.
<mgrwt>
<rscale>  0 0.24852692E+04</rscale>
<asrwt>0</asrwt>
<pdfrwt beam="1">  1        2 0.33249769E+00 0.24852692E+04</pdfrwt>
<pdfrwt beam="2">  1       -2 0.10991868E+00 0.24852692E+04</pdfrwt>
<totfact> 0.31908547E+00</totfact>
</mgrwt>
</event>
<event>
 6    1  0.2325157E-005  0.1117242E+04  0.7818608E-02  0.9188548E-01
         -2   -1    0    0    0  501 -0.00000000000E+00  0.00000000000E+00  0.48876938521E+03  0.48876938521E+03  0.00000000000E+00 0. -1.
          2   -1    0    0  501    0  0.00000000000E+00 -0.00000000000E+00 -0.63845516739E+03  0.63845516739E+03  0.00000000000E+00 0.  1.
         23    2    1    2    0    0  0.22908401342E+03 -0.24358472972E+01 -0.58511306795E+03  0.63520591500E+03  0.92972219583E+02 0.  0.
         13    1    3    3    0    0  0.13392172533E+03  0.44470717129E+02 -0.32859647168E+03  0.35761475696E+03  0.00000000000E+00 0. -1.
        -13    1    3    3    0    0  0.95162288089E+02 -0.46906564426E+02 -0.25651659627E+03  0.27759115804E+03  0.00000000000E+00 0.  1.
         22    1    1    2    0    0 -0.22908401342E+03  0.24358472972E+01  0.43542728576E+03  0.49201863760E+03  0.00000000000E+00 0. -1.
<mgrwt>
<rscale>  0 0.11172419E+04</rscale>
<asrwt>0</asrwt>
<pdfrwt beam="1">  1        2 0.98223872E-01 0.11172419E+04</pdfrwt>
<pdfrwt beam="2">  1       -2 0.75195290E-01 0.11172419E+04</pdfrwt>
<totfact> 0.72432191E+01</totfact>
</mgrwt>
</event>
<event>
 6    1  0.2325157E-005  0.2348952E+04  0.7818608E-02  0.8458866E-01
         -2   -1    0    0    0  501 -0.00000000000E+00  0.00000000000E+00  0.24859236408E+04  0.24859236408E+04  0.00000000000E+00 0. -1.
          2   -1    0    0  501    0  0.00000000000E+00 -0.00000000000E+00 -0.55488185948E+03  0.55488185948E+03  0.00000000000E+00 0.  1.
         23    2    1    2    0    0  0.90296625036E+03  0.27731893187E+03  0.18662643311E+04  0.20939950877E+04  0.98076676263E+02 0.  0.
         11    1    3    3    0    0  0.43600876776E+03  0.18423366740E+03  0.95132063130E+03  0.10625707663E+04  0.00000000000E+00 0. -1.
        -11    1    3    3    0    0  0.46695748260E+03  0.93085264464E+02  0.91494369982E+03  0.10314243214E+04  0.00000000000E+00 0.  1.
         22    1    1    2    0    0 -0.90296625036E+03 -0.27731893187E+03  0.64777450170E+02  0.94681041255E+03  0.00000000000E+00 0.  1.
<mgrwt>
<rscale>  0 0.23489520E+04</rscale>
<asrwt>0</asrwt>
<pdfrwt beam="1">  1        2 0.85366442E-01 0.23489520E+04</pdfrwt>
<pdfrwt beam="2">  1       -2 0.38244978E+00 0.23489520E+04</pdfrwt>
<totfact> 0.47537545E-01</totfact>
</mgrwt>
</event>
<event>
 6    1  0.2325157E-005  0.1056212E+04  0.7818608E-02  0.9248954E-01
         -2   -1    0    0    0  501 -0.00000000000E+00  0.00000000000E+00  0.14587238556E+03  0.14587238556E+03  0.00000000000E+00 0. -1.
          2   -1    0    0  501    0  0.00000000000E+00 -0.00000000000E+00 -0.19119181995E+04  0.19119181995E+04  0.00000000000E+00 0.  1.
         23    2    1    2    0    0  0.35315192337E+03 -0.21515583918E+03 -0.15170428936E+04  0.15750786933E+04  0.91899036636E+02 0.  0.
         13    1    3    3    0    0  0.25623228310E+03 -0.12146816365E+03 -0.90580858004E+03  0.94915682654E+03  0.00000000000E+00 0. -1.
        -13    1    3    3    0    0  0.96919640276E+02 -0.93687675524E+02 -0.61123431353E+03  0.62592186673E+03  0.00000000000E+00 0.  1.
         22    1    1    2    0    0 -0.35315192337E+03  0.21515583918E+03 -0.24900292032E+03  0.48271189176E+03  0.00000000000E+00 0. -1.
<mgrwt>
<rscale>  0 0.10562122E+04</rscale>
<asrwt>0</asrwt>
<pdfrwt beam="1">  1        2 0.29414126E+00 0.10562122E+04</pdfrwt>
<pdfrwt beam="2">  1       -2 0.22441906E-01 0.10562122E+04</pdfrwt>
<totfact> 0.12995029E+02</totfact>
</mgrwt>
</event>
<event>
 6    1  0.2325157E-005  0.3272730E+04  0.7818608E-02  0.8169869E-01
         -2   -1    0    0    0  501 -0.00000000000E+00  0.00000000000E+00  0.21337335135E+04  0.21337335135E+04  0.00000000000E+00 0.  1.
          2   -1    0    0  501    0  0.00000000000E+00 -0.00000000000E+00 -0.12549320088E+04  0.12549320088E+04  0.00000000000E+00 0. -1.
         23    2    1    2    0    0 -0.10448742353E+04  0.12162561396E+04  0.77117677708E+03  0.17816109973E+04  0.91558502246E+02 0.  0.
         13    1    3    3    0    0 -0.59000318950E+03  0.75564843295E+03  0.45857839038E+03  0.10627334840E+04  0.00000000000E+00 0. -1.
        -13    1    3    3    0    0 -0.45487104581E+03  0.46060770663E+03  0.31259838670E+03  0.71887751327E+03  0.00000000000E+00 0.  1.
         22    1    1    2    0    0  0.10448742353E+04 -0.12162561396E+04  0.10762472760E+03  0.16070545251E+04  0.00000000000E+00 0. -1.
<mgrwt>
<rscale>  0 0.32727300E+04</rscale>
<asrwt>0</asrwt>
<pdfrwt beam="1">  1        2 0.19306646E+00 0.32727300E+04</pdfrwt>
<pdfrwt beam="2">  1       -2 0.32826670E+00 0.32727300E+04</pdfrwt>
<totfact> 0.31287773E-01</totfact>
</mgrwt>
</event>
<event>
 6    1  0.2325157E-005  0.1769856E+04  0.7818608E-02  0.8722496E-01
         -1   -1    0    0    0  501 -0.00000000000E+00  0.00000000000E+00  0.11350816130E+04  0.11350816130E+04  0.00000000000E+00 0. -1.
          1   -1    0    0  501    0  0.00000000000E+00 -0.00000000000E+00 -0.68990422318E+03  0.68990422318E+03  0.00000000000E+00 0.  1.
         23    2    1    2    0    0 -0.23976757705E+03 -0.29935253075E+03 -0.59639345944E+03  0.71504427795E+03  0.92210261395E+02 0.  0.
         13    1    3    3    0    0 -0.12988676018E+03 -0.20845782368E+03 -0.43602674798E+03  0.50044436222E+03  0.00000000000E+00 0. -1.
        -13    1    3    3    0    0 -0.10988081688E+03 -0.90894707067E+02 -0.16036671145E+03  0.21459991573E+03  0.00000000000E+00 0.  1.
         22    1    1    2    0    0  0.23976757705E+03  0.29935253075E+03  0.10415708493E+04  0.11099415582E+04  0.00000000000E+00 0. -1.
<mgrwt>
<rscale>  0 0.17698560E+04</rscale>
<asrwt>0</asrwt>
<pdfrwt beam="1">  1        1 0.10613911E+00 0.17698560E+04</pdfrwt>
<pdfrwt beam="2">  1       -1 0.17462794E+00 0.17698560E+04</pdfrwt>
<totfact> 0.59966705E+00</totfact>
</mgrwt>
</event>
<event>
 6    1  0.2325157E-005  0.2011261E+04  0.7818608E-02  0.8601374E-01
          2   -1    0    0  501    0  0.00000000000E+00  0.00000000000E+00  0.91214214381E+03  0.91214214381E+03  0.00000000000E+00 0.  1.
         -2   -1    0    0    0  501 -0.00000000000E+00 -0.00000000000E+00 -0.11087003527E+04  0.11087003527E+04  0.00000000000E+00 0. -1.
         23    2    1    2    0    0 -0.63652705306E+03  0.69534247446E+03 -0.44445676838E+03  0.10461007143E+04  0.90094614345E+02 0.  0.
         13    1    3    3    0    0 -0.31894703578E+03  0.33237690246E+03 -0.26546209861E+03  0.53166882806E+03  0.00000000000E+00 0.  1.
        -13    1    3    3    0    0 -0.31758001727E+03  0.36296557200E+03 -0.17899466976E+03  0.51443188629E+03  0.00000000000E+00 0. -1.
         22    1    1    2    0    0  0.63652705306E+03 -0.69534247446E+03  0.24789855950E+03  0.97474178215E+03  0.00000000000E+00 0.  1.
<mgrwt>
<rscale>  0 0.20112606E+04</rscale>
<asrwt>0</asrwt>
<pdfrwt beam="1">  1        2 0.14032956E+00 0.20112606E+04</pdfrwt>
<pdfrwt beam="2">  1       -2 0.17056929E+00 0.20112606E+04</pdfrwt>
<totfact> 0.56376878E+00</totfact>
</mgrwt>
</event>
<event>
 6    1  0.2325157E-005  0.6018942E+03  0.7818608E-02  0.9901484E-01
          2   -1    0    0  501    0  0.00000000000E+00  0.00000000000E+00  0.14740175430E+03  0.14740175430E+03  0.00000000000E+00 0.  1.
         -2   -1    0    0    0  501 -0.00000000000E+00 -0.00000000000E+00 -0.61443741117E+03  0.61443741117E+03  0.00000000000E+00 0. -1.
         23    2    1    2    0    0  0.30828530013E+02  0.93660437321E+02 -0.59087790931E+03  0.60353698838E+03  0.73467794603E+02 0.  0.
         13    1    3    3    0    0 -0.16452755854E+02  0.65867835133E+02 -0.30846894624E+03  0.31585179384E+03  0.00000000000E+00 0. -1.
        -13    1    3    3    0    0  0.47281285867E+02  0.27792602189E+02 -0.28240896307E+03  0.28768519454E+03  0.00000000000E+00 0.  1.
         22    1    1    2    0    0 -0.30828530013E+02 -0.93660437321E+02  0.12384225245E+03  0.15830217710E+03  0.00000000000E+00 0.  1.
<mgrwt>
<rscale>  0 0.60189418E+03</rscale>
<asrwt>0</asrwt>
<pdfrwt beam="1">  1        2 0.22677193E-01 0.60189418E+03</pdfrwt>
<pdfrwt beam="2">  1       -2 0.94528831E-01 0.60189418E+03</pdfrwt>
<totfact> 0.23404050E+02</totfact>
</mgrwt>
</event>
<event>
 6    1  0.2325157E-005  0.6319541E+03  0.7818608E-02  0.9841243E-01
          2   -1    0    0  501    0  0.00000000000E+00  0.00000000000E+00  0.32912213871E+03  0.32912213871E+03  0.00000000000E+00 0.  1.
         -2   -1    0    0    0  501 -0.00000000000E+00 -0.00000000000E+00 -0.30335696033E+03  0.30335696033E+03  0.00000000000E+00 0. -1.
         23    2    1    2    0    0  0.15100196559E+03  0.61193890952E+02 -0.24643473049E+03  0.31524247396E+03  0.11000661387E+03 0.  0.
         13    1    3    3    0    0  0.50269463454E+02  0.81284595276E+01 -0.17159842923E+03  0.17899472541E+03  0.00000000000E+00 0. -1.
        -13    1    3    3    0    0  0.10073250214E+03  0.53065431425E+02 -0.74836301262E+02  0.13624774855E+03  0.00000000000E+00 0.  1.
         22    1    1    2    0    0 -0.15100196559E+03 -0.61193890952E+02  0.27219990887E+03  0.31723662508E+03  0.00000000000E+00 0.  1.
<mgrwt>
<rscale>  0 0.63195409E+03</rscale>
<asrwt>0</asrwt>
<pdfrwt beam="1">  1        2 0.50634175E-01 0.63195409E+03</pdfrwt>
<pdfrwt beam="2">  1       -2 0.46670301E-01 0.63195409E+03</pdfrwt>
<totfact> 0.43472743E+02</totfact>
</mgrwt>
</event>
<event>
 6    1  0.2325157E-005  0.1716192E+04  0.7818608E-02  0.8752183E-01
          2   -1    0    0  501    0  0.00000000000E+00  0.00000000000E+00  0.74221813824E+03  0.74221813824E+03  0.00000000000E+00 0. -1.
         -2   -1    0    0    0  501 -0.00000000000E+00 -0.00000000000E+00 -0.99206510455E+03  0.99206510455E+03  0.00000000000E+00 0.  1.
         23    2    1    2    0    0 -0.18332077361E+03 -0.40136328898E+03  0.61577748995E+03  0.76268420253E+03  0.88353154309E+02 0.  0.
         11    1    3    3    0    0 -0.33255377877E+02 -0.14721095248E+03  0.25774531362E+03  0.29867981415E+03  0.00000000000E+00 0.  1.
        -11    1    3    3    0    0 -0.15006539573E+03 -0.25415233650E+03  0.35803217633E+03  0.46400438838E+03  0.00000000000E+00 0. -1.
         22    1    1    2    0    0  0.18332077361E+03  0.40136328898E+03 -0.86562445626E+03  0.97159904027E+03  0.00000000000E+00 0.  1.
<mgrwt>
<rscale>  0 0.17161920E+04</rscale>
<asrwt>0</asrwt>
<pdfrwt beam="1">  1        2 0.11418741E+00 0.17161920E+04</pdfrwt>
<pdfrwt beam="2">  1       -2 0.15262540E+00 0.17161920E+04</pdfrwt>
<totfact> 0.10329566E+01</totfact>
</mgrwt>
</event>
<event>
 6    1  0.2325157E-005  0.3464234E+04  0.7818608E-02  0.8122319E-01
          2   -1    0    0  501    0  0.00000000000E+00  0.00000000000E+00  0.32751514572E+04  0.32751514572E+04  0.00000000000E+00 0.  1.
         -2   -1    0    0    0  501 -0.00000000000E+00 -0.00000000000E+00 -0.91605818268E+03  0.91605818268E+03  0.00000000000E+00 0. -1.
         23    2    1    2    0    0  0.10092697063E+04 -0.10500157159E+04  0.23121288334E+04  0.27340329168E+04  0.88531938337E+02 0.  0.
         13    1    3    3    0    0  0.19069506022E+03 -0.16571731691E+03  0.35594909895E+03  0.43649352362E+03  0.00000000000E+00 0.  1.
        -13    1    3    3    0    0  0.81857464605E+03 -0.88429839899E+03  0.19561797344E+04  0.22975393931E+04  0.00000000000E+00 0. -1.
         22    1    1    2    0    0 -0.10092697063E+04  0.10500157159E+04  0.46964441117E+02  0.14571767231E+04  0.00000000000E+00 0. -1.
<mgrwt>
<rscale>  0 0.34642340E+04</rscale>
<asrwt>0</asrwt>
<pdfrwt beam="1">  1        2 0.50386945E+00 0.34642340E+04</pdfrwt>
<pdfrwt beam="2">  1       -2 0.14093203E+00 0.34642340E+04</pdfrwt>
<totfact> 0.33623163E-01</totfact>
</mgrwt>
</event>
<event>
 6    1  0.2325157E-005  0.1905469E+04  0.7818608E-02  0.8652139E-01
          2   -1    0    0  501    0  0.00000000000E+00  0.00000000000E+00  0.87923569092E+03  0.87923569092E+03  0.00000000000E+00 0.  1.
         -2   -1    0    0    0  501 -0.00000000000E+00 -0.00000000000E+00 -0.10323773181E+04  0.10323773181E+04  0.00000000000E+00 0. -1.
         23    2    1    2    0    0 -0.45942299428E+03 -0.78614312682E+03  0.19699458997E+03  0.93606912275E+03  0.91258043832E+02 0.  0.
         13    1    3    3    0    0 -0.24046097544E+03 -0.48033196402E+03  0.86687854279E+02  0.54410941955E+03  0.00000000000E+00 0. -1.
        -13    1    3    3    0    0 -0.21896201885E+03 -0.30581116280E+03  0.11030673569E+03  0.39195970320E+03  0.00000000000E+00 0.  1.
         22    1    1    2    0    0  0.45942299428E+03  0.78614312682E+03 -0.35013621716E+03  0.97554388630E+03  0.00000000000E+00 0. -1.
<mgrwt>
<rscale>  0 0.19054690E+04</rscale>
<asrwt>0</asrwt>
<pdfrwt beam="1">  1        2 0.13526703E+00 0.19054690E+04</pdfrwt>
<pdfrwt beam="2">  1       -2 0.15882728E+00 0.19054690E+04</pdfrwt>
<totfact> 0.72856281E+00</totfact>
</mgrwt>
</event>
<event>
 6    1  0.2325157E-005  0.3236919E+04  0.7818608E-02  0.8179135E-01
          2   -1    0    0  501    0  0.00000000000E+00  0.00000000000E+00  0.20378502160E+04  0.20378502160E+04  0.00000000000E+00 0.  1.
         -2   -1    0    0    0  501 -0.00000000000E+00 -0.00000000000E+00 -0.12853793237E+04  0.12853793237E+04  0.00000000000E+00 0. -1.
         23    2    1    2    0    0 -0.10967884142E+04 -0.70795503460E+03  0.13564811068E+04  0.18848368619E+04  0.91781515000E+02 0.  0.
         13    1    3    3    0    0 -0.41481023007E+03 -0.25895516229E+03  0.44580633283E+03  0.66171639653E+03  0.00000000000E+00 0.  1.
        -13    1    3    3    0    0 -0.68197818409E+03 -0.44899987231E+03  0.91067477393E+03  0.12231204654E+04  0.00000000000E+00 0. -1.
         22    1    1    2    0    0  0.10967884142E+04  0.70795503460E+03 -0.60401021449E+03  0.14383926778E+04  0.00000000000E+00 0. -1.
<mgrwt>
<rscale>  0 0.32369186E+04</rscale>
<asrwt>0</asrwt>
<pdfrwt beam="1">  1        2 0.31351542E+00 0.32369186E+04</pdfrwt>
<pdfrwt beam="2">  1       -2 0.19775067E+00 0.32369186E+04</pdfrwt>
<totfact> 0.73535516E-01</totfact>
</mgrwt>
</event>
<event>
 6    1  0.2325157E-005  0.3398957E+04  0.7818608E-02  0.8138162E-01
         -2   -1    0    0    0  501 -0.00000000000E+00  0.00000000000E+00  0.17342710091E+04  0.17342710091E+04  0.00000000000E+00 0. -1.
          2   -1    0    0  501    0  0.00000000000E+00 -0.00000000000E+00 -0.16653844661E+04  0.16653844661E+04  0.00000000000E+00 0.  1.
         23    2    1    2    0    0 -0.11080486244E+04 -0.80976171897E+03 -0.96607139018E+03  0.16807535818E+04  0.90293279897E+02 0.  0.
         13    1    3    3    0    0 -0.23675426324E+03 -0.20751271365E+03 -0.25337132130E+03  0.40411772288E+03  0.00000000000E+00 0. -1.
        -13    1    3    3    0    0 -0.87129436112E+03 -0.60224900532E+03 -0.71270006888E+03  0.12766358589E+04  0.00000000000E+00 0.  1.
         22    1    1    2    0    0  0.11080486244E+04  0.80976171897E+03  0.10349579332E+04  0.17189018933E+04  0.00000000000E+00 0. -1.
<mgrwt>
<rscale>  0 0.33989575E+04</rscale>
<asrwt>0</asrwt>
<pdfrwt beam="1">  1        2 0.25621299E+00 0.33989575E+04</pdfrwt>
<pdfrwt beam="2">  1       -2 0.26681093E+00 0.33989575E+04</pdfrwt>
<totfact> 0.43057914E-01</totfact>
</mgrwt>
</event>
<event>
 6    1  0.2325157E-005  0.1902732E+04  0.7818608E-02  0.8653498E-01
          2   -1    0    0  501    0  0.00000000000E+00  0.00000000000E+00  0.68193519196E+03  0.68193519196E+03  0.00000000000E+00 0.  1.
         -2   -1    0    0    0  501 -0.00000000000E+00 -0.00000000000E+00 -0.13272479566E+04  0.13272479566E+04  0.00000000000E+00 0. -1.
         23    2    1    2    0    0 -0.32786995043E+03  0.15939037296E+02  0.61669453459E+03  0.70518346273E+03  0.96014633289E+02 0.  0.
         11    1    3    3    0    0 -0.28876108241E+03  0.13991054739E+01  0.46080843639E+03  0.54381001761E+03  0.00000000000E+00 0.  1.
        -11    1    3    3    0    0 -0.39108868022E+02  0.14539931822E+02  0.15588609820E+03  0.16137344511E+03  0.00000000000E+00 0. -1.
         22    1    1    2    0    0  0.32786995043E+03 -0.15939037296E+02 -0.12620072992E+04  0.13039996858E+04  0.00000000000E+00 0. -1.
<mgrwt>
<rscale>  0 0.19027318E+04</rscale>
<asrwt>0</asrwt>
<pdfrwt beam="1">  1        2 0.10491311E+00 0.19027318E+04</pdfrwt>
<pdfrwt beam="2">  1       -2 0.20419199E+00 0.19027318E+04</pdfrwt>
<totfact> 0.49478491E+00</totfact>
</mgrwt>
</event>
<event>
 6    1  0.2325157E-005  0.2919099E+04  0.7818608E-02  0.8267218E-01
         -2   -1    0    0    0  501 -0.00000000000E+00  0.00000000000E+00  0.26851561981E+04  0.26851561981E+04  0.00000000000E+00 0. -1.
          2   -1    0    0  501    0  0.00000000000E+00 -0.00000000000E+00 -0.79335601975E+03  0.79335601975E+03  0.00000000000E+00 0.  1.
         23    2    1    2    0    0 -0.97231141732E+03  0.98818530718E+03  0.41076603580E+03  0.14498767590E+04  0.10730417750E+03 0.  0.
         13    1    3    3    0    0 -0.62332647845E+03  0.69398629489E+03  0.30404599223E+03  0.98112019733E+03  0.00000000000E+00 0. -1.
        -13    1    3    3    0    0 -0.34898493887E+03  0.29419901229E+03  0.10672004357E+03  0.46875656165E+03  0.00000000000E+00 0.  1.
         22    1    1    2    0    0  0.97231141732E+03 -0.98818530718E+03  0.14810341426E+04  0.20286354589E+04  0.00000000000E+00 0. -1.
<mgrwt>
<rscale>  0 0.29190991E+04</rscale>
<asrwt>0</asrwt>
<pdfrwt beam="1">  1        2 0.12205477E+00 0.29190991E+04</pdfrwt>
<pdfrwt beam="2">  1       -2 0.41310095E+00 0.29190991E+04</pdfrwt>
<totfact> 0.18260780E-01</totfact>
</mgrwt>
</event>
<event>
 6    1  0.2325157E-005  0.3405051E+04  0.7818608E-02  0.8136668E-01
          2   -1    0    0  501    0  0.00000000000E+00  0.00000000000E+00  0.18565838041E+04  0.18565838041E+04  0.00000000000E+00 0.  1.
         -2   -1    0    0    0  501 -0.00000000000E+00 -0.00000000000E+00 -0.15612509293E+04  0.15612509293E+04  0.00000000000E+00 0. -1.
         23    2    1    2    0    0  0.46632540834E+03 -0.31646649775E+03 -0.14636252676E+04  0.15707981401E+04  0.87163308859E+02 0.  0.
         11    1    3    3    0    0  0.23365750241E+03 -0.15930710429E+03 -0.61434824482E+03  0.67631231530E+03  0.00000000000E+00 0. -1.
        -11    1    3    3    0    0  0.23266790593E+03 -0.15715939346E+03 -0.84927702273E+03  0.89448582479E+03  0.00000000000E+00 0.  1.
         22    1    1    2    0    0 -0.46632540834E+03  0.31646649775E+03  0.17589581423E+04  0.18470365933E+04  0.00000000000E+00 0.  1.
<mgrwt>
<rscale>  0 0.34050511E+04</rscale>
<asrwt>0</asrwt>
<pdfrwt beam="1">  1        2 0.28562828E+00 0.34050511E+04</pdfrwt>
<pdfrwt beam="2">  1       -2 0.24019245E+00 0.34050511E+04</pdfrwt>
<totfact> 0.49105567E-01</totfact>
</mgrwt>
</event>
<event>
 6    1  0.2325157E-005  0.2445935E+04  0.7818608E-02  0.8422504E-01
          3   -1    0    0  501    0  0.00000000000E+00  0.00000000000E+00  0.24928271219E+04  0.24928271219E+04  0.00000000000E+00 0.  1.
         -3   -1    0    0    0  501 -0.00000000000E+00 -0.00000000000E+00 -0.59998139179E+03  0.59998139179E+03  0.00000000000E+00 0. -1.
         23    2    1    2    0    0  0.31605418607E+03  0.33701680077E+03  0.23772136578E+04  0.24234185960E+04  0.91336431857E+02 0.  0.
         13    1    3    3    0    0  0.29598696679E+03  0.28350128816E+03  0.19673236580E+04  0.20095630471E+04  0.00000000000E+00 0.  1.
        -13    1    3    3    0    0  0.20067219286E+02  0.53515512616E+02  0.40988999981E+03  0.41385554886E+03  0.00000000000E+00 0. -1.
         22    1    1    2    0    0 -0.31605418607E+03 -0.33701680077E+03 -0.48436792772E+03  0.66938991772E+03  0.00000000000E+00 0. -1.
<mgrwt>
<rscale>  0 0.24459353E+04</rscale>
<asrwt>0</asrwt>
<pdfrwt beam="1">  1        3 0.38351186E+00 0.24459353E+04</pdfrwt>
<pdfrwt beam="2">  1       -3 0.92304831E-01 0.24459353E+04</pdfrwt>
<totfact> 0.33471959E-02</totfact>
</mgrwt>
</event>
<event>
 6    1  0.2325157E-005  0.3244984E+04  0.7818608E-02  0.8177037E-01
         -1   -1    0    0    0  501 -0.00000000000E+00  0.00000000000E+00  0.21172438135E+04  0.21172438135E+04  0.00000000000E+00 0. -1.
          1   -1    0    0  501    0  0.00000000000E+00 -0.00000000000E+00 -0.12433526007E+04  0.12433526007E+04  0.00000000000E+00 0.  1.
         23    2    1    2    0    0 -0.58162153112E+03 -0.25951003366E+03 -0.11066733865E+04  0.12801480982E+04  0.91782928351E+02 0.  0.
         11    1    3    3    0    0 -0.31470337293E+03 -0.16437286274E+03 -0.69409561852E+03  0.77963156593E+03  0.00000000000E+00 0.  1.
        -11    1    3    3    0    0 -0.26691815819E+03 -0.95137170922E+02 -0.41257776801E+03  0.50051653231E+03  0.00000000000E+00 0. -1.
         22    1    1    2    0    0  0.58162153112E+03  0.25951003366E+03  0.19805645993E+04  0.20804483159E+04  0.00000000000E+00 0. -1.
<mgrwt>
<rscale>  0 0.32449842E+04</rscale>
<asrwt>0</asrwt>
<pdfrwt beam="1">  1        1 0.19128502E+00 0.32449842E+04</pdfrwt>
<pdfrwt beam="2">  1       -1 0.32572982E+00 0.32449842E+04</pdfrwt>
<totfact> 0.18588921E-01</totfact>
</mgrwt>
</event>
<event>
 6    1  0.2325157E-005  0.7733248E+03  0.7818608E-02  0.9599452E-01
         -2   -1    0    0    0  501 -0.00000000000E+00  0.00000000000E+00  0.22778481579E+03  0.22778481579E+03  0.00000000000E+00 0. -1.
          2   -1    0    0  501    0  0.00000000000E+00 -0.00000000000E+00 -0.65635549778E+03  0.65635549778E+03  0.00000000000E+00 0.  1.
         23    2    1    2    0    0  0.24722788660E+03 -0.23096528087E+03 -0.41878466197E+03  0.54566970176E+03  0.88928293822E+02 0.  0.
         11    1    3    3    0    0  0.27387743885E+02 -0.74244262912E+02 -0.10987227823E+03  0.13540390177E+03  0.00000000000E+00 0.  1.
        -11    1    3    3    0    0  0.21984014271E+03 -0.15672101795E+03 -0.30891238373E+03  0.41026579999E+03  0.00000000000E+00 0. -1.
         22    1    1    2    0    0 -0.24722788660E+03  0.23096528087E+03 -0.97860200256E+01  0.33847061182E+03  0.00000000000E+00 0. -1.
<mgrwt>
<rscale>  0 0.77332481E+03</rscale>
<asrwt>0</asrwt>
<pdfrwt beam="1">  1        2 0.10097777E+00 0.77332481E+03</pdfrwt>
<pdfrwt beam="2">  1       -2 0.35043818E-01 0.77332481E+03</pdfrwt>
<totfact> 0.34147825E+02</totfact>
</mgrwt>
</event>
<event>
 6    1  0.2325157E-005  0.2380506E+04  0.7818608E-02  0.8446838E-01
         -2   -1    0    0    0  501 -0.00000000000E+00  0.00000000000E+00  0.22128935130E+04  0.22128935130E+04  0.00000000000E+00 0.  1.
          2   -1    0    0  501    0  0.00000000000E+00 -0.00000000000E+00 -0.64020341445E+03  0.64020341445E+03  0.00000000000E+00 0. -1.
         23    2    1    2    0    0 -0.16611929517E+03  0.48785827814E+03 -0.49618655365E+03  0.72099657291E+03  0.89630588232E+02 0.  0.
         13    1    3    3    0    0 -0.10377945008E+03  0.19317906380E+03 -0.17391783509E+03  0.27988522346E+03  0.00000000000E+00 0. -1.
        -13    1    3    3    0    0 -0.62339845090E+02  0.29467921434E+03 -0.32226871856E+03  0.44111134945E+03  0.00000000000E+00 0.  1.
         22    1    1    2    0    0  0.16611929517E+03 -0.48785827814E+03  0.20688766522E+04  0.21321003546E+04  0.00000000000E+00 0.  1.
<mgrwt>
<rscale>  0 0.23805058E+04</rscale>
<asrwt>0</asrwt>
<pdfrwt beam="1">  1        2 0.98492834E-01 0.23805058E+04</pdfrwt>
<pdfrwt beam="2">  1       -2 0.34044515E+00 0.23805058E+04</pdfrwt>
<totfact> 0.73775782E-01</totfact>
</mgrwt>
</event>
<event>
 6    1  0.2325157E-005  0.2225762E+04  0.7818608E-02  0.8507781E-01
         -1   -1    0    0    0  501 -0.00000000000E+00  0.00000000000E+00  0.21946835169E+04  0.21946835169E+04  0.00000000000E+00 0. -1.
          1   -1    0    0  501    0  0.00000000000E+00 -0.00000000000E+00 -0.56431995566E+03  0.56431995566E+03  0.00000000000E+00 0.  1.
         23    2    1    2    0    0 -0.48743455920E+03  0.81512824331E+03  0.10197502743E+03  0.95955966604E+03  0.91265239364E+02 0.  0.
         13    1    3    3    0    0 -0.10687619790E+03  0.18752742232E+03 -0.14841999539E+02  0.21635466427E+03  0.00000000000E+00 0.  1.
        -13    1    3    3    0    0 -0.38055836130E+03  0.62760082099E+03  0.11681702697E+03  0.74320500177E+03  0.00000000000E+00 0. -1.
         22    1    1    2    0    0  0.48743455920E+03 -0.81512824331E+03  0.15283885339E+04  0.17994438066E+04  0.00000000000E+00 0. -1.
<mgrwt>
<rscale>  0 0.22257616E+04</rscale>
<asrwt>0</asrwt>
<pdfrwt beam="1">  1        1 0.86818455E-01 0.22257616E+04</pdfrwt>
<pdfrwt beam="2">  1       -1 0.33764362E+00 0.22257616E+04</pdfrwt>
<totfact> 0.63847686E-01</totfact>
</mgrwt>
</event>
<event>
 6    1  0.2325157E-005  0.1173151E+04  0.7818608E-02  0.9136688E-01
          2   -1    0    0  501    0  0.00000000000E+00  0.00000000000E+00  0.11642805617E+04  0.11642805617E+04  0.00000000000E+00 0.  1.
         -2   -1    0    0    0  501 -0.00000000000E+00 -0.00000000000E+00 -0.29552211511E+03  0.29552211511E+03  0.00000000000E+00 0. -1.
         23    2    1    2    0    0 -0.55537758948E+03 -0.81276832600E+02  0.62146091283E+03  0.84644612418E+03  0.12331741382E+03 0.  0.
         11    1    3    3    0    0 -0.35631608621E+03  0.16530118623E+01  0.42627566783E+03  0.55558512464E+03  0.00000000000E+00 0.  1.
        -11    1    3    3    0    0 -0.19906150327E+03 -0.82929844462E+02  0.19518524500E+03  0.29086099954E+03  0.00000000000E+00 0. -1.
         22    1    1    2    0    0  0.55537758948E+03  0.81276832600E+02  0.24729753371E+03  0.61335655258E+03  0.00000000000E+00 0. -1.
<mgrwt>
<rscale>  0 0.11731507E+04</rscale>
<asrwt>0</asrwt>
<pdfrwt beam="1">  1        2 0.17912008E+00 0.11731507E+04</pdfrwt>
<pdfrwt beam="2">  1       -2 0.45464941E-01 0.11731507E+04</pdfrwt>
<totfact> 0.90205358E+01</totfact>
</mgrwt>
</event>
<event>
 6    1  0.2325157E-005  0.4482627E+04  0.7818608E-02  0.7913685E-01
          2   -1    0    0  501    0  0.00000000000E+00  0.00000000000E+00  0.32369929795E+04  0.32369929795E+04  0.00000000000E+00 0.  1.
         -2   -1    0    0    0  501 -0.00000000000E+00 -0.00000000000E+00 -0.15518990151E+04  0.15518990151E+04  0.00000000000E+00 0. -1.
         23    2    1    2    0    0  0.48862731511E+03  0.21021346852E+04  0.20070977879E+03  0.21695173941E+04  0.93778570849E+02 0.  0.
         11    1    3    3    0    0  0.44664893737E+03  0.19782424838E+04  0.17000407328E+03  0.20351510958E+04  0.00000000000E+00 0. -1.
        -11    1    3    3    0    0  0.41978377743E+02  0.12389220136E+03  0.30705705516E+02  0.13436629826E+03  0.00000000000E+00 0.  1.
         22    1    1    2    0    0 -0.48862731511E+03 -0.21021346852E+04  0.14843841856E+04  0.26193746006E+04  0.00000000000E+00 0.  1.
<mgrwt>
<rscale>  0 0.44826270E+04</rscale>
<asrwt>0</asrwt>
<pdfrwt beam="1">  1        2 0.49799892E+00 0.44826270E+04</pdfrwt>
<pdfrwt beam="2">  1       -2 0.23875370E+00 0.44826270E+04</pdfrwt>
<totfact> 0.70088431E-02</totfact>
</mgrwt>
</event>
<event>
 6    1  0.2325157E-005  0.3322352E+04  0.7818608E-02  0.8157231E-01
         -2   -1    0    0    0  501 -0.00000000000E+00  0.00000000000E+00  0.22257731484E+04  0.22257731484E+04  0.00000000000E+00 0. -1.
          2   -1    0    0  501    0  0.00000000000E+00 -0.00000000000E+00 -0.12397963986E+04  0.12397963986E+04  0.00000000000E+00 0.  1.
         23    2    1    2    0    0  0.81279889350E+03  0.14351872315E+04  0.68838862643E+03  0.17895733890E+04  0.91047145938E+02 0.  0.
         13    1    3    3    0    0  0.19008909218E+03  0.40877268268E+03  0.16787827495E+03  0.48105309922E+03  0.00000000000E+00 0.  1.
        -13    1    3    3    0    0  0.62270980132E+03  0.10264145488E+04  0.52051035149E+03  0.13085202898E+04  0.00000000000E+00 0. -1.
         22    1    1    2    0    0 -0.81279889350E+03 -0.14351872315E+04  0.29758812337E+03  0.16759961581E+04  0.00000000000E+00 0.  1.
<mgrwt>
<rscale>  0 0.33223519E+04</rscale>
<asrwt>0</asrwt>
<pdfrwt beam="1">  1        2 0.19073791E+00 0.33223519E+04</pdfrwt>
<pdfrwt beam="2">  1       -2 0.34242664E+00 0.33223519E+04</pdfrwt>
<totfact> 0.25950821E-01</totfact>
</mgrwt>
</event>
<event>
 6    1  0.2325157E-005  0.3873514E+04  0.7818608E-02  0.8030561E-01
          2   -1    0    0  501    0  0.00000000000E+00  0.00000000000E+00  0.14828352518E+04  0.14828352518E+04  0.00000000000E+00 0.  1.
         -2   -1    0    0    0  501 -0.00000000000E+00 -0.00000000000E+00 -0.25296316729E+04  0.25296316729E+04  0.00000000000E+00 0. -1.
         23    2    1    2    0    0  0.73553205777E+03  0.15262240115E+04  0.44624593430E+03  0.17542502354E+04  0.88833064593E+02 0.  0.
         11    1    3    3    0    0  0.58643875334E+03  0.12300644022E+04  0.32256796650E+03  0.14003638592E+04  0.00000000000E+00 0. -1.
        -11    1    3    3    0    0  0.14909330442E+03  0.29615960924E+03  0.12367796780E+03  0.35388637624E+03  0.00000000000E+00 0.  1.
         22    1    1    2    0    0 -0.73553205777E+03 -0.15262240115E+04 -0.14930423554E+04  0.22582166894E+04  0.00000000000E+00 0. -1.
<mgrwt>
<rscale>  0 0.38735137E+04</rscale>
<asrwt>0</asrwt>
<pdfrwt beam="1">  1        2 0.22812850E+00 0.38735137E+04</pdfrwt>
<pdfrwt beam="2">  1       -2 0.38917410E+00 0.38735137E+04</pdfrwt>
<totfact> 0.90290024E-02</totfact>
</mgrwt>
</event>
<event>
 6    1  0.2325157E-005  0.2204089E+04  0.7818608E-02  0.8516728E-01
         -2   -1    0    0    0  501 -0.00000000000E+00  0.00000000000E+00  0.39817126239E+03  0.39817126239E+03  0.00000000000E+00 0. -1.
          2   -1    0    0  501    0  0.00000000000E+00 -0.00000000000E+00 -0.30502008009E+04  0.30502008009E+04  0.00000000000E+00 0.  1.
         23    2    1    2    0    0  0.99995948822E+03  0.22157995526E+03 -0.70141413428E+03  0.12452113543E+04  0.97738806795E+02 0.  0.
         13    1    3    3    0    0  0.51868870847E+03  0.80989239543E+02 -0.31528376493E+03  0.61237332213E+03  0.00000000000E+00 0. -1.
        -13    1    3    3    0    0  0.48127077974E+03  0.14059071571E+03 -0.38613036935E+03  0.63283803213E+03  0.00000000000E+00 0.  1.
         22    1    1    2    0    0 -0.99995948822E+03 -0.22157995526E+03 -0.19506154042E+04  0.22031607090E+04  0.00000000000E+00 0.  1.
<mgrwt>
<rscale>  0 0.22040892E+04</rscale>
<asrwt>0</asrwt>
<pdfrwt beam="1">  1        2 0.46926167E+00 0.22040892E+04</pdfrwt>
<pdfrwt beam="2">  1       -2 0.61257117E-01 0.22040892E+04</pdfrwt>
<totfact> 0.36711107E+00</totfact>
</mgrwt>
</event>
<event>
 6    1  0.2325157E-005  0.2203644E+04  0.7818608E-02  0.8516913E-01
         -2   -1    0    0    0  501 -0.00000000000E+00  0.00000000000E+00  0.73760803346E+03  0.73760803346E+03  0.00000000000E+00 0. -1.
          2   -1    0    0  501    0  0.00000000000E+00 -0.00000000000E+00 -0.16458770563E+04  0.16458770563E+04  0.00000000000E+00 0.  1.
         23    2    1    2    0    0 -0.73320909511E+03  0.44236192397E+02 -0.13404424115E+04  0.15312373231E+04  0.91375397727E+02 0.  0.
         13    1    3    3    0    0 -0.39494959044E+03  0.65088766124E+02 -0.68557327781E+03  0.79387180685E+03  0.00000000000E+00 0. -1.
        -13    1    3    3    0    0 -0.33825950468E+03 -0.20852573728E+02 -0.65486913366E+03  0.73736551625E+03  0.00000000000E+00 0.  1.
         22    1    1    2    0    0  0.73320909511E+03 -0.44236192397E+02  0.43217338866E+03  0.85224776664E+03  0.00000000000E+00 0. -1.
<mgrwt>
<rscale>  0 0.22036444E+04</rscale>
<asrwt>0</asrwt>
<pdfrwt beam="1">  1        2 0.25321185E+00 0.22036444E+04</pdfrwt>
<pdfrwt beam="2">  1       -2 0.11347816E+00 0.22036444E+04</pdfrwt>
<totfact> 0.58519478E+00</totfact>
</mgrwt>
</event>
<event>
 6    1  0.2325157E-005  0.1578314E+04  0.7818608E-02  0.8833983E-01
          1   -1    0    0  501    0  0.00000000000E+00  0.00000000000E+00  0.68963901639E+03  0.68963901639E+03  0.00000000000E+00 0.  1.
         -1   -1    0    0    0  501 -0.00000000000E+00 -0.00000000000E+00 -0.90303539907E+03  0.90303539907E+03  0.00000000000E+00 0. -1.
         23    2    1    2    0    0  0.60845417046E+03 -0.35506980036E+03  0.23960014557E+03  0.75512030062E+03  0.12848111916E+03 0.  0.
         13    1    3    3    0    0  0.11647069850E+03 -0.62127793354E+02 -0.58552355781E+01  0.13213466653E+03  0.00000000000E+00 0. -1.
        -13    1    3    3    0    0  0.49198347196E+03 -0.29294200700E+03  0.24545538115E+03  0.62298563409E+03  0.00000000000E+00 0.  1.
         22    1    1    2    0    0 -0.60845417046E+03  0.35506980036E+03 -0.45299652825E+03  0.83755411484E+03  0.00000000000E+00 0.  1.
<mgrwt>
<rscale>  0 0.15783136E+04</rscale>
<asrwt>0</asrwt>
<pdfrwt beam="1">  1        1 0.10609831E+00 0.15783136E+04</pdfrwt>
<pdfrwt beam="2">  1       -1 0.13892852E+00 0.15783136E+04</pdfrwt>
<totfact> 0.11458217E+01</totfact>
</mgrwt>
</event>
<event>
 6    1  0.2325157E-005  0.5106771E+04  0.7818608E-02  0.7812245E-01
         -2   -1    0    0    0  501 -0.00000000000E+00  0.00000000000E+00  0.15704702597E+04  0.15704702597E+04  0.00000000000E+00 0. -1.
          2   -1    0    0  501    0  0.00000000000E+00 -0.00000000000E+00 -0.41514806637E+04  0.41514806637E+04  0.00000000000E+00 0.  1.
         23    2    1    2    0    0 -0.20891569455E+04 -0.13982161925E+04 -0.79471511354E+03  0.26380514230E+04  0.90321286832E+02 0.  0.
         13    1    3    3    0    0 -0.34319971829E+03 -0.19455288746E+03 -0.14046643719E+03  0.41876925941E+03  0.00000000000E+00 0. -1.
        -13    1    3    3    0    0 -0.17459572272E+04 -0.12036633051E+04 -0.65424867635E+03  0.22192821636E+04  0.00000000000E+00 0.  1.
         22    1    1    2    0    0  0.20891569455E+04  0.13982161925E+04 -0.17862952904E+04  0.30838995004E+04  0.00000000000E+00 0.  1.
<mgrwt>
<rscale>  0 0.51067708E+04</rscale>
<asrwt>0</asrwt>
<pdfrwt beam="1">  1        2 0.63868933E+00 0.51067708E+04</pdfrwt>
<pdfrwt beam="2">  1       -2 0.24161081E+00 0.51067708E+04</pdfrwt>
<totfact> 0.13298835E-02</totfact>
</mgrwt>
</event>
<event>
 6    1  0.2325157E-005  0.1055811E+04  0.7818608E-02  0.9249365E-01
         -2   -1    0    0    0  501 -0.00000000000E+00  0.00000000000E+00  0.31398381534E+03  0.31398381534E+03  0.00000000000E+00 0. -1.
          2   -1    0    0  501    0  0.00000000000E+00 -0.00000000000E+00 -0.88757450788E+03  0.88757450788E+03  0.00000000000E+00 0.  1.
         23    2    1    2    0    0 -0.37529620036E+02  0.41334513002E+03 -0.65281525944E+03  0.77901932988E+03  0.91873197785E+02 0.  0.
         11    1    3    3    0    0 -0.66040012463E+01  0.83297126660E+02 -0.20888478267E+03  0.22497750237E+03  0.00000000000E+00 0. -1.
        -11    1    3    3    0    0 -0.30925618789E+02  0.33004800336E+03 -0.44393047678E+03  0.55404182751E+03  0.00000000000E+00 0.  1.
         22    1    1    2    0    0  0.37529620036E+02 -0.41334513002E+03  0.79224566904E+02  0.42253899334E+03  0.00000000000E+00 0. -1.
<mgrwt>
<rscale>  0 0.10558106E+04</rscale>
<asrwt>0</asrwt>
<pdfrwt beam="1">  1        2 0.13654992E+00 0.10558106E+04</pdfrwt>
<pdfrwt beam="2">  1       -2 0.48305203E-01 0.10558106E+04</pdfrwt>
<totfact> 0.12078823E+02</totfact>
</mgrwt>
</event>
<event>
 6    1  0.2325157E-005  0.2240029E+04  0.7818608E-02  0.8501950E-01
          2   -1    0    0  501    0  0.00000000000E+00  0.00000000000E+00  0.15250703523E+04  0.15250703523E+04  0.00000000000E+00 0.  1.
         -2   -1    0    0    0  501 -0.00000000000E+00 -0.00000000000E+00 -0.82254037630E+03  0.82254037630E+03  0.00000000000E+00 0. -1.
         23    2    1    2    0    0 -0.90746729588E+03 -0.52096932070E+03 -0.61338015221E+02  0.10520798589E+04  0.90574562016E+02 0.  0.
         13    1    3    3    0    0 -0.44356303284E+03 -0.30648538267E+03 -0.36814189617E+02  0.54040423616E+03  0.00000000000E+00 0.  1.
        -13    1    3    3    0    0 -0.46390426304E+03 -0.21448393803E+03 -0.24523825603E+02  0.51167562279E+03  0.00000000000E+00 0. -1.
         22    1    1    2    0    0  0.90746729588E+03  0.52096932070E+03  0.76386799120E+03  0.12955308696E+04  0.00000000000E+00 0.  1.
<mgrwt>
<rscale>  0 0.22400285E+04</rscale>
<asrwt>0</asrwt>
<pdfrwt beam="1">  1        2 0.23462621E+00 0.22400285E+04</pdfrwt>
<pdfrwt beam="2">  1       -2 0.12654467E+00 0.22400285E+04</pdfrwt>
<totfact> 0.52048998E+00</totfact>
</mgrwt>
</event>
<event>
 6    1  0.2325157E-005  0.1415000E+04  0.7818608E-02  0.8943032E-01
          1   -1    0    0  501    0  0.00000000000E+00  0.00000000000E+00  0.72264251625E+03  0.72264251625E+03  0.00000000000E+00 0.  1.
         -1   -1    0    0    0  501 -0.00000000000E+00 -0.00000000000E+00 -0.69267442057E+03  0.69267442057E+03  0.00000000000E+00 0. -1.
         23    2    1    2    0    0 -0.51514765768E+03  0.39812706407E+03 -0.25442549706E+03  0.70485090388E+03  0.90554926949E+02 0.  0.
         11    1    3    3    0    0 -0.45331762047E+03  0.32487376709E+03 -0.24287111434E+03  0.60829779528E+03  0.00000000000E+00 0. -1.
        -11    1    3    3    0    0 -0.61830037217E+02  0.73253296978E+02 -0.11554382721E+02  0.96553108601E+02  0.00000000000E+00 0.  1.
         22    1    1    2    0    0  0.51514765768E+03 -0.39812706407E+03  0.28439359274E+03  0.71046603293E+03  0.00000000000E+00 0. -1.
<mgrwt>
<rscale>  0 0.14149996E+04</rscale>
<asrwt>0</asrwt>
<pdfrwt beam="1">  1        1 0.11117577E+00 0.14149996E+04</pdfrwt>
<pdfrwt beam="2">  1       -1 0.10656530E+00 0.14149996E+04</pdfrwt>
<totfact> 0.20791121E+01</totfact>
</mgrwt>
</event>
<event>
 6    1  0.2325157E-005  0.3431466E+04  0.7818608E-02  0.8130227E-01
         -2   -1    0    0    0  501 -0.00000000000E+00  0.00000000000E+00  0.76674307036E+03  0.76674307036E+03  0.00000000000E+00 0. -1.
          2   -1    0    0  501    0  0.00000000000E+00 -0.00000000000E+00 -0.38392770902E+04  0.38392770902E+04  0.00000000000E+00 0.  1.
         23    2    1    2    0    0 -0.96752760751E+03  0.47085263067E+03 -0.33290492138E+04  0.34998502298E+04  0.92580194261E+02 0.  0.
         11    1    3    3    0    0 -0.24492685591E+03  0.13648701940E+03 -0.75025885221E+03  0.80094083211E+03  0.00000000000E+00 0.  1.
        -11    1    3    3    0    0 -0.72260075160E+03  0.33436561127E+03 -0.25787903615E+04  0.26989093977E+04  0.00000000000E+00 0. -1.
         22    1    1    2    0    0  0.96752760751E+03 -0.47085263067E+03  0.25651519388E+03  0.11061699308E+04  0.00000000000E+00 0. -1.
<mgrwt>
<rscale>  0 0.34314656E+04</rscale>
<asrwt>0</asrwt>
<pdfrwt beam="1">  1        2 0.59065801E+00 0.34314656E+04</pdfrwt>
<pdfrwt beam="2">  1       -2 0.11796047E+00 0.34314656E+04</pdfrwt>
<totfact> 0.20935148E-01</totfact>
</mgrwt>
</event>
<event>
 6    1  0.2626811E-005  0.4157614E+04  0.7818608E-02  0.7973484E-01
          1   -1    0    0  501    0  0.00000000000E+00  0.00000000000E+00  0.16587599970E+04  0.16587599970E+04  0.00000000000E+00 0.  1.
         -1   -1    0    0    0  501 -0.00000000000E+00 -0.00000000000E+00 -0.26052217261E+04  0.26052217261E+04  0.00000000000E+00 0. -1.
         23    2    1    2    0    0  0.62056288477E+03 -0.10882233413E+04  0.12271042282E+04  0.17552534985E+04  0.76169039906E+02 0.  0.
         11    1    3    3    0    0  0.15480181588E+03 -0.32526957010E+03  0.32230664579E+03  0.48336887503E+03  0.00000000000E+00 0. -1.
        -11    1    3    3    0    0  0.46576106889E+03 -0.76295377122E+03  0.90479758241E+03  0.12718846235E+04  0.00000000000E+00 0.  1.
         22    1    1    2    0    0 -0.62056288477E+03  0.10882233413E+04 -0.21735659572E+04  0.25087282246E+04  0.00000000000E+00 0. -1.
<mgrwt>
<rscale>  0 0.41576135E+04</rscale>
<asrwt>0</asrwt>
<pdfrwt beam="1">  1        1 0.25519385E+00 0.41576135E+04</pdfrwt>
<pdfrwt beam="2">  1       -1 0.40080334E+00 0.41576135E+04</pdfrwt>
<totfact> 0.27741388E-02</totfact>
</mgrwt>
</event>
<event>
 6    1  0.2325157E-005  0.1101431E+04  0.7818608E-02  0.9203798E-01
          2   -1    0    0  501    0  0.00000000000E+00  0.00000000000E+00  0.22655611928E+04  0.22655611928E+04  0.00000000000E+00 0.  1.
         -2   -1    0    0    0  501 -0.00000000000E+00 -0.00000000000E+00 -0.13386856671E+03  0.13386856671E+03  0.00000000000E+00 0. -1.
         23    2    1    2    0    0 -0.17663181403E+03 -0.96456867468E+02  0.21810558759E+04  0.21922113833E+04  0.91012582242E+02 0.  0.
         11    1    3    3    0    0 -0.66650014840E+02 -0.18683622394E+02  0.11942492760E+04  0.11962535833E+04  0.00000000000E+00 0. -1.
        -11    1    3    3    0    0 -0.10998179919E+03 -0.77773245073E+02  0.98680659995E+03  0.99595780006E+03  0.00000000000E+00 0.  1.
         22    1    1    2    0    0  0.17663181403E+03  0.96456867468E+02 -0.49363249831E+02  0.20721837622E+03  0.00000000000E+00 0. -1.
<mgrwt>
<rscale>  0 0.11014308E+04</rscale>
<asrwt>0</asrwt>
<pdfrwt beam="1">  1        2 0.34854785E+00 0.11014308E+04</pdfrwt>
<pdfrwt beam="2">  1       -2 0.20595166E-01 0.11014308E+04</pdfrwt>
<totfact> 0.96060300E+01</totfact>
</mgrwt>
</event>
<event>
 6    1  0.2325157E-005  0.2695313E+04  0.7818608E-02  0.8336527E-01
          2   -1    0    0  501    0  0.00000000000E+00  0.00000000000E+00  0.17065094659E+04  0.17065094659E+04  0.00000000000E+00 0.  1.
         -2   -1    0    0    0  501 -0.00000000000E+00 -0.00000000000E+00 -0.10642647030E+04  0.10642647030E+04  0.00000000000E+00 0. -1.
         23    2    1    2    0    0  0.64792005341E+03 -0.62563925992E+03  0.13498846821E+04  0.16253575922E+04  0.91508296459E+02 0.  0.
         13    1    3    3    0    0  0.56693937060E+03 -0.55519094901E+03  0.11313507386E+04  0.13818870191E+04  0.00000000000E+00 0. -1.
        -13    1    3    3    0    0  0.80980682815E+02 -0.70448310915E+02  0.21853394351E+03  0.24347057310E+03  0.00000000000E+00 0.  1.
         22    1    1    2    0    0 -0.64792005341E+03  0.62563925992E+03 -0.70763991916E+03  0.11454165768E+04  0.00000000000E+00 0. -1.
<mgrwt>
<rscale>  0 0.26953128E+04</rscale>
<asrwt>0</asrwt>
<pdfrwt beam="1">  1        2 0.26253992E+00 0.26953128E+04</pdfrwt>
<pdfrwt beam="2">  1       -2 0.16373303E+00 0.26953128E+04</pdfrwt>
<totfact> 0.20187887E+00</totfact>
</mgrwt>
</event>
<event>
 6    1  0.2325157E-005  0.1474165E+04  0.7818608E-02  0.8901817E-01
          2   -1    0    0  501    0  0.00000000000E+00  0.00000000000E+00  0.12632974414E+04  0.12632974414E+04  0.00000000000E+00 0.  1.
         -2   -1    0    0    0  501 -0.00000000000E+00 -0.00000000000E+00 -0.43005737811E+03  0.43005737811E+03  0.00000000000E+00 0. -1.
         23    2    1    2    0    0  0.12729831424E+03 -0.70135200622E+03  0.62108495445E+03  0.94964164388E+03  0.89292965531E+02 0.  0.
         13    1    3    3    0    0  0.28457971254E+02 -0.19675865690E+03  0.12305679092E+03  0.23380932185E+03  0.00000000000E+00 0.  1.
        -13    1    3    3    0    0  0.98840342982E+02 -0.50459334933E+03  0.49802816354E+03  0.71583232203E+03  0.00000000000E+00 0. -1.
         22    1    1    2    0    0 -0.12729831424E+03  0.70135200622E+03  0.21215510887E+03  0.74371317567E+03  0.00000000000E+00 0. -1.
<mgrwt>
<rscale>  0 0.14741647E+04</rscale>
<asrwt>0</asrwt>
<pdfrwt beam="1">  1        2 0.19435345E+00 0.14741647E+04</pdfrwt>
<pdfrwt beam="2">  1       -2 0.66162674E-01 0.14741647E+04</pdfrwt>
<totfact> 0.35335767E+01</totfact>
</mgrwt>
</event>
<event>
 6    1  0.2325157E-005  0.5142835E+04  0.7818608E-02  0.7806843E-01
          2   -1    0    0  501    0  0.00000000000E+00  0.00000000000E+00  0.42037862224E+04  0.42037862224E+04  0.00000000000E+00 0.  1.
         -2   -1    0    0    0  501 -0.00000000000E+00 -0.00000000000E+00 -0.15729126928E+04  0.15729126928E+04  0.00000000000E+00 0. -1.
         23    2    1    2    0    0  0.15814587298E+04  0.46088539899E+02  0.35916226420E+04  0.39257060129E+04  0.90986976383E+02 0.  0.
         13    1    3    3    0    0  0.55098533210E+03  0.40916518140E+01  0.13555643074E+04  0.14632690010E+04  0.00000000000E+00 0. -1.
        -13    1    3    3    0    0  0.10304733977E+04  0.41996888085E+02  0.22360583346E+04  0.24624370119E+04  0.00000000000E+00 0.  1.
         22    1    1    2    0    0 -0.15814587298E+04 -0.46088539899E+02 -0.96074911232E+03  0.18509929023E+04  0.00000000000E+00 0. -1.
<mgrwt>
<rscale>  0 0.51428353E+04</rscale>
<asrwt>0</asrwt>
<pdfrwt beam="1">  1        2 0.64673634E+00 0.51428353E+04</pdfrwt>
<pdfrwt beam="2">  1       -2 0.24198657E+00 0.51428353E+04</pdfrwt>
<totfact> 0.11883800E-02</totfact>
</mgrwt>
</event>
<event>
 6    1  0.2325157E-005  0.6193802E+04  0.7818608E-02  0.7666826E-01
          2   -1    0    0  501    0  0.00000000000E+00  0.00000000000E+00  0.19864450181E+04  0.19864450181E+04  0.00000000000E+00 0.  1.
         -2   -1    0    0    0  501 -0.00000000000E+00 -0.00000000000E+00 -0.48281199648E+04  0.48281199648E+04  0.00000000000E+00 0. -1.
         23    2    1    2    0    0 -0.67564884974E+03 -0.28995672135E+04 -0.48587009503E+03  0.30180128770E+04  0.91326793374E+02 0.  0.
         11    1    3    3    0    0 -0.12395712100E+03 -0.62042607075E+03 -0.71403581035E+02  0.63670428654E+03  0.00000000000E+00 0. -1.
        -11    1    3    3    0    0 -0.55169172874E+03 -0.22791411427E+04 -0.41446651400E+03  0.23813085905E+04  0.00000000000E+00 0.  1.
         22    1    1    2    0    0  0.67564884974E+03  0.28995672135E+04 -0.23558048517E+04  0.37965521059E+04  0.00000000000E+00 0. -1.
<mgrwt>
<rscale>  0 0.61938017E+04</rscale>
<asrwt>0</asrwt>
<pdfrwt beam="1">  1        2 0.30560693E+00 0.61938017E+04</pdfrwt>
<pdfrwt beam="2">  1       -2 0.74278768E+00 0.61938017E+04</pdfrwt>
<totfact> 0.70610528E-04</totfact>
</mgrwt>
</event>
<event>
 6    1  0.2325157E-005  0.9310112E+03  0.7818608E-02  0.9387625E-01
          2   -1    0    0  501    0  0.00000000000E+00  0.00000000000E+00  0.17210478955E+04  0.17210478955E+04  0.00000000000E+00 0.  1.
         -2   -1    0    0    0  501 -0.00000000000E+00 -0.00000000000E+00 -0.12590902478E+03  0.12590902478E+03  0.00000000000E+00 0. -1.
         23    2    1    2    0    0 -0.34582810712E+03  0.24089601982E+03  0.43866183630E+03  0.61607629927E+03  0.97456799956E+02 0.  0.
         13    1    3    3    0    0 -0.19353653460E+03  0.18457306297E+03  0.30601363595E+03  0.40640860127E+03  0.00000000000E+00 0. -1.
        -13    1    3    3    0    0 -0.15229157252E+03  0.56322956853E+02  0.13264820035E+03  0.20966769800E+03  0.00000000000E+00 0.  1.
         22    1    1    2    0    0  0.34582810712E+03 -0.24089601982E+03  0.11564770344E+04  0.12308806210E+04  0.00000000000E+00 0.  1.
<mgrwt>
<rscale>  0 0.93101120E+03</rscale>
<asrwt>0</asrwt>
<pdfrwt beam="1">  1        2 0.26477658E+00 0.93101120E+03</pdfrwt>
<pdfrwt beam="2">  1       -2 0.19370620E-01 0.93101120E+03</pdfrwt>
<totfact> 0.21650620E+02</totfact>
</mgrwt>
</event>
<event>
 6    1  0.2523100E-005  0.2425118E+04  0.7818608E-02  0.8430159E-01
         -2   -1    0    0    0  501 -0.00000000000E+00  0.00000000000E+00  0.80221418728E+03  0.80221418728E+03  0.00000000000E+00 0. -1.
          2   -1    0    0  501    0  0.00000000000E+00 -0.00000000000E+00 -0.18328020050E+04  0.18328020050E+04  0.00000000000E+00 0.  1.
         23    2    1    2    0    0 -0.25753652599E+03  0.25423302920E+03  0.74017231979E+03  0.82765597364E+03  0.78739141258E+02 0.  0.
         13    1    3    3    0    0 -0.11604361561E+03  0.16942645696E+03  0.41582448696E+03  0.46376874517E+03  0.00000000000E+00 0. -1.
        -13    1    3    3    0    0 -0.14149291038E+03  0.84806572244E+02  0.32434783283E+03  0.36388722847E+03  0.00000000000E+00 0.  1.
         22    1    1    2    0    0  0.25753652599E+03 -0.25423302920E+03 -0.17707601376E+04  0.18073602187E+04  0.00000000000E+00 0.  1.
<mgrwt>
<rscale>  0 0.24251184E+04</rscale>
<asrwt>0</asrwt>
<pdfrwt beam="1">  1        2 0.28196953E+00 0.24251184E+04</pdfrwt>
<pdfrwt beam="2">  1       -2 0.12341757E+00 0.24251184E+04</pdfrwt>
<totfact> 0.36762257E+00</totfact>
</mgrwt>
</event>
<event>
 6    1  0.2325157E-005  0.1114032E+04  0.7818608E-02  0.9191623E-01
         -2   -1    0    0    0  501 -0.00000000000E+00  0.00000000000E+00  0.11258268815E+04  0.11258268815E+04  0.00000000000E+00 0.  1.
          2   -1    0    0  501    0  0.00000000000E+00 -0.00000000000E+00 -0.27559001081E+03  0.27559001081E+03  0.00000000000E+00 0. -1.
         23    2    1    2    0    0  0.27932117083E+03  0.32546006048E+03 -0.12181020741E+02  0.43824027980E+03  0.89227787899E+02 0.  0.
         13    1    3    3    0    0  0.74774863870E+02  0.15038044573E+03  0.88386628966E+01  0.16817752729E+03  0.00000000000E+00 0. -1.
        -13    1    3    3    0    0  0.20454630696E+03  0.17507961475E+03 -0.21019683638E+02  0.27006275251E+03  0.00000000000E+00 0.  1.
         22    1    1    2    0    0 -0.27932117083E+03 -0.32546006048E+03  0.86241789147E+03  0.96317661255E+03  0.00000000000E+00 0.  1.
<mgrwt>
<rscale>  0 0.11140317E+04</rscale>
<asrwt>0</asrwt>
<pdfrwt beam="1">  1        2 0.42398464E-01 0.11140317E+04</pdfrwt>
<pdfrwt beam="2">  1       -2 0.17320413E+00 0.11140317E+04</pdfrwt>
<totfact> 0.24196132E+01</totfact>
</mgrwt>
</event>
<event>
 6    1  0.2325157E-005  0.2321546E+04  0.7818608E-02  0.8469474E-01
          1   -1    0    0  501    0  0.00000000000E+00  0.00000000000E+00  0.12558243877E+04  0.12558243877E+04  0.00000000000E+00 0. -1.
         -1   -1    0    0    0  501 -0.00000000000E+00 -0.00000000000E+00 -0.10729159725E+04  0.10729159725E+04  0.00000000000E+00 0.  1.
         23    2    1    2    0    0 -0.29310602233E+03  0.90472453450E+03 -0.57294311272E+03  0.11139361966E+04  0.90290730275E+02 0.  0.
         13    1    3    3    0    0 -0.54815457627E+02  0.15829277520E+03 -0.62515090643E+02  0.17880009405E+03  0.00000000000E+00 0.  1.
        -13    1    3    3    0    0 -0.23829056471E+03  0.74643175931E+03 -0.51042802208E+03  0.93513610253E+03  0.00000000000E+00 0. -1.
         22    1    1    2    0    0  0.29310602233E+03 -0.90472453450E+03  0.75585152797E+03  0.12148041636E+04  0.00000000000E+00 0. -1.
<mgrwt>
<rscale>  0 0.23215461E+04</rscale>
<asrwt>0</asrwt>
<pdfrwt beam="1">  1        1 0.19320375E+00 0.23215461E+04</pdfrwt>
<pdfrwt beam="2">  1       -1 0.16506400E+00 0.23215461E+04</pdfrwt>
<totfact> 0.23505770E+00</totfact>
</mgrwt>
</event>
<event>
 6    1  0.2325157E-005  0.3977553E+04  0.7818608E-02  0.8009090E-01
         -2   -1    0    0    0  501 -0.00000000000E+00  0.00000000000E+00  0.95935544967E+03  0.95935544967E+03  0.00000000000E+00 0. -1.
          2   -1    0    0  501    0  0.00000000000E+00 -0.00000000000E+00 -0.41228016615E+04  0.41228016615E+04  0.00000000000E+00 0.  1.
         23    2    1    2    0    0  0.49256473188E+03  0.15493478978E+04 -0.12134644194E+03  0.16328861834E+04  0.92159673811E+02 0.  0.
         13    1    3    3    0    0  0.39118418747E+03  0.11220855335E+04 -0.64114927541E+02  0.11900469474E+04  0.00000000000E+00 0. -1.
        -13    1    3    3    0    0  0.10138054441E+03  0.42726236422E+03 -0.57231514395E+02  0.44283923596E+03  0.00000000000E+00 0.  1.
         22    1    1    2    0    0 -0.49256473188E+03 -0.15493478978E+04 -0.30420997699E+04  0.34492709278E+04  0.00000000000E+00 0.  1.
<mgrwt>
<rscale>  0 0.39775531E+04</rscale>
<asrwt>0</asrwt>
<pdfrwt beam="1">  1        2 0.63427719E+00 0.39775531E+04</pdfrwt>
<pdfrwt beam="2">  1       -2 0.14759314E+00 0.39775531E+04</pdfrwt>
<totfact> 0.66633373E-02</totfact>
</mgrwt>
</event>
<event>
 6    1  0.2325157E-005  0.1685124E+04  0.7818608E-02  0.8769895E-01
          2   -1    0    0  501    0  0.00000000000E+00  0.00000000000E+00  0.87183253383E+03  0.87183253383E+03  0.00000000000E+00 0.  1.
         -2   -1    0    0    0  501 -0.00000000000E+00 -0.00000000000E+00 -0.81427395804E+03  0.81427395804E+03  0.00000000000E+00 0. -1.
         23    2    1    2    0    0  0.47395790492E+03  0.22208584918E+03 -0.62837767811E+03  0.82328161714E+03  0.94741198640E+02 0.  0.
         11    1    3    3    0    0  0.13531612463E+03  0.93091528263E+02 -0.14456638357E+03  0.21880567972E+03  0.00000000000E+00 0. -1.
        -11    1    3    3    0    0  0.33864178029E+03  0.12899432092E+03 -0.48381129454E+03  0.60447593742E+03  0.00000000000E+00 0.  1.
         22    1    1    2    0    0 -0.47395790492E+03 -0.22208584918E+03  0.68593625391E+03  0.86282487474E+03  0.00000000000E+00 0.  1.
<mgrwt>
<rscale>  0 0.16851238E+04</rscale>
<asrwt>0</asrwt>
<pdfrwt beam="1">  1        2 0.13412808E+00 0.16851238E+04</pdfrwt>
<pdfrwt beam="2">  1       -2 0.12527292E+00 0.16851238E+04</pdfrwt>
<totfact> 0.13923070E+01</totfact>
</mgrwt>
</event>
<event>
 6    1  0.2325157E-005  0.2079357E+04  0.7818608E-02  0.8570392E-01
         -2   -1    0    0    0  501 -0.00000000000E+00  0.00000000000E+00  0.59453033862E+03  0.59453033862E+03  0.00000000000E+00 0. -1.
          2   -1    0    0  501    0  0.00000000000E+00 -0.00000000000E+00 -0.18181259270E+04  0.18181259270E+04  0.00000000000E+00 0.  1.
         23    2    1    2    0    0 -0.54434161021E+03  0.17549282005E+03  0.39174570318E+03  0.69905391772E+03  0.90034245835E+02 0.  0.
         13    1    3    3    0    0 -0.24882545937E+03  0.90992957091E+02  0.23446247430E+03  0.35378874958E+03  0.00000000000E+00 0.  1.
        -13    1    3    3    0    0 -0.29551615083E+03  0.84499862956E+02  0.15728322888E+03  0.34526516814E+03  0.00000000000E+00 0. -1.
         22    1    1    2    0    0  0.54434161021E+03 -0.17549282005E+03 -0.16153412915E+04  0.17136023479E+04  0.00000000000E+00 0.  1.
<mgrwt>
<rscale>  0 0.20793567E+04</rscale>
<asrwt>0</asrwt>
<pdfrwt beam="1">  1        2 0.27971168E+00 0.20793567E+04</pdfrwt>
<pdfrwt beam="2">  1       -2 0.91466207E-01 0.20793567E+04</pdfrwt>
<totfact> 0.79227908E+00</totfact>
</mgrwt>
</event>
<event>
 6    1  0.2325157E-005  0.1066749E+04  0.7818608E-02  0.9238221E-01
         -2   -1    0    0    0  501 -0.00000000000E+00  0.00000000000E+00  0.21709989121E+03  0.21709989121E+03  0.00000000000E+00 0. -1.
          2   -1    0    0  501    0  0.00000000000E+00 -0.00000000000E+00 -0.13104026767E+04  0.13104026767E+04  0.00000000000E+00 0.  1.
         23    2    1    2    0    0  0.47206101185E+03 -0.15007712316E+03 -0.28729546497E+03  0.58145154259E+03  0.10090822753E+03 0.  0.
         11    1    3    3    0    0  0.17020517491E+03 -0.42325701636E+02 -0.49131885751E+02  0.18214062914E+03  0.00000000000E+00 0. -1.
        -11    1    3    3    0    0  0.30185583694E+03 -0.10775142152E+03 -0.23816357922E+03  0.39931091345E+03  0.00000000000E+00 0.  1.
         22    1    1    2    0    0 -0.47206101185E+03  0.15007712316E+03 -0.80600732053E+03  0.94605102534E+03  0.00000000000E+00 0.  1.
<mgrwt>
<rscale>  0 0.10667489E+04</rscale>
<asrwt>0</asrwt>
<pdfrwt beam="1">  1        2 0.20160041E+00 0.10667489E+04</pdfrwt>
<pdfrwt beam="2">  1       -2 0.33399984E-01 0.10667489E+04</pdfrwt>
<totfact> 0.13568888E+02</totfact>
</mgrwt>
</event>
<event>
 6    1  0.2325157E-005  0.2034950E+04  0.7818608E-02  0.8590452E-01
          2   -1    0    0  501    0  0.00000000000E+00  0.00000000000E+00  0.16976227411E+04  0.16976227411E+04  0.00000000000E+00 0.  1.
         -2   -1    0    0    0  501 -0.00000000000E+00 -0.00000000000E+00 -0.60982671884E+03  0.60982671884E+03  0.00000000000E+00 0. -1.
         23    2    1    2    0    0 -0.21338761401E+02  0.18960044454E+03  0.16758720374E+04  0.16891962181E+04  0.91831944775E+02 0.  0.
         11    1    3    3    0    0 -0.48694506325E+02  0.16663607893E+03  0.12806180350E+04  0.12923317258E+04  0.00000000000E+00 0. -1.
        -11    1    3    3    0    0  0.27355744923E+02  0.22964365612E+02  0.39525400240E+03  0.39686449234E+03  0.00000000000E+00 0.  1.
         22    1    1    2    0    0  0.21338761401E+02 -0.18960044454E+03 -0.58807601522E+03  0.61825324179E+03  0.00000000000E+00 0. -1.
<mgrwt>
<rscale>  0 0.20349503E+04</rscale>
<asrwt>0</asrwt>
<pdfrwt beam="1">  1        2 0.26117273E+00 0.20349503E+04</pdfrwt>
<pdfrwt beam="2">  1       -2 0.93819496E-01 0.20349503E+04</pdfrwt>
<totfact> 0.87454207E+00</totfact>
</mgrwt>
</event>
<event>
 6    1  0.2325157E-005  0.4424360E+04  0.7818608E-02  0.7924015E-01
         -2   -1    0    0    0  501 -0.00000000000E+00  0.00000000000E+00  0.17527004781E+04  0.17527004781E+04  0.00000000000E+00 0. -1.
          2   -1    0    0  501    0  0.00000000000E+00 -0.00000000000E+00 -0.27921138648E+04  0.27921138648E+04  0.00000000000E+00 0.  1.
         23    2    1    2    0    0 -0.12828536549E+03 -0.11801257415E+04 -0.24362962725E+04  0.27116652226E+04  0.91841446284E+02 0.  0.
         13    1    3    3    0    0 -0.14020246112E+03 -0.10524575063E+04 -0.22004837916E+04  0.24432462933E+04  0.00000000000E+00 0.  1.
        -13    1    3    3    0    0  0.11917095628E+02 -0.12766823523E+03 -0.23581248086E+03  0.26841892926E+03  0.00000000000E+00 0. -1.
         22    1    1    2    0    0  0.12828536549E+03  0.11801257415E+04  0.13968828858E+04  0.18331491204E+04  0.00000000000E+00 0. -1.
<mgrwt>
<rscale>  0 0.44243595E+04</rscale>
<asrwt>0</asrwt>
<pdfrwt beam="1">  1        2 0.42955597E+00 0.44243595E+04</pdfrwt>
<pdfrwt beam="2">  1       -2 0.26964623E+00 0.44243595E+04</pdfrwt>
<totfact> 0.86796696E-02</totfact>
</mgrwt>
</event>
<event>
 6    1  0.3962747E-005  0.3703139E+04  0.7818608E-02  0.8067266E-01
         -2   -1    0    0    0  501 -0.00000000000E+00  0.00000000000E+00  0.20963345279E+04  0.20963345279E+04  0.00000000000E+00 0. -1.
          2   -1    0    0  501    0  0.00000000000E+00 -0.00000000000E+00 -0.16353831080E+04  0.16353831080E+04  0.00000000000E+00 0.  1.
         23    2    1    2    0    0 -0.32677714819E+03  0.12533884122E+04 -0.11011381201E+04  0.17024592621E+04  0.89980903938E+02 0.  0.
         11    1    3    3    0    0 -0.27004983898E+03  0.87824445345E+03 -0.79192519640E+03  0.12130069053E+04  0.00000000000E+00 0.  1.
        -11    1    3    3    0    0 -0.56727309204E+02  0.37514395871E+03 -0.30921292374E+03  0.48945235680E+03  0.00000000000E+00 0. -1.
         22    1    1    2    0    0  0.32677714819E+03 -0.12533884122E+04  0.15620895400E+04  0.20292583737E+04  0.00000000000E+00 0. -1.
<mgrwt>
<rscale>  0 0.37031392E+04</rscale>
<asrwt>0</asrwt>
<pdfrwt beam="1">  1        2 0.25159740E+00 0.37031392E+04</pdfrwt>
<pdfrwt beam="2">  1       -2 0.32251301E+00 0.37031392E+04</pdfrwt>
<totfact> 0.19890802E-01</totfact>
</mgrwt>
</event>
<event>
 6    1  0.2325157E-005  0.1446610E+04  0.7818608E-02  0.8920754E-01
         -2   -1    0    0    0  501 -0.00000000000E+00  0.00000000000E+00  0.24470634968E+03  0.24470634968E+03  0.00000000000E+00 0. -1.
          2   -1    0    0  501    0  0.00000000000E+00 -0.00000000000E+00 -0.21379511547E+04  0.21379511547E+04  0.00000000000E+00 0.  1.
         23    2    1    2    0    0 -0.53865069705E+03  0.26304023627E+03 -0.29206964280E+03  0.67295090984E+03  0.90683578851E+02 0.  0.
         13    1    3    3    0    0 -0.16975374538E+03  0.12840391692E+03 -0.87103794275E+02  0.22998037074E+03  0.00000000000E+00 0.  1.
        -13    1    3    3    0    0 -0.36889695167E+03  0.13463631935E+03 -0.20496584853E+03  0.44297053909E+03  0.00000000000E+00 0. -1.
         22    1    1    2    0    0  0.53865069705E+03 -0.26304023627E+03 -0.16011751622E+04  0.17097065945E+04  0.00000000000E+00 0.  1.
<mgrwt>
<rscale>  0 0.14466101E+04</rscale>
<asrwt>0</asrwt>
<pdfrwt beam="1">  1        2 0.32891557E+00 0.14466101E+04</pdfrwt>
<pdfrwt beam="2">  1       -2 0.37647130E-01 0.14466101E+04</pdfrwt>
<totfact> 0.36165189E+01</totfact>
</mgrwt>
</event>
<event>
 6    1  0.2325157E-005  0.2232564E+04  0.7818608E-02  0.8504995E-01
          2   -1    0    0  501    0  0.00000000000E+00  0.00000000000E+00  0.20565666159E+04  0.20565666159E+04  0.00000000000E+00 0.  1.
         -2   -1    0    0    0  501 -0.00000000000E+00 -0.00000000000E+00 -0.60590571397E+03  0.60590571397E+03  0.00000000000E+00 0. -1.
         23    2    1    2    0    0  0.60471491308E+03  0.47207714829E+03  0.16904839157E+04  0.18586987062E+04  0.92130620284E+02 0.  0.
         11    1    3    3    0    0  0.54113919434E+03  0.44037653280E+03  0.15821342024E+04  0.17291361290E+04  0.00000000000E+00 0.  1.
        -11    1    3    3    0    0  0.63575718738E+02  0.31700615488E+02  0.10834971332E+03  0.12956257720E+03  0.00000000000E+00 0. -1.
         22    1    1    2    0    0 -0.60471491308E+03 -0.47207714829E+03 -0.23982301383E+03  0.80377362360E+03  0.00000000000E+00 0. -1.
<mgrwt>
<rscale>  0 0.22325640E+04</rscale>
<asrwt>0</asrwt>
<pdfrwt beam="1">  1        2 0.31639486E+00 0.22325640E+04</pdfrwt>
<pdfrwt beam="2">  1       -2 0.93216265E-01 0.22325640E+04</pdfrwt>
<totfact> 0.55173144E+00</totfact>
</mgrwt>
</event>
<event>
 6    1  0.2325157E-005  0.1433079E+04  0.7818608E-02  0.8930216E-01
          2   -1    0    0  501    0  0.00000000000E+00  0.00000000000E+00  0.18349687153E+04  0.18349687153E+04  0.00000000000E+00 0. -1.
         -2   -1    0    0    0  501 -0.00000000000E+00 -0.00000000000E+00 -0.27980264236E+03  0.27980264236E+03  0.00000000000E+00 0.  1.
         23    2    1    2    0    0  0.62729744939E+03 -0.33122416008E+03  0.66854354428E+03  0.97929302562E+03  0.94089453127E+02 0.  0.
         11    1    3    3    0    0  0.50615851187E+02 -0.42929562168E+01  0.30706313789E+02  0.59357152652E+02  0.00000000000E+00 0. -1.
        -11    1    3    3    0    0  0.57668159820E+03 -0.32693120386E+03  0.63783723050E+03  0.91993587296E+03  0.00000000000E+00 0.  1.
         22    1    1    2    0    0 -0.62729744939E+03  0.33122416008E+03  0.88662252863E+03  0.11354783320E+04  0.00000000000E+00 0. -1.
<mgrwt>
<rscale>  0 0.14330793E+04</rscale>
<asrwt>0</asrwt>
<pdfrwt beam="1">  1        2 0.28230287E+00 0.14330793E+04</pdfrwt>
<pdfrwt beam="2">  1       -2 0.43046561E-01 0.14330793E+04</pdfrwt>
<totfact> 0.40998782E+01</totfact>
</mgrwt>
</event>
<event>
 6    1  0.2325157E-005  0.1295988E+04  0.7818608E-02  0.9032753E-01
          2   -1    0    0  501    0  0.00000000000E+00  0.00000000000E+00  0.14210174166E+04  0.14210174166E+04  0.00000000000E+00 0.  1.
         -2   -1    0    0    0  501 -0.00000000000E+00 -0.00000000000E+00 -0.29548962740E+03  0.29548962740E+03  0.00000000000E+00 0. -1.
         23    2    1    2    0    0 -0.27181098258E+03 -0.31933852830E+03  0.12141744789E+04  0.12878853675E+04  0.92578338738E+02 0.  0.
         11    1    3    3    0    0 -0.13126777352E+03 -0.20459637554E+03  0.78954639387E+03  0.82612009619E+03  0.00000000000E+00 0. -1.
        -11    1    3    3    0    0 -0.14054320905E+03 -0.11474215276E+03  0.42462808501E+03  0.46176527134E+03  0.00000000000E+00 0.  1.
         22    1    1    2    0    0  0.27181098258E+03  0.31933852830E+03 -0.88646689738E+02  0.42862167643E+03  0.00000000000E+00 0. -1.
<mgrwt>
<rscale>  0 0.12959875E+04</rscale>
<asrwt>0</asrwt>
<pdfrwt beam="1">  1        2 0.21861806E+00 0.12959875E+04</pdfrwt>
<pdfrwt beam="2">  1       -2 0.45459943E-01 0.12959875E+04</pdfrwt>
<totfact> 0.63300960E+01</totfact>
</mgrwt>
</event>
<event>
 6    1  0.2325157E-005  0.4101825E+04  0.7818608E-02  0.7984315E-01
          2   -1    0    0  501    0  0.00000000000E+00  0.00000000000E+00  0.46137842706E+04  0.46137842706E+04  0.00000000000E+00 0.  1.
         -2   -1    0    0    0  501 -0.00000000000E+00 -0.00000000000E+00 -0.91166840504E+03  0.91166840504E+03  0.00000000000E+00 0. -1.
         23    2    1    2    0    0 -0.65191854315E+03 -0.15726739602E+04  0.33901545825E+04  0.37946664341E+04  0.89688799986E+02 0.  0.
         13    1    3    3    0    0 -0.31085555695E+03 -0.77068272317E+03  0.15566695226E+04  0.17645971324E+04  0.00000000000E+00 0.  1.
        -13    1    3    3    0    0 -0.34106298619E+03 -0.80199123699E+03  0.18334850599E+04  0.20300693017E+04  0.00000000000E+00 0. -1.
         22    1    1    2    0    0  0.65191854315E+03  0.15726739602E+04  0.31196128306E+03  0.17307862416E+04  0.00000000000E+00 0.  1.
<mgrwt>
<rscale>  0 0.41018246E+04</rscale>
<asrwt>0</asrwt>
<pdfrwt beam="1">  1        2 0.70981295E+00 0.41018246E+04</pdfrwt>
<pdfrwt beam="2">  1       -2 0.14025668E+00 0.41018246E+04</pdfrwt>
<totfact> 0.26229743E-02</totfact>
</mgrwt>
</event>
<event>
 6    1  0.2325157E-005  0.2140801E+04  0.7818608E-02  0.8543480E-01
          2   -1    0    0  501    0  0.00000000000E+00  0.00000000000E+00  0.18970126953E+04  0.18970126953E+04  0.00000000000E+00 0.  1.
         -2   -1    0    0    0  501 -0.00000000000E+00 -0.00000000000E+00 -0.60397967215E+03  0.60397967215E+03  0.00000000000E+00 0. -1.
         23    2    1    2    0    0 -0.45559211725E+03  0.13772997720E+03  0.17652425454E+04  0.18305331540E+04  0.90756044605E+02 0.  0.
         11    1    3    3    0    0 -0.19477283501E+03  0.32537922847E+02  0.87125336876E+03  0.89335189386E+03  0.00000000000E+00 0. -1.
        -11    1    3    3    0    0 -0.26081928224E+03  0.10519205435E+03  0.89398917668E+03  0.93718126011E+03  0.00000000000E+00 0.  1.
         22    1    1    2    0    0  0.45559211725E+03 -0.13772997720E+03 -0.47220952232E+03  0.67045921344E+03  0.00000000000E+00 0. -1.
<mgrwt>
<rscale>  0 0.21408009E+04</rscale>
<asrwt>0</asrwt>
<pdfrwt beam="1">  1        2 0.29184810E+00 0.21408009E+04</pdfrwt>
<pdfrwt beam="2">  1       -2 0.92919950E-01 0.21408009E+04</pdfrwt>
<totfact> 0.68706492E+00</totfact>
</mgrwt>
</event>
<event>
 6    1  0.2325157E-005  0.1674756E+04  0.7818608E-02  0.8775894E-01
         -2   -1    0    0    0  501 -0.00000000000E+00  0.00000000000E+00  0.21198824461E+04  0.21198824461E+04  0.00000000000E+00 0. -1.
          2   -1    0    0  501    0  0.00000000000E+00 -0.00000000000E+00 -0.33077409058E+03  0.33077409058E+03  0.00000000000E+00 0.  1.
         23    2    1    2    0    0  0.30969275206E+03 -0.77494241218E+03  0.86186343827E+03  0.12031676672E+04  0.91424867184E+02 0.  0.
         13    1    3    3    0    0  0.70311288987E+02 -0.18874354929E+03  0.15482917554E+03  0.25404700029E+03  0.00000000000E+00 0. -1.
        -13    1    3    3    0    0  0.23938146307E+03 -0.58619886289E+03  0.70703426273E+03  0.94912066693E+03  0.00000000000E+00 0.  1.
         22    1    1    2    0    0 -0.30969275206E+03  0.77494241218E+03  0.92724491728E+03  0.12474888695E+04  0.00000000000E+00 0.  1.
<mgrwt>
<rscale>  0 0.16747563E+04</rscale>
<asrwt>0</asrwt>
<pdfrwt beam="1">  1        2 0.50888323E-01 0.16747563E+04</pdfrwt>
<pdfrwt beam="2">  1       -2 0.32613575E+00 0.16747563E+04</pdfrwt>
<totfact> 0.20668454E+00</totfact>
</mgrwt>
</event>
<event>
 6    1  0.2325157E-005  0.1536763E+04  0.7818608E-02  0.8860367E-01
          2   -1    0    0  501    0  0.00000000000E+00  0.00000000000E+00  0.97167892678E+03  0.97167892678E+03  0.00000000000E+00 0. -1.
         -2   -1    0    0    0  501 -0.00000000000E+00 -0.00000000000E+00 -0.60761874645E+03  0.60761874645E+03  0.00000000000E+00 0.  1.
         23    2    1    2    0    0 -0.18321313395E+03  0.66786972387E+03  0.51831677263E+03  0.86978226340E+03  0.90839905468E+02 0.  0.
         13    1    3    3    0    0 -0.11659122209E+03  0.42486069999E+03  0.38299695193E+03  0.58376946876E+03  0.00000000000E+00 0. -1.
        -13    1    3    3    0    0 -0.66621911865E+02  0.24300902388E+03  0.13531982070E+03  0.28601279465E+03  0.00000000000E+00 0.  1.
         22    1    1    2    0    0  0.18321313395E+03 -0.66786972387E+03 -0.15425659230E+03  0.70951540983E+03  0.00000000000E+00 0.  1.
<mgrwt>
<rscale>  0 0.15367633E+04</rscale>
<asrwt>0</asrwt>
<pdfrwt beam="1">  1        2 0.14948907E+00 0.15367633E+04</pdfrwt>
<pdfrwt beam="2">  1       -2 0.93479807E-01 0.15367633E+04</pdfrwt>
<totfact> 0.24507258E+01</totfact>
</mgrwt>
</event>
<event>
 6    1  0.2325157E-005  0.5908591E+03  0.7818608E-02  0.9924554E-01
         -2   -1    0    0    0  501 -0.00000000000E+00  0.00000000000E+00  0.86381429247E+02  0.86381429247E+02  0.00000000000E+00 0. -1.
          2   -1    0    0  501    0  0.00000000000E+00 -0.00000000000E+00 -0.10103864424E+04  0.10103864424E+04  0.00000000000E+00 0.  1.
         23    2    1    2    0    0  0.21370234982E+03  0.18504493729E+02 -0.83054640077E+03  0.86279004614E+03  0.92672699753E+02 0.  0.
         13    1    3    3    0    0  0.15732685122E+03 -0.28322524292E+02 -0.59555632589E+03  0.61663704138E+03  0.00000000000E+00 0. -1.
        -13    1    3    3    0    0  0.56375498599E+02  0.46827018021E+02 -0.23499007488E+03  0.24615300476E+03  0.00000000000E+00 0.  1.
         22    1    1    2    0    0 -0.21370234982E+03 -0.18504493729E+02 -0.93458612412E+02  0.23397782554E+03  0.00000000000E+00 0. -1.
<mgrwt>
<rscale>  0 0.59085912E+03</rscale>
<asrwt>0</asrwt>
<pdfrwt beam="1">  1        2 0.15544406E+00 0.59085912E+03</pdfrwt>
<pdfrwt beam="2">  1       -2 0.13289451E-01 0.59085912E+03</pdfrwt>
<totfact> 0.10740871E+03</totfact>
</mgrwt>
</event>
<event>
 6    1  0.2325157E-005  0.1117709E+04  0.7818608E-02  0.9188101E-01
         -2   -1    0    0    0  501 -0.00000000000E+00  0.00000000000E+00  0.18067863634E+03  0.18067863634E+03  0.00000000000E+00 0. -1.
          2   -1    0    0  501    0  0.00000000000E+00 -0.00000000000E+00 -0.17285860451E+04  0.17285860451E+04  0.00000000000E+00 0.  1.
         23    2    1    2    0    0  0.42126996498E+02 -0.35687932015E+03 -0.56282042413E+02  0.37496231017E+03  0.91057853911E+02 0.  0.
         13    1    3    3    0    0 -0.12195188174E+02 -0.71461046983E+02 -0.42631208920E+02  0.84100082190E+02  0.00000000000E+00 0. -1.
        -13    1    3    3    0    0  0.54322184672E+02 -0.28541827317E+03 -0.13650833493E+02  0.29086222798E+03  0.00000000000E+00 0.  1.
         22    1    1    2    0    0 -0.42126996498E+02  0.35687932015E+03 -0.14916253664E+04  0.15343023713E+04  0.00000000000E+00 0.  1.
<mgrwt>
<rscale>  0 0.11177094E+04</rscale>
<asrwt>0</asrwt>
<pdfrwt beam="1">  1        2 0.26593631E+00 0.11177094E+04</pdfrwt>
<pdfrwt beam="2">  1       -2 0.27796714E-01 0.11177094E+04</pdfrwt>
<totfact> 0.11079669E+02</totfact>
</mgrwt>
</event>
<event>
 6    1  0.2325157E-005  0.4481796E+04  0.7818608E-02  0.7913832E-01
          2   -1    0    0  501    0  0.00000000000E+00  0.00000000000E+00  0.23756434058E+04  0.23756434058E+04  0.00000000000E+00 0.  1.
         -2   -1    0    0    0  501 -0.00000000000E+00 -0.00000000000E+00 -0.21137952360E+04  0.21137952360E+04  0.00000000000E+00 0. -1.
         23    2    1    2    0    0 -0.13917278697E+03  0.18478339243E+04 -0.11296151744E+04  0.21721062284E+04  0.90309185520E+02 0.  0.
         11    1    3    3    0    0 -0.88102214837E+02  0.15719397972E+04 -0.94513730207E+03  0.18363118597E+04  0.00000000000E+00 0. -1.
        -11    1    3    3    0    0 -0.51070572133E+02  0.27589412702E+03 -0.18447787229E+03  0.33579436867E+03  0.00000000000E+00 0.  1.
         22    1    1    2    0    0  0.13917278697E+03 -0.18478339243E+04  0.13914633442E+04  0.23173324135E+04  0.00000000000E+00 0.  1.
<mgrwt>
<rscale>  0 0.44817959E+04</rscale>
<asrwt>0</asrwt>
<pdfrwt beam="1">  1        2 0.36548360E+00 0.44817959E+04</pdfrwt>
<pdfrwt beam="2">  1       -2 0.32519927E+00 0.44817959E+04</pdfrwt>
<totfact> 0.69261885E-02</totfact>
</mgrwt>
</event>
<event>
 6    1  0.2325157E-005  0.1082938E+04  0.7818608E-02  0.9221983E-01
          2   -1    0    0  501    0  0.00000000000E+00  0.00000000000E+00  0.16853636973E+04  0.16853636973E+04  0.00000000000E+00 0.  1.
         -2   -1    0    0    0  501 -0.00000000000E+00 -0.00000000000E+00 -0.17396170577E+03  0.17396170577E+03  0.00000000000E+00 0. -1.
         23    2    1    2    0    0  0.51770274277E+03  0.23342870649E+02  0.51526959169E+03  0.73645373743E+03  0.91106178580E+02 0.  0.
         13    1    3    3    0    0  0.24608677825E+03  0.56556292191E+02  0.25152605535E+03  0.35640240338E+03  0.00000000000E+00 0. -1.
        -13    1    3    3    0    0  0.27161596453E+03 -0.33213421543E+02  0.26374353634E+03  0.38005133406E+03  0.00000000000E+00 0.  1.
         22    1    1    2    0    0 -0.51770274277E+03 -0.23342870649E+02  0.99613239988E+03  0.11228716657E+04  0.00000000000E+00 0.  1.
<mgrwt>
<rscale>  0 0.10829381E+04</rscale>
<asrwt>0</asrwt>
<pdfrwt beam="1">  1        2 0.25928671E+00 0.10829381E+04</pdfrwt>
<pdfrwt beam="2">  1       -2 0.26763340E-01 0.10829381E+04</pdfrwt>
<totfact> 0.12580249E+02</totfact>
</mgrwt>
</event>
<event>
 6    1  0.2325157E-005  0.2929917E+04  0.7818608E-02  0.8264032E-01
         -2   -1    0    0    0  501 -0.00000000000E+00  0.00000000000E+00  0.77921804111E+03  0.77921804111E+03  0.00000000000E+00 0. -1.
          2   -1    0    0  501    0  0.00000000000E+00 -0.00000000000E+00 -0.27541755531E+04  0.27541755531E+04  0.00000000000E+00 0.  1.
         23    2    1    2    0    0  0.14226897635E+04 -0.33592080400E+03 -0.10737345717E+04  0.18161016162E+04  0.91816122172E+02 0.  0.
         11    1    3    3    0    0  0.10200836059E+04 -0.26751809417E+03 -0.81311324840E+03  0.13316492213E+04  0.00000000000E+00 0. -1.
        -11    1    3    3    0    0  0.40260615755E+03 -0.68402709828E+02 -0.26062132335E+03  0.48445239497E+03  0.00000000000E+00 0.  1.
         22    1    1    2    0    0 -0.14226897635E+04  0.33592080400E+03 -0.90122294028E+03  0.17172919780E+04  0.00000000000E+00 0. -1.
<mgrwt>
<rscale>  0 0.29299169E+04</rscale>
<asrwt>0</asrwt>
<pdfrwt beam="1">  1        2 0.42371932E+00 0.29299169E+04</pdfrwt>
<pdfrwt beam="2">  1       -2 0.11987970E+00 0.29299169E+04</pdfrwt>
<totfact> 0.11290220E+00</totfact>
</mgrwt>
</event>
<event>
 6    1  0.2325157E-005  0.3744452E+04  0.7818608E-02  0.8058182E-01
          2   -1    0    0  501    0  0.00000000000E+00  0.00000000000E+00  0.35480394562E+04  0.35480394562E+04  0.00000000000E+00 0.  1.
         -2   -1    0    0    0  501 -0.00000000000E+00 -0.00000000000E+00 -0.98793439143E+03  0.98793439143E+03  0.00000000000E+00 0. -1.
         23    2    1    2    0    0  0.10193231792E+04  0.72792347565E+03  0.29646496177E+04  0.32197107184E+04  0.92181475066E+02 0.  0.
         13    1    3    3    0    0  0.59291371046E+03  0.47505394720E+03  0.17521498102E+04  0.19097779657E+04  0.00000000000E+00 0. -1.
        -13    1    3    3    0    0  0.42640946872E+03  0.25286952846E+03  0.12124998075E+04  0.13099327527E+04  0.00000000000E+00 0.  1.
         22    1    1    2    0    0 -0.10193231792E+04 -0.72792347565E+03 -0.40454455296E+03  0.13162631292E+04  0.00000000000E+00 0. -1.
<mgrwt>
<rscale>  0 0.37444520E+04</rscale>
<asrwt>0</asrwt>
<pdfrwt beam="1">  1        2 0.54585222E+00 0.37444520E+04</pdfrwt>
<pdfrwt beam="2">  1       -2 0.15198991E+00 0.37444520E+04</pdfrwt>
<totfact> 0.17490034E-01</totfact>
</mgrwt>
</event>
<event>
 6    1  0.2325157E-005  0.4423130E+04  0.7818608E-02  0.7924234E-01
         -2   -1    0    0    0  501 -0.00000000000E+00  0.00000000000E+00  0.33809660443E+04  0.33809660443E+04  0.00000000000E+00 0. -1.
          2   -1    0    0  501    0  0.00000000000E+00 -0.00000000000E+00 -0.14466339295E+04  0.14466339295E+04  0.00000000000E+00 0.  1.
         23    2    1    2    0    0  0.16747779172E+04  0.13989475566E+03 -0.59983321062E+03  0.17868031192E+04  0.91727266374E+02 0.  0.
         11    1    3    3    0    0  0.12260446745E+04  0.61821600975E+02 -0.43237228473E+03  0.13015195914E+04  0.00000000000E+00 0.  1.
        -11    1    3    3    0    0  0.44873324276E+03  0.78073154688E+02 -0.16746092589E+03  0.48528352779E+03  0.00000000000E+00 0. -1.
         22    1    1    2    0    0 -0.16747779172E+04 -0.13989475566E+03  0.25341653255E+04  0.30407968547E+04  0.00000000000E+00 0. -1.
<mgrwt>
<rscale>  0 0.44231302E+04</rscale>
<asrwt>0</asrwt>
<pdfrwt beam="1">  1        2 0.22255907E+00 0.44231302E+04</pdfrwt>
<pdfrwt beam="2">  1       -2 0.52014862E+00 0.44231302E+04</pdfrwt>
<totfact> 0.12993766E-02</totfact>
</mgrwt>
</event>
<event>
 6    1  0.2325157E-005  0.1256751E+04  0.7818608E-02  0.9064583E-01
          2   -1    0    0  501    0  0.00000000000E+00  0.00000000000E+00  0.21595297928E+04  0.21595297928E+04  0.00000000000E+00 0.  1.
         -2   -1    0    0    0  501 -0.00000000000E+00 -0.00000000000E+00 -0.18284345329E+03  0.18284345329E+03  0.00000000000E+00 0. -1.
         23    2    1    2    0    0 -0.56094486429E+03 -0.12175510269E+03  0.53198824498E+03  0.78781992435E+03  0.90362019593E+02 0.  0.
         13    1    3    3    0    0 -0.36355911455E+03 -0.46788700057E+02  0.29587093648E+03  0.47106689894E+03  0.00000000000E+00 0.  1.
        -13    1    3    3    0    0 -0.19738574974E+03 -0.74966402637E+02  0.23611730851E+03  0.31675302540E+03  0.00000000000E+00 0. -1.
         22    1    1    2    0    0  0.56094486429E+03  0.12175510269E+03  0.14446980945E+04  0.15545533217E+04  0.00000000000E+00 0.  1.
<mgrwt>
<rscale>  0 0.12567512E+04</rscale>
<asrwt>0</asrwt>
<pdfrwt beam="1">  1        2 0.33223534E+00 0.12567512E+04</pdfrwt>
<pdfrwt beam="2">  1       -2 0.28129764E-01 0.12567512E+04</pdfrwt>
<totfact> 0.61957165E+01</totfact>
</mgrwt>
</event>
<event>
 6    1  0.2325157E-005  0.1946326E+04  0.7818608E-02  0.8632134E-01
         -2   -1    0    0    0  501 -0.00000000000E+00  0.00000000000E+00  0.28967353217E+03  0.28967353217E+03  0.00000000000E+00 0. -1.
          2   -1    0    0  501    0  0.00000000000E+00 -0.00000000000E+00 -0.32693587178E+04  0.32693587178E+04  0.00000000000E+00 0.  1.
         23    2    1    2    0    0  0.75787767141E+03  0.34912601701E+03 -0.58467484273E+03  0.10228260117E+04  0.89782168986E+02 0.  0.
         11    1    3    3    0    0  0.43718665266E+03  0.23465362369E+03 -0.30722624312E+03  0.58359442838E+03  0.00000000000E+00 0.  1.
        -11    1    3    3    0    0  0.32069101875E+03  0.11447239331E+03 -0.27744859962E+03  0.43923158330E+03  0.00000000000E+00 0. -1.
         22    1    1    2    0    0 -0.75787767141E+03 -0.34912601701E+03 -0.23950103429E+04  0.25362062382E+04  0.00000000000E+00 0.  1.
<mgrwt>
<rscale>  0 0.19463265E+04</rscale>
<asrwt>0</asrwt>
<pdfrwt beam="1">  1        2 0.50297826E+00 0.19463265E+04</pdfrwt>
<pdfrwt beam="2">  1       -2 0.44565159E-01 0.19463265E+04</pdfrwt>
<totfact> 0.52245923E+00</totfact>
</mgrwt>
</event>
<event>
 6    1  0.2325157E-005  0.1733404E+04  0.7818608E-02  0.8742539E-01
         -2   -1    0    0    0  501 -0.00000000000E+00  0.00000000000E+00  0.81755228147E+03  0.81755228147E+03  0.00000000000E+00 0.  1.
          2   -1    0    0  501    0  0.00000000000E+00 -0.00000000000E+00 -0.91880625790E+03  0.91880625790E+03  0.00000000000E+00 0. -1.
         23    2    1    2    0    0  0.25553330410E+03 -0.42449746425E+03 -0.76016282006E+03  0.91194588125E+03  0.91117565059E+02 0.  0.
         11    1    3    3    0    0  0.17158980079E+03 -0.30210059840E+03 -0.45380231158E+03  0.57152810017E+03  0.00000000000E+00 0. -1.
        -11    1    3    3    0    0  0.83943503316E+02 -0.12239686586E+03 -0.30636050848E+03  0.34041778108E+03  0.00000000000E+00 0.  1.
         22    1    1    2    0    0 -0.25553330410E+03  0.42449746425E+03  0.65890884363E+03  0.82441265812E+03  0.00000000000E+00 0.  1.
<mgrwt>
<rscale>  0 0.17334038E+04</rscale>
<asrwt>0</asrwt>
<pdfrwt beam="1">  1        2 0.14135481E+00 0.17334038E+04</pdfrwt>
<pdfrwt beam="2">  1       -2 0.12577727E+00 0.17334038E+04</pdfrwt>
<totfact> 0.12758300E+01</totfact>
</mgrwt>
</event>
<event>
 6    1  0.2325157E-005  0.2708938E+04  0.7818608E-02  0.8332111E-01
          1   -1    0    0  501    0  0.00000000000E+00  0.00000000000E+00  0.11161632499E+04  0.11161632499E+04  0.00000000000E+00 0.  1.
         -1   -1    0    0    0  501 -0.00000000000E+00 -0.00000000000E+00 -0.16436544144E+04  0.16436544144E+04  0.00000000000E+00 0. -1.
         23    2    1    2    0    0  0.11758934654E+03 -0.13460602644E+04 -0.19629748352E+03  0.13686330094E+04  0.94435810441E+02 0.  0.
         11    1    3    3    0    0  0.41103380203E+02 -0.51131966379E+03 -0.12081191877E+03  0.52700361114E+03  0.00000000000E+00 0. -1.
        -11    1    3    3    0    0  0.76485966340E+02 -0.83474060066E+03 -0.75485564752E+02  0.84162939821E+03  0.00000000000E+00 0.  1.
         22    1    1    2    0    0 -0.11758934654E+03  0.13460602644E+04 -0.33119368089E+03  0.13911846550E+04  0.00000000000E+00 0. -1.
<mgrwt>
<rscale>  0 0.27089383E+04</rscale>
<asrwt>0</asrwt>
<pdfrwt beam="1">  1        1 0.17171742E+00 0.27089383E+04</pdfrwt>
<pdfrwt beam="2">  1       -1 0.25286991E+00 0.27089383E+04</pdfrwt>
<totfact> 0.71823045E-01</totfact>
</mgrwt>
</event>
<event>
 6    1  0.2325157E-005  0.6376103E+03  0.7818608E-02  0.9830309E-01
         -2   -1    0    0    0  501 -0.00000000000E+00  0.00000000000E+00  0.44910870247E+03  0.44910870247E+03  0.00000000000E+00 0. -1.
          2   -1    0    0  501    0  0.00000000000E+00 -0.00000000000E+00 -0.22630762055E+03  0.22630762055E+03  0.00000000000E+00 0.  1.
         23    2    1    2    0    0  0.14876226344E+02 -0.18015011521E+03 -0.15696613918E+03  0.25482327940E+03  0.87299305573E+02 0.  0.
         13    1    3    3    0    0  0.42096375310E+02 -0.10580194112E+03 -0.12594395600E+03  0.16978820811E+03  0.00000000000E+00 0. -1.
        -13    1    3    3    0    0 -0.27220148966E+02 -0.74348174092E+02 -0.31022183180E+02  0.85035071293E+02  0.00000000000E+00 0.  1.
         22    1    1    2    0    0 -0.14876226344E+02  0.18015011521E+03  0.37976722110E+03  0.42059304362E+03  0.00000000000E+00 0. -1.
<mgrwt>
<rscale>  0 0.63761029E+03</rscale>
<asrwt>0</asrwt>
<pdfrwt beam="1">  1        2 0.34816557E-01 0.63761029E+03</pdfrwt>
<pdfrwt beam="2">  1       -2 0.69093647E-01 0.63761029E+03</pdfrwt>
<totfact> 0.29075527E+02</totfact>
</mgrwt>
</event>
<event>
 6    1  0.2325157E-005  0.3021863E+04  0.7818608E-02  0.8237515E-01
         -2   -1    0    0    0  501 -0.00000000000E+00  0.00000000000E+00  0.26833809238E+04  0.26833809238E+04  0.00000000000E+00 0. -1.
          2   -1    0    0  501    0  0.00000000000E+00 -0.00000000000E+00 -0.85076010939E+03  0.85076010939E+03  0.00000000000E+00 0.  1.
         23    2    1    2    0    0  0.12977341660E+04 -0.76383347901E+03  0.79607584480E+03  0.17060324414E+04  0.96199747056E+02 0.  0.
         11    1    3    3    0    0  0.94708412521E+03 -0.51501611943E+03  0.59538117702E+03  0.12315391547E+04  0.00000000000E+00 0. -1.
        -11    1    3    3    0    0  0.35065004076E+03 -0.24881735958E+03  0.20069466778E+03  0.47449328677E+03  0.00000000000E+00 0.  1.
         22    1    1    2    0    0 -0.12977341660E+04  0.76383347901E+03  0.10365449696E+04  0.18281085917E+04  0.00000000000E+00 0. -1.
<mgrwt>
<rscale>  0 0.30218626E+04</rscale>
<asrwt>0</asrwt>
<pdfrwt beam="1">  1        2 0.13088617E+00 0.30218626E+04</pdfrwt>
<pdfrwt beam="2">  1       -2 0.41282783E+00 0.30218626E+04</pdfrwt>
<totfact> 0.16546548E-01</totfact>
</mgrwt>
</event>
<event>
 6    1  0.2325157E-005  0.2766130E+04  0.7818608E-02  0.8313862E-01
          2   -1    0    0  501    0  0.00000000000E+00  0.00000000000E+00  0.20666881518E+04  0.20666881518E+04  0.00000000000E+00 0.  1.
         -2   -1    0    0    0  501 -0.00000000000E+00 -0.00000000000E+00 -0.92557185576E+03  0.92557185576E+03  0.00000000000E+00 0. -1.
         23    2    1    2    0    0 -0.30791711324E+03 -0.65213057740E+03  0.18458798330E+04  0.19839054659E+04  0.92310894592E+02 0.  0.
         11    1    3    3    0    0 -0.24111548136E+03 -0.57718905669E+03  0.16268374591E+04  0.17429526675E+04  0.00000000000E+00 0.  1.
        -11    1    3    3    0    0 -0.66801631877E+02 -0.74941520703E+02  0.21904237386E+03  0.24095279848E+03  0.00000000000E+00 0. -1.
         22    1    1    2    0    0  0.30791711324E+03  0.65213057740E+03 -0.70476353696E+03  0.10083545416E+04  0.00000000000E+00 0. -1.
<mgrwt>
<rscale>  0 0.27661297E+04</rscale>
<asrwt>0</asrwt>
<pdfrwt beam="1">  1        2 0.31795202E+00 0.27661297E+04</pdfrwt>
<pdfrwt beam="2">  1       -2 0.14239567E+00 0.27661297E+04</pdfrwt>
<totfact> 0.18389556E+00</totfact>
</mgrwt>
</event>
<event>
 6    1  0.2325157E-005  0.2279704E+04  0.7818608E-02  0.8485967E-01
         -2   -1    0    0    0  501 -0.00000000000E+00  0.00000000000E+00  0.21313304038E+04  0.21313304038E+04  0.00000000000E+00 0. -1.
          2   -1    0    0  501    0  0.00000000000E+00 -0.00000000000E+00 -0.60960159772E+03  0.60960159772E+03  0.00000000000E+00 0.  1.
         23    2    1    2    0    0  0.81720036130E+03 -0.93687494954E+02 -0.18353717229E+03  0.84764759758E+03  0.90701592338E+02 0.  0.
         11    1    3    3    0    0  0.17325702961E+03 -0.28610188821E+02 -0.26548616176E+01  0.17562343096E+03  0.00000000000E+00 0. -1.
        -11    1    3    3    0    0  0.64394333169E+03 -0.65077306133E+02 -0.18088231067E+03  0.67202416661E+03  0.00000000000E+00 0.  1.
         22    1    1    2    0    0 -0.81720036130E+03  0.93687494954E+02  0.17052659784E+04  0.18932844039E+04  0.00000000000E+00 0. -1.
<mgrwt>
<rscale>  0 0.22797039E+04</rscale>
<asrwt>0</asrwt>
<pdfrwt beam="1">  1        2 0.93784862E-01 0.22797039E+04</pdfrwt>
<pdfrwt beam="2">  1       -2 0.32789698E+00 0.22797039E+04</pdfrwt>
<totfact> 0.94591131E-01</totfact>
</mgrwt>
</event>
<event>
 6    1  0.2325157E-005  0.1608197E+04  0.7818608E-02  0.8815528E-01
         -2   -1    0    0    0  501 -0.00000000000E+00  0.00000000000E+00  0.26810506050E+03  0.26810506050E+03  0.00000000000E+00 0. -1.
          2   -1    0    0  501    0  0.00000000000E+00 -0.00000000000E+00 -0.24116447224E+04  0.24116447224E+04  0.00000000000E+00 0.  1.
         23    2    1    2    0    0 -0.12949096108E+03 -0.67972648297E+03 -0.40245133036E+03  0.80620112356E+03  0.95901916933E+02 0.  0.
         13    1    3    3    0    0 -0.73083561897E+02 -0.22973730048E+03 -0.99487562364E+02  0.26080300864E+03  0.00000000000E+00 0. -1.
        -13    1    3    3    0    0 -0.56407399185E+02 -0.44998918249E+03 -0.30296376799E+03  0.54539811492E+03  0.00000000000E+00 0.  1.
         22    1    1    2    0    0  0.12949096108E+03  0.67972648297E+03 -0.17410883315E+04  0.18735486593E+04  0.00000000000E+00 0.  1.
<mgrwt>
<rscale>  0 0.16081967E+04</rscale>
<asrwt>0</asrwt>
<pdfrwt beam="1">  1        2 0.37102227E+00 0.16081967E+04</pdfrwt>
<pdfrwt beam="2">  1       -2 0.41246932E-01 0.16081967E+04</pdfrwt>
<totfact> 0.20923140E+01</totfact>
</mgrwt>
</event>
<event>
 6    1  0.2325157E-005  0.5083445E+04  0.7818608E-02  0.7815762E-01
         -2   -1    0    0    0  501 -0.00000000000E+00  0.00000000000E+00  0.20076595825E+04  0.20076595825E+04  0.00000000000E+00 0. -1.
          2   -1    0    0  501    0  0.00000000000E+00 -0.00000000000E+00 -0.32178535349E+04  0.32178535349E+04  0.00000000000E+00 0.  1.
         23    2    1    2    0    0 -0.14652778517E+04  0.11335222361E+04  0.11821101709E+04  0.21997849636E+04  0.98780502331E+02 0.  0.
         13    1    3    3    0    0 -0.35312220485E+03  0.28670157948E+03  0.33982691523E+03  0.56778113701E+03  0.00000000000E+00 0.  1.
        -13    1    3    3    0    0 -0.11121556469E+04  0.84682065662E+03  0.84228325569E+03  0.16320038266E+04  0.00000000000E+00 0. -1.
         22    1    1    2    0    0  0.14652778517E+04 -0.11335222361E+04 -0.23923041232E+04  0.30257281538E+04  0.00000000000E+00 0.  1.
<mgrwt>
<rscale>  0 0.50834455E+04</rscale>
<asrwt>0</asrwt>
<pdfrwt beam="1">  1        2 0.49505439E+00 0.50834455E+04</pdfrwt>
<pdfrwt beam="2">  1       -2 0.30887071E+00 0.50834455E+04</pdfrwt>
<totfact> 0.25573594E-02</totfact>
</mgrwt>
</event>
<event>
 6    1  0.2325157E-005  0.4281730E+04  0.7818608E-02  0.7950005E-01
          2   -1    0    0  501    0  0.00000000000E+00  0.00000000000E+00  0.19294076590E+04  0.19294076590E+04  0.00000000000E+00 0. -1.
         -2   -1    0    0    0  501 -0.00000000000E+00 -0.00000000000E+00 -0.23754972216E+04  0.23754972216E+04  0.00000000000E+00 0.  1.
         23    2    1    2    0    0 -0.69189896110E+03  0.18645344155E+04 -0.10172794600E+04  0.22357333899E+04  0.91834265510E+02 0.  0.
         11    1    3    3    0    0 -0.29351346910E+03  0.92250728065E+03 -0.49860642390E+03  0.10889344357E+04  0.00000000000E+00 0. -1.
        -11    1    3    3    0    0 -0.39838549200E+03  0.94202713485E+03 -0.51867303606E+03  0.11467989542E+04  0.00000000000E+00 0.  1.
         22    1    1    2    0    0  0.69189896110E+03 -0.18645344155E+04  0.57118989733E+03  0.20691714907E+04  0.00000000000E+00 0. -1.
<mgrwt>
<rscale>  0 0.42817298E+04</rscale>
<asrwt>0</asrwt>
<pdfrwt beam="1">  1        2 0.29683195E+00 0.42817298E+04</pdfrwt>
<pdfrwt beam="2">  1       -2 0.36546111E+00 0.42817298E+04</pdfrwt>
<totfact> 0.69989749E-02</totfact>
</mgrwt>
</event>
<event>
 6    1  0.2325157E-005  0.2212503E+04  0.7818608E-02  0.8513242E-01
         -1   -1    0    0    0  501 -0.00000000000E+00  0.00000000000E+00  0.81109245565E+03  0.81109245565E+03  0.00000000000E+00 0. -1.
          1   -1    0    0  501    0  0.00000000000E+00 -0.00000000000E+00 -0.15088193051E+04  0.15088193051E+04  0.00000000000E+00 0.  1.
         23    2    1    2    0    0  0.10816102130E+03 -0.10601366559E+04 -0.65316628952E+03  0.12533405351E+04  0.92993329493E+02 0.  0.
         11    1    3    3    0    0  0.20278487424E+02 -0.63849348189E+03 -0.40106795816E+03  0.75428154593E+03  0.00000000000E+00 0. -1.
        -11    1    3    3    0    0  0.87882533879E+02 -0.42164317405E+03 -0.25209833136E+03  0.49905898916E+03  0.00000000000E+00 0.  1.
         22    1    1    2    0    0 -0.10816102130E+03  0.10601366559E+04 -0.44560559872E+02  0.10665712256E+04  0.00000000000E+00 0. -1.
<mgrwt>
<rscale>  0 0.22125026E+04</rscale>
<asrwt>0</asrwt>
<pdfrwt beam="1">  1        1 0.23212605E+00 0.22125026E+04</pdfrwt>
<pdfrwt beam="2">  1       -1 0.12478345E+00 0.22125026E+04</pdfrwt>
<totfact> 0.33016940E+00</totfact>
</mgrwt>
</event>
<event>
 6    1  0.2325157E-005  0.1415811E+04  0.7818608E-02  0.8942453E-01
         -2   -1    0    0    0  501 -0.00000000000E+00  0.00000000000E+00  0.55484816487E+03  0.55484816487E+03  0.00000000000E+00 0. -1.
          2   -1    0    0  501    0  0.00000000000E+00 -0.00000000000E+00 -0.90318417193E+03  0.90318417193E+03  0.00000000000E+00 0.  1.
         23    2    1    2    0    0 -0.31527722239E+02  0.14573330624E+03 -0.88441355706E+03  0.90160504287E+03  0.92044117622E+02 0.  0.
         13    1    3    3    0    0 -0.43253545339E+02  0.32433419355E+02 -0.41812775783E+03  0.42160837010E+03  0.00000000000E+00 0. -1.
        -13    1    3    3    0    0  0.11725823099E+02  0.11329988688E+03 -0.46628579924E+03  0.47999667276E+03  0.00000000000E+00 0.  1.
         22    1    1    2    0    0  0.31527722239E+02 -0.14573330624E+03  0.53607755001E+03  0.55642729394E+03  0.00000000000E+00 0. -1.
<mgrwt>
<rscale>  0 0.14158108E+04</rscale>
<asrwt>0</asrwt>
<pdfrwt beam="1">  1        2 0.13895141E+00 0.14158108E+04</pdfrwt>
<pdfrwt beam="2">  1       -2 0.85361256E-01 0.14158108E+04</pdfrwt>
<totfact> 0.33858905E+01</totfact>
</mgrwt>
</event>
<event>
 6    1  0.2325157E-005  0.1168689E+04  0.7818608E-02  0.9140713E-01
          2   -1    0    0  501    0  0.00000000000E+00  0.00000000000E+00  0.18368370917E+04  0.18368370917E+04  0.00000000000E+00 0.  1.
         -2   -1    0    0    0  501 -0.00000000000E+00 -0.00000000000E+00 -0.18589495858E+03  0.18589495858E+03  0.00000000000E+00 0. -1.
         23    2    1    2    0    0 -0.29082425971E+03 -0.47642338886E+03  0.55765447384E+03  0.79519960613E+03  0.99024774202E+02 0.  0.
         13    1    3    3    0    0 -0.12058406881E+03 -0.27602805183E+03  0.25869617569E+03  0.39705882985E+03  0.00000000000E+00 0.  1.
        -13    1    3    3    0    0 -0.17024019090E+03 -0.20039533703E+03  0.29895829815E+03  0.39814077627E+03  0.00000000000E+00 0. -1.
         22    1    1    2    0    0  0.29082425971E+03  0.47642338886E+03  0.10932876593E+04  0.12275324441E+04  0.00000000000E+00 0. -1.
<mgrwt>
<rscale>  0 0.11686894E+04</rscale>
<asrwt>0</asrwt>
<pdfrwt beam="1">  1        2 0.28259031E+00 0.11686894E+04</pdfrwt>
<pdfrwt beam="2">  1       -2 0.28599226E-01 0.11686894E+04</pdfrwt>
<totfact> 0.91275615E+01</totfact>
</mgrwt>
</event>
<event>
 6    1  0.2325157E-005  0.1564493E+04  0.7818608E-02  0.8842663E-01
          2   -1    0    0  501    0  0.00000000000E+00  0.00000000000E+00  0.14075406262E+04  0.14075406262E+04  0.00000000000E+00 0. -1.
         -2   -1    0    0    0  501 -0.00000000000E+00 -0.00000000000E+00 -0.43473672826E+03  0.43473672826E+03  0.00000000000E+00 0.  1.
         23    2    1    2    0    0  0.34323306421E+03 -0.34490285039E+03 -0.22935368271E+03  0.54537729613E+03  0.89812976677E+02 0.  0.
         11    1    3    3    0    0  0.14742523911E+03 -0.18113321746E+03 -0.15197878540E+03  0.27864133722E+03  0.00000000000E+00 0.  1.
        -11    1    3    3    0    0  0.19580782510E+03 -0.16376963293E+03 -0.77374897311E+02  0.26673595891E+03  0.00000000000E+00 0. -1.
         22    1    1    2    0    0 -0.34323306421E+03  0.34490285039E+03  0.12021575806E+04  0.12969000583E+04  0.00000000000E+00 0. -1.
<mgrwt>
<rscale>  0 0.15644930E+04</rscale>
<asrwt>0</asrwt>
<pdfrwt beam="1">  1        2 0.21654471E+00 0.15644930E+04</pdfrwt>
<pdfrwt beam="2">  1       -2 0.66882574E-01 0.15644930E+04</pdfrwt>
<totfact> 0.28276012E+01</totfact>
</mgrwt>
</event>
<event>
 6    1  0.2325157E-005  0.1730789E+04  0.7818608E-02  0.8743997E-01
         -2   -1    0    0    0  501 -0.00000000000E+00  0.00000000000E+00  0.32237586192E+03  0.32237586192E+03  0.00000000000E+00 0.  1.
          2   -1    0    0  501    0  0.00000000000E+00 -0.00000000000E+00 -0.23230881436E+04  0.23230881436E+04  0.00000000000E+00 0. -1.
         23    2    1    2    0    0  0.18726384379E+03  0.77561177240E+03 -0.15062054108E+04  0.17067529669E+04  0.87804224444E+02 0.  0.
         13    1    3    3    0    0  0.17172648986E+03  0.57608619220E+03 -0.10842562455E+04  0.12397487221E+04  0.00000000000E+00 0.  1.
        -13    1    3    3    0    0  0.15537353935E+02  0.19952558021E+03 -0.42194916529E+03  0.46700424475E+03  0.00000000000E+00 0. -1.
         22    1    1    2    0    0 -0.18726384379E+03 -0.77561177240E+03 -0.49450687089E+03  0.93871103863E+03  0.00000000000E+00 0.  1.
<mgrwt>
<rscale>  0 0.17307889E+04</rscale>
<asrwt>0</asrwt>
<pdfrwt beam="1">  1        2 0.35739819E+00 0.17307889E+04</pdfrwt>
<pdfrwt beam="2">  1       -2 0.49596285E-01 0.17307889E+04</pdfrwt>
<totfact> 0.16077584E+01</totfact>
</mgrwt>
</event>
<event>
 6    1  0.2325157E-005  0.1724654E+04  0.7818608E-02  0.8747427E-01
          2   -1    0    0  501    0  0.00000000000E+00  0.00000000000E+00  0.21539504214E+04  0.21539504214E+04  0.00000000000E+00 0.  1.
         -2   -1    0    0    0  501 -0.00000000000E+00 -0.00000000000E+00 -0.34522987370E+03  0.34522987370E+03  0.00000000000E+00 0. -1.
         23    2    1    2    0    0 -0.31480121061E+03  0.59830984853E+03  0.13675318156E+03  0.69569773335E+03  0.90661052691E+02 0.  0.
         13    1    3    3    0    0 -0.84552869461E+02  0.14445725490E+03  0.73698344911E+02  0.18288939901E+03  0.00000000000E+00 0. -1.
        -13    1    3    3    0    0 -0.23024834115E+03  0.45385259363E+03  0.63054836644E+02  0.51280833434E+03  0.00000000000E+00 0.  1.
         22    1    1    2    0    0  0.31480121061E+03 -0.59830984853E+03  0.16719673661E+04  0.18034825617E+04  0.00000000000E+00 0.  1.
<mgrwt>
<rscale>  0 0.17246542E+04</rscale>
<asrwt>0</asrwt>
<pdfrwt beam="1">  1        2 0.33137698E+00 0.17246542E+04</pdfrwt>
<pdfrwt beam="2">  1       -2 0.53112289E-01 0.17246542E+04</pdfrwt>
<totfact> 0.17405192E+01</totfact>
</mgrwt>
</event>
<event>
 6    1  0.2325157E-005  0.1488208E+04  0.7818608E-02  0.8892332E-01
         -2   -1    0    0    0  501 -0.00000000000E+00  0.00000000000E+00  0.20462182386E+03  0.20462182386E+03  0.00000000000E+00 0. -1.
          2   -1    0    0  501    0  0.00000000000E+00 -0.00000000000E+00 -0.27059239517E+04  0.27059239517E+04  0.00000000000E+00 0.  1.
         23    2    1    2    0    0  0.36250608152E+03  0.59446242867E+03 -0.76050361177E+03  0.10356655896E+04  0.97166000542E+02 0.  0.
         13    1    3    3    0    0  0.16311309483E+03  0.31541023710E+03 -0.44815956447E+03  0.57178360819E+03  0.00000000000E+00 0.  1.
        -13    1    3    3    0    0  0.19939298669E+03  0.27905219157E+03 -0.31234404730E+03  0.46388198137E+03  0.00000000000E+00 0. -1.
         22    1    1    2    0    0 -0.36250608152E+03 -0.59446242867E+03 -0.17407985160E+04  0.18748801860E+04  0.00000000000E+00 0. -1.
<mgrwt>
<rscale>  0 0.14882084E+04</rscale>
<asrwt>0</asrwt>
<pdfrwt beam="1">  1        2 0.41629600E+00 0.14882084E+04</pdfrwt>
<pdfrwt beam="2">  1       -2 0.31480280E-01 0.14882084E+04</pdfrwt>
<totfact> 0.23972686E+01</totfact>
</mgrwt>
</event>
<event>
 6    1  0.2325157E-005  0.5266665E+04  0.7818608E-02  0.7788638E-01
         -2   -1    0    0    0  501 -0.00000000000E+00  0.00000000000E+00  0.42001020634E+04  0.42001020634E+04  0.00000000000E+00 0. -1.
          2   -1    0    0  501    0  0.00000000000E+00 -0.00000000000E+00 -0.16510170923E+04  0.16510170923E+04  0.00000000000E+00 0.  1.
         23    2    1    2    0    0 -0.70602091682E+03 -0.12674368104E+04  0.37153605050E+04  0.39896519322E+04  0.92505430527E+02 0.  0.
         11    1    3    3    0    0 -0.23390489305E+03 -0.36974733217E+03  0.10263636990E+04  0.11157271312E+04  0.00000000000E+00 0. -1.
        -11    1    3    3    0    0 -0.47211602377E+03 -0.89768947823E+03  0.26889968060E+04  0.28739248010E+04  0.00000000000E+00 0.  1.
         22    1    1    2    0    0  0.70602091682E+03  0.12674368104E+04 -0.11662755339E+04  0.18614672236E+04  0.00000000000E+00 0.  1.
<mgrwt>
<rscale>  0 0.52666651E+04</rscale>
<asrwt>0</asrwt>
<pdfrwt beam="1">  1        2 0.25400263E+00 0.52666651E+04</pdfrwt>
<pdfrwt beam="2">  1       -2 0.64616954E+00 0.52666651E+04</pdfrwt>
<totfact> 0.26107594E-03</totfact>
</mgrwt>
</event>
<event>
 6    1  0.2325157E-005  0.5557420E+04  0.7818608E-02  0.7747837E-01
          2   -1    0    0  501    0  0.00000000000E+00  0.00000000000E+00  0.37773136380E+04  0.37773136380E+04  0.00000000000E+00 0.  1.
         -2   -1    0    0    0  501 -0.00000000000E+00 -0.00000000000E+00 -0.20441062704E+04  0.20441062704E+04  0.00000000000E+00 0. -1.
         23    2    1    2    0    0 -0.11281272223E+04  0.24994214662E+04  0.13325392928E+04  0.30500820362E+04  0.86952660105E+02 0.  0.
         13    1    3    3    0    0 -0.52266624988E+03  0.10654388197E+04  0.59886995824E+03  0.13292799232E+04  0.00000000000E+00 0. -1.
        -13    1    3    3    0    0 -0.60546097242E+03  0.14339826465E+04  0.73366933451E+03  0.17208021130E+04  0.00000000000E+00 0.  1.
         22    1    1    2    0    0  0.11281272223E+04 -0.24994214662E+04  0.40066807486E+03  0.27713378722E+04  0.00000000000E+00 0. -1.
<mgrwt>
<rscale>  0 0.55574204E+04</rscale>
<asrwt>0</asrwt>
<pdfrwt beam="1">  1        2 0.58112518E+00 0.55574204E+04</pdfrwt>
<pdfrwt beam="2">  1       -2 0.31447789E+00 0.55574204E+04</pdfrwt>
<totfact> 0.91860664E-03</totfact>
</mgrwt>
</event>
<event>
 6    1  0.2484652E-005  0.3200935E+04  0.7818608E-02  0.8188570E-01
          2   -1    0    0  501    0  0.00000000000E+00  0.00000000000E+00  0.27118708251E+04  0.27118708251E+04  0.00000000000E+00 0.  1.
         -2   -1    0    0    0  501 -0.00000000000E+00 -0.00000000000E+00 -0.94454968679E+03  0.94454968679E+03  0.00000000000E+00 0. -1.
         23    2    1    2    0    0  0.23758051655E+03 -0.12068635907E+04  0.20517452699E+04  0.23939383080E+04  0.91201655517E+02 0.  0.
         13    1    3    3    0    0  0.19318555766E+03 -0.95673253252E+03  0.15536136758E+04  0.18347679014E+04  0.00000000000E+00 0.  1.
        -13    1    3    3    0    0  0.44394958885E+02 -0.25013105813E+03  0.49813159410E+03  0.55917040663E+03  0.00000000000E+00 0. -1.
         22    1    1    2    0    0 -0.23758051655E+03  0.12068635907E+04 -0.28442413161E+03  0.12624822038E+04  0.00000000000E+00 0. -1.
<mgrwt>
<rscale>  0 0.32009353E+04</rscale>
<asrwt>0</asrwt>
<pdfrwt beam="1">  1        2 0.41721089E+00 0.32009353E+04</pdfrwt>
<pdfrwt beam="2">  1       -2 0.14531534E+00 0.32009353E+04</pdfrwt>
<totfact> 0.71642530E-01</totfact>
</mgrwt>
</event>
<event>
 6    1  0.2325157E-005  0.6912740E+03  0.7818608E-02  0.9732272E-01
          2   -1    0    0  501    0  0.00000000000E+00  0.00000000000E+00  0.88770832085E+03  0.88770832085E+03  0.00000000000E+00 0.  1.
         -2   -1    0    0    0  501 -0.00000000000E+00 -0.00000000000E+00 -0.13457680475E+03  0.13457680475E+03  0.00000000000E+00 0. -1.
         23    2    1    2    0    0 -0.22622681738E+03  0.24464280090E+03  0.48119127855E+03  0.59219191974E+03  0.90097449016E+02 0.  0.
         13    1    3    3    0    0 -0.14550761626E+03  0.20700248077E+03  0.38861839919E+03  0.46373133776E+03  0.00000000000E+00 0.  1.
        -13    1    3    3    0    0 -0.80719201122E+02  0.37640320135E+02  0.92572879360E+02  0.12846058198E+03  0.00000000000E+00 0. -1.
         22    1    1    2    0    0  0.22622681738E+03 -0.24464280090E+03  0.27194023754E+03  0.43009320586E+03  0.00000000000E+00 0. -1.
<mgrwt>
<rscale>  0 0.69127404E+03</rscale>
<asrwt>0</asrwt>
<pdfrwt beam="1">  1        2 0.13657051E+00 0.69127404E+03</pdfrwt>
<pdfrwt beam="2">  1       -2 0.20704124E-01 0.69127404E+03</pdfrwt>
<totfact> 0.60396042E+02</totfact>
</mgrwt>
</event>
<event>
 6    1  0.2325157E-005  0.1141092E+04  0.7818608E-02  0.9166042E-01
         -2   -1    0    0    0  501 -0.00000000000E+00  0.00000000000E+00  0.19304057697E+03  0.19304057697E+03  0.00000000000E+00 0. -1.
          2   -1    0    0  501    0  0.00000000000E+00 -0.00000000000E+00 -0.16862904193E+04  0.16862904193E+04  0.00000000000E+00 0.  1.
         23    2    1    2    0    0 -0.35461627482E+02 -0.47534880576E+03 -0.12563513042E+04  0.13470388476E+04  0.94239287177E+02 0.  0.
         13    1    3    3    0    0 -0.23147601488E+02 -0.36862005561E+03 -0.10697831501E+04  0.11317475625E+04  0.00000000000E+00 0. -1.
        -13    1    3    3    0    0 -0.12314025995E+02 -0.10672875015E+03 -0.18656815405E+03  0.21529128513E+03  0.00000000000E+00 0.  1.
         22    1    1    2    0    0  0.35461627482E+02  0.47534880576E+03 -0.23689853816E+03  0.53229214868E+03  0.00000000000E+00 0. -1.
<mgrwt>
<rscale>  0 0.11410915E+04</rscale>
<asrwt>0</asrwt>
<pdfrwt beam="1">  1        2 0.25942929E+00 0.11410915E+04</pdfrwt>
<pdfrwt beam="2">  1       -2 0.29698550E-01 0.11410915E+04</pdfrwt>
<totfact> 0.10327994E+02</totfact>
</mgrwt>
</event>
<event>
 6    1  0.2325157E-005  0.1199375E+04  0.7818608E-02  0.9113404E-01
         -2   -1    0    0    0  501 -0.00000000000E+00  0.00000000000E+00  0.89860578014E+03  0.89860578014E+03  0.00000000000E+00 0. -1.
          2   -1    0    0  501    0  0.00000000000E+00 -0.00000000000E+00 -0.40020320071E+03  0.40020320071E+03  0.00000000000E+00 0.  1.
         23    2    1    2    0    0  0.18295828758E+03 -0.43695981910E+03 -0.14133733301E+03  0.50277206332E+03  0.91629075344E+02 0.  0.
         11    1    3    3    0    0  0.17020338752E+03 -0.38484803183E+03 -0.93893492599E+02  0.43115332387E+03  0.00000000000E+00 0. -1.
        -11    1    3    3    0    0  0.12754900052E+02 -0.52111787272E+02 -0.47443840407E+02  0.71618739451E+02  0.00000000000E+00 0.  1.
         22    1    1    2    0    0 -0.18295828758E+03  0.43695981910E+03  0.63973991244E+03  0.79603691753E+03  0.00000000000E+00 0. -1.
<mgrwt>
<rscale>  0 0.11993747E+04</rscale>
<asrwt>0</asrwt>
<pdfrwt beam="1">  1        2 0.61569723E-01 0.11993747E+04</pdfrwt>
<pdfrwt beam="2">  1       -2 0.13824704E+00 0.11993747E+04</pdfrwt>
<totfact> 0.29078447E+01</totfact>
</mgrwt>
</event>
<event>
 6    1  0.2325157E-005  0.3976523E+04  0.7818608E-02  0.8009299E-01
          2   -1    0    0  501    0  0.00000000000E+00  0.00000000000E+00  0.24852500341E+04  0.24852500341E+04  0.00000000000E+00 0.  1.
         -2   -1    0    0    0  501 -0.00000000000E+00 -0.00000000000E+00 -0.15906586360E+04  0.15906586360E+04  0.00000000000E+00 0. -1.
         23    2    1    2    0    0 -0.12422321277E+04  0.47032700896E+03 -0.10675020935E+04  0.17064870056E+04  0.90493238318E+02 0.  0.
         11    1    3    3    0    0 -0.32416813837E+03  0.14470618809E+03 -0.24191018875E+03  0.42958747913E+03  0.00000000000E+00 0. -1.
        -11    1    3    3    0    0 -0.91806398932E+03  0.32562082087E+03 -0.82559190470E+03  0.12768995264E+04  0.00000000000E+00 0.  1.
         22    1    1    2    0    0  0.12422321277E+04 -0.47032700896E+03  0.19620934916E+04  0.23694216645E+04  0.00000000000E+00 0.  1.
<mgrwt>
<rscale>  0 0.39765233E+04</rscale>
<asrwt>0</asrwt>
<pdfrwt beam="1">  1        2 0.38234616E+00 0.39765233E+04</pdfrwt>
<pdfrwt beam="2">  1       -2 0.24471671E+00 0.39765233E+04</pdfrwt>
<totfact> 0.19436539E-01</totfact>
</mgrwt>
</event>
<event>
 6    1  0.2325157E-005  0.2183477E+04  0.7818608E-02  0.8525337E-01
         -2   -1    0    0    0  501 -0.00000000000E+00  0.00000000000E+00  0.73862653804E+03  0.73862653804E+03  0.00000000000E+00 0. -1.
          2   -1    0    0  501    0  0.00000000000E+00 -0.00000000000E+00 -0.16136605980E+04  0.16136605980E+04  0.00000000000E+00 0.  1.
         23    2    1    2    0    0 -0.61016223184E+03  0.76499525139E+03 -0.95534594525E+03  0.13704695956E+04  0.89360804743E+02 0.  0.
         11    1    3    3    0    0 -0.28189074464E+03  0.42314246163E+03 -0.50865287079E+03  0.71919376924E+03  0.00000000000E+00 0.  1.
        -11    1    3    3    0    0 -0.32827148720E+03  0.34185278976E+03 -0.44669307446E+03  0.65127582631E+03  0.00000000000E+00 0. -1.
         22    1    1    2    0    0  0.61016223184E+03 -0.76499525139E+03  0.80311885330E+02  0.98181754045E+03  0.00000000000E+00 0. -1.
<mgrwt>
<rscale>  0 0.21834766E+04</rscale>
<asrwt>0</asrwt>
<pdfrwt beam="1">  1        2 0.24825547E+00 0.21834766E+04</pdfrwt>
<pdfrwt beam="2">  1       -2 0.11363485E+00 0.21834766E+04</pdfrwt>
<totfact> 0.60892635E+00</totfact>
</mgrwt>
</event>
<event>
 6    1  0.2325157E-005  0.2018700E+04  0.7818608E-02  0.8597927E-01
         -2   -1    0    0    0  501 -0.00000000000E+00  0.00000000000E+00  0.50590929239E+03  0.50590929239E+03  0.00000000000E+00 0. -1.
          2   -1    0    0  501    0  0.00000000000E+00 -0.00000000000E+00 -0.20137751509E+04  0.20137751509E+04  0.00000000000E+00 0.  1.
         23    2    1    2    0    0 -0.54592282488E+03  0.42970228595E+03 -0.16657895826E+04  0.18072129084E+04  0.92129134417E+02 0.  0.
         11    1    3    3    0    0 -0.22500102777E+03  0.20439055851E+03 -0.62479234451E+03  0.69481395831E+03  0.00000000000E+00 0.  1.
        -11    1    3    3    0    0 -0.32092179711E+03  0.22531172744E+03 -0.10409972381E+04  0.11123989501E+04  0.00000000000E+00 0. -1.
         22    1    1    2    0    0  0.54592282488E+03 -0.42970228595E+03  0.15792372418E+03  0.71247153483E+03  0.00000000000E+00 0. -1.
<mgrwt>
<rscale>  0 0.20187001E+04</rscale>
<asrwt>0</asrwt>
<pdfrwt beam="1">  1        2 0.30981156E+00 0.20187001E+04</pdfrwt>
<pdfrwt beam="2">  1       -2 0.77832199E-01 0.20187001E+04</pdfrwt>
<totfact> 0.89518929E+00</totfact>
</mgrwt>
</event>
<event>
 6    1  0.2341195E-005  0.3825925E+04  0.7818608E-02  0.8040614E-01
          1   -1    0    0  501    0  0.00000000000E+00  0.00000000000E+00  0.26065085701E+04  0.26065085701E+04  0.00000000000E+00 0.  1.
         -1   -1    0    0    0  501 -0.00000000000E+00 -0.00000000000E+00 -0.14039568014E+04  0.14039568014E+04  0.00000000000E+00 0. -1.
         23    2    1    2    0    0 -0.84827234472E+03 -0.11386052104E+04  0.19437188506E+04  0.24088048459E+04  0.91159308586E+02 0.  0.
         13    1    3    3    0    0 -0.50621347483E+03 -0.64973185024E+03  0.11966314886E+04  0.14526976557E+04  0.00000000000E+00 0. -1.
        -13    1    3    3    0    0 -0.34205886989E+03 -0.48887336020E+03  0.74708736199E+03  0.95610719024E+03  0.00000000000E+00 0.  1.
         22    1    1    2    0    0  0.84827234472E+03  0.11386052104E+04 -0.74116708180E+03  0.16016605256E+04  0.00000000000E+00 0. -1.
<mgrwt>
<rscale>  0 0.38259250E+04</rscale>
<asrwt>0</asrwt>
<pdfrwt beam="1">  1        1 0.40100132E+00 0.38259250E+04</pdfrwt>
<pdfrwt beam="2">  1       -1 0.21599335E+00 0.38259250E+04</pdfrwt>
<totfact> 0.10613682E-01</totfact>
</mgrwt>
</event>
<event>
 6    1  0.2325157E-005  0.4520193E+03  0.7818608E-02  0.1027122E+00
          2   -1    0    0  501    0  0.00000000000E+00  0.00000000000E+00  0.23763965084E+03  0.23763965084E+03  0.00000000000E+00 0.  1.
         -2   -1    0    0    0  501 -0.00000000000E+00 -0.00000000000E+00 -0.21494885168E+03  0.21494885168E+03  0.00000000000E+00 0. -1.
         23    2    1    2    0    0 -0.16360730663E+03 -0.90282836901E+02  0.12154200794E+03  0.24118863758E+03  0.92093201607E+02 0.  0.
         13    1    3    3    0    0 -0.77603696038E+02 -0.93533557133E+02  0.80987661034E+02  0.14604746211E+03  0.00000000000E+00 0. -1.
        -13    1    3    3    0    0 -0.86003610596E+02  0.32507202323E+01  0.40554346902E+02  0.95141175472E+02  0.00000000000E+00 0.  1.
         22    1    1    2    0    0  0.16360730663E+03  0.90282836901E+02 -0.98851208774E+02  0.21139986494E+03  0.00000000000E+00 0. -1.
<mgrwt>
<rscale>  0 0.45201934E+03</rscale>
<asrwt>0</asrwt>
<pdfrwt beam="1">  1        2 0.36559946E-01 0.45201934E+03</pdfrwt>
<pdfrwt beam="2">  1       -2 0.33069054E-01 0.45201934E+03</pdfrwt>
<totfact> 0.12131531E+03</totfact>
</mgrwt>
</event>
<event>
 6    1  0.2325157E-005  0.1991026E+04  0.7818608E-02  0.8610828E-01
         -2   -1    0    0    0  501 -0.00000000000E+00  0.00000000000E+00  0.41096278705E+03  0.41096278705E+03  0.00000000000E+00 0. -1.
          2   -1    0    0  501    0  0.00000000000E+00 -0.00000000000E+00 -0.24115224923E+04  0.24115224923E+04  0.00000000000E+00 0.  1.
         23    2    1    2    0    0 -0.25343851943E+03 -0.88145925049E+03 -0.46135999508E+03  0.10307438803E+04  0.91533645407E+02 0.  0.
         13    1    3    3    0    0 -0.45531298573E+02 -0.18883491770E+03 -0.13976950153E+03  0.23930574346E+03  0.00000000000E+00 0. -1.
        -13    1    3    3    0    0 -0.20790722086E+03 -0.69262433279E+03 -0.32159049355E+03  0.79143813681E+03  0.00000000000E+00 0.  1.
         22    1    1    2    0    0  0.25343851943E+03  0.88145925049E+03 -0.15391997102E+04  0.17917413991E+04  0.00000000000E+00 0.  1.
<mgrwt>
<rscale>  0 0.19910259E+04</rscale>
<asrwt>0</asrwt>
<pdfrwt beam="1">  1        2 0.37100347E+00 0.19910259E+04</pdfrwt>
<pdfrwt beam="2">  1       -2 0.63225043E-01 0.19910259E+04</pdfrwt>
<totfact> 0.84370341E+00</totfact>
</mgrwt>
</event>
<event>
 6    1  0.2325157E-005  0.1722859E+04  0.7818608E-02  0.8748433E-01
         -2   -1    0    0    0  501 -0.00000000000E+00  0.00000000000E+00  0.30968560946E+03  0.30968560946E+03  0.00000000000E+00 0. -1.
          2   -1    0    0  501    0  0.00000000000E+00 -0.00000000000E+00 -0.23961757220E+04  0.23961757220E+04  0.00000000000E+00 0.  1.
         23    2    1    2    0    0 -0.35463345352E+03  0.74435451232E+03 -0.14255058535E+04  0.16491074731E+04  0.87521387030E+02 0.  0.
         11    1    3    3    0    0 -0.27278414206E+03  0.58441690045E+03 -0.10392082214E+04  0.12230731904E+04  0.00000000000E+00 0.  1.
        -11    1    3    3    0    0 -0.81849311453E+02  0.15993761187E+03 -0.38629763209E+03  0.42603428270E+03  0.00000000000E+00 0. -1.
         22    1    1    2    0    0  0.35463345352E+03 -0.74435451232E+03 -0.66098425898E+03  0.10567538583E+04  0.00000000000E+00 0. -1.
<mgrwt>
<rscale>  0 0.17228594E+04</rscale>
<asrwt>0</asrwt>
<pdfrwt beam="1">  1        2 0.36864243E+00 0.17228594E+04</pdfrwt>
<pdfrwt beam="2">  1       -2 0.47643939E-01 0.17228594E+04</pdfrwt>
<totfact> 0.15860778E+01</totfact>
</mgrwt>
</event>
<event>
 6    1  0.2325157E-005  0.1381973E+04  0.7818608E-02  0.8966972E-01
         -2   -1    0    0    0  501 -0.00000000000E+00  0.00000000000E+00  0.28846781987E+03  0.28846781987E+03  0.00000000000E+00 0. -1.
          2   -1    0    0  501    0  0.00000000000E+00 -0.00000000000E+00 -0.16551661468E+04  0.16551661468E+04  0.00000000000E+00 0.  1.
         23    2    1    2    0    0  0.61109771018E+03 -0.16999084505E+02 -0.11294009688E+04  0.12878600601E+04  0.96475934612E+02 0.  0.
         11    1    3    3    0    0  0.29630386307E+03  0.34220327630E+02 -0.59346988785E+03  0.66420894143E+03  0.00000000000E+00 0. -1.
        -11    1    3    3    0    0  0.31479384712E+03 -0.51219412135E+02 -0.53593108093E+03  0.62365111871E+03  0.00000000000E+00 0.  1.
         22    1    1    2    0    0 -0.61109771018E+03  0.16999084505E+02 -0.23729735811E+03  0.65577390649E+03  0.00000000000E+00 0. -1.
<mgrwt>
<rscale>  0 0.13819727E+04</rscale>
<asrwt>0</asrwt>
<pdfrwt beam="1">  1        2 0.25464095E+00 0.13819727E+04</pdfrwt>
<pdfrwt beam="2">  1       -2 0.44379663E-01 0.13819727E+04</pdfrwt>
<totfact> 0.48735972E+01</totfact>
</mgrwt>
</event>
<event>
 6    1  0.2325157E-005  0.4433724E+04  0.7818608E-02  0.7922344E-01
         -2   -1    0    0    0  501 -0.00000000000E+00  0.00000000000E+00  0.20455467184E+04  0.20455467184E+04  0.00000000000E+00 0. -1.
          2   -1    0    0  501    0  0.00000000000E+00 -0.00000000000E+00 -0.24025249710E+04  0.24025249710E+04  0.00000000000E+00 0.  1.
         23    2    1    2    0    0 -0.76172376728E+03 -0.13824359896E+03 -0.22615728793E+04  0.23921497349E+04  0.91291158395E+02 0.  0.
         11    1    3    3    0    0 -0.36121485141E+03 -0.91984023794E+02 -0.12018424206E+04  0.12583173024E+04  0.00000000000E+00 0.  1.
        -11    1    3    3    0    0 -0.40050891586E+03 -0.46259575168E+02 -0.10597304587E+04  0.11338324325E+04  0.00000000000E+00 0. -1.
         22    1    1    2    0    0  0.76172376728E+03  0.13824359896E+03  0.19045946267E+04  0.20559219544E+04  0.00000000000E+00 0. -1.
<mgrwt>
<rscale>  0 0.44337240E+04</rscale>
<asrwt>0</asrwt>
<pdfrwt beam="1">  1        2 0.36961923E+00 0.44337240E+04</pdfrwt>
<pdfrwt beam="2">  1       -2 0.31469950E+00 0.44337240E+04</pdfrwt>
<totfact> 0.77925319E-02</totfact>
</mgrwt>
</event>
<event>
 6    1  0.2325157E-005  0.3984951E+04  0.7818608E-02  0.8007589E-01
         -2   -1    0    0    0  501 -0.00000000000E+00  0.00000000000E+00  0.23839182008E+04  0.23839182008E+04  0.00000000000E+00 0. -1.
          2   -1    0    0  501    0  0.00000000000E+00 -0.00000000000E+00 -0.16653083319E+04  0.16653083319E+04  0.00000000000E+00 0.  1.
         23    2    1    2    0    0  0.52453139560E+03  0.13545847511E+04  0.17437532267E+04  0.22713199162E+04  0.90475484198E+02 0.  0.
         11    1    3    3    0    0  0.18553484382E+03  0.43355660193E+03  0.50602129285E+03  0.69170228724E+03  0.00000000000E+00 0. -1.
        -11    1    3    3    0    0  0.33899655177E+03  0.92102814917E+03  0.12377319338E+04  0.15796176290E+04  0.00000000000E+00 0.  1.
         22    1    1    2    0    0 -0.52453139560E+03 -0.13545847511E+04 -0.10251433579E+04  0.17779066165E+04  0.00000000000E+00 0.  1.
<mgrwt>
<rscale>  0 0.39849511E+04</rscale>
<asrwt>0</asrwt>
<pdfrwt beam="1">  1        2 0.25620128E+00 0.39849511E+04</pdfrwt>
<pdfrwt beam="2">  1       -2 0.36675665E+00 0.39849511E+04</pdfrwt>
<totfact> 0.98586368E-02</totfact>
</mgrwt>
</event>
<event>
 6    1  0.2325157E-005  0.6662461E+03  0.7818608E-02  0.9776763E-01
         -4   -1    0    0    0  501 -0.00000000000E+00  0.00000000000E+00  0.17453310099E+03  0.17453310099E+03  0.00000000000E+00 0. -1.
          4   -1    0    0  501    0  0.00000000000E+00 -0.00000000000E+00 -0.63581618143E+03  0.63581618143E+03  0.00000000000E+00 0.  1.
         23    2    1    2    0    0 -0.16010623655E+03  0.25577754805E+03 -0.38754827435E+03  0.49971608604E+03  0.92012719952E+02 0.  0.
         13    1    3    3    0    0 -0.16054047935E+03  0.19606616534E+03 -0.28782493179E+03  0.38348191361E+03  0.00000000000E+00 0. -1.
        -13    1    3    3    0    0  0.43424280212E+00  0.59711382703E+02 -0.99723342557E+02  0.11623417244E+03  0.00000000000E+00 0.  1.
         22    1    1    2    0    0  0.16010623655E+03 -0.25577754805E+03 -0.73734806091E+02  0.31063319638E+03  0.00000000000E+00 0. -1.
<mgrwt>
<rscale>  0 0.66624611E+03</rscale>
<asrwt>0</asrwt>
<pdfrwt beam="1">  1        4 0.97817874E-01 0.66624611E+03</pdfrwt>
<pdfrwt beam="2">  1       -4 0.26851246E-01 0.66624611E+03</pdfrwt>
<totfact> 0.22960673E+01</totfact>
</mgrwt>
</event>
<event>
 6    1  0.2325157E-005  0.1529814E+04  0.7818608E-02  0.8864866E-01
         -2   -1    0    0    0  501 -0.00000000000E+00  0.00000000000E+00  0.36590978062E+03  0.36590978062E+03  0.00000000000E+00 0.  1.
          2   -1    0    0  501    0  0.00000000000E+00 -0.00000000000E+00 -0.15989807151E+04  0.15989807151E+04  0.00000000000E+00 0. -1.
         23    2    1    2    0    0  0.74462571623E+03 -0.14403836488E+03 -0.52328192525E+03  0.92613405388E+03  0.93197664302E+02 0.  0.
         11    1    3    3    0    0  0.46137525165E+03 -0.97009564388E+02 -0.37832547521E+03  0.60448998636E+03  0.00000000000E+00 0. -1.
        -11    1    3    3    0    0  0.28325046459E+03 -0.47028800497E+02 -0.14495645004E+03  0.32164406753E+03  0.00000000000E+00 0.  1.
         22    1    1    2    0    0 -0.74462571623E+03  0.14403836488E+03 -0.70978900923E+03  0.10387564418E+04  0.00000000000E+00 0.  1.
<mgrwt>
<rscale>  0 0.15298140E+04</rscale>
<asrwt>0</asrwt>
<pdfrwt beam="1">  1        2 0.24599703E+00 0.15298140E+04</pdfrwt>
<pdfrwt beam="2">  1       -2 0.56293813E-01 0.15298140E+04</pdfrwt>
<totfact> 0.31878136E+01</totfact>
</mgrwt>
</event>
<event>
 6    1  0.2325157E-005  0.1084082E+04  0.7818608E-02  0.9220847E-01
         -2   -1    0    0    0  501 -0.00000000000E+00  0.00000000000E+00  0.15532608853E+03  0.15532608853E+03  0.00000000000E+00 0. -1.
          2   -1    0    0  501    0  0.00000000000E+00 -0.00000000000E+00 -0.18915588244E+04  0.18915588244E+04  0.00000000000E+00 0.  1.
         23    2    1    2    0    0  0.18297196069E+03 -0.27962796640E+03 -0.86291441694E+02  0.36344295902E+03  0.11390361522E+03 0.  0.
         11    1    3    3    0    0  0.65957242178E+02 -0.12500573483E+03 -0.93387234419E+02  0.16940474340E+03  0.00000000000E+00 0.  1.
        -11    1    3    3    0    0  0.11701471851E+03 -0.15462223157E+03  0.70957927254E+01  0.19403821561E+03  0.00000000000E+00 0. -1.
         22    1    1    2    0    0 -0.18297196069E+03  0.27962796640E+03 -0.16499412942E+04  0.16834419539E+04  0.00000000000E+00 0.  1.
<mgrwt>
<rscale>  0 0.10840820E+04</rscale>
<asrwt>0</asrwt>
<pdfrwt beam="1">  1        2 0.29100905E+00 0.10840820E+04</pdfrwt>
<pdfrwt beam="2">  1       -2 0.23896321E-01 0.10840820E+04</pdfrwt>
<totfact> 0.11891295E+02</totfact>
</mgrwt>
</event>
<event>
 6    1  0.2325157E-005  0.1811796E+04  0.7818608E-02  0.8700052E-01
          2   -1    0    0  501    0  0.00000000000E+00  0.00000000000E+00  0.43575180658E+03  0.43575180658E+03  0.00000000000E+00 0.  1.
         -2   -1    0    0    0  501 -0.00000000000E+00 -0.00000000000E+00 -0.18832995282E+04  0.18832995282E+04  0.00000000000E+00 0. -1.
         23    2    1    2    0    0  0.72244997088E+03 -0.44866747585E+03 -0.33440359962E+03  0.91822075949E+03  0.89817211143E+02 0.  0.
         11    1    3    3    0    0  0.38953321600E+03 -0.18958045154E+03 -0.17620723756E+03  0.46768137074E+03  0.00000000000E+00 0.  1.
        -11    1    3    3    0    0  0.33291675488E+03 -0.25908702431E+03 -0.15819636206E+03  0.45053938875E+03  0.00000000000E+00 0. -1.
         22    1    1    2    0    0 -0.72244997088E+03  0.44866747585E+03 -0.11131441220E+04  0.14008305753E+04  0.00000000000E+00 0.  1.
<mgrwt>
<rscale>  0 0.18117960E+04</rscale>
<asrwt>0</asrwt>
<pdfrwt beam="1">  1        2 0.67038739E-01 0.18117960E+04</pdfrwt>
<pdfrwt beam="2">  1       -2 0.28973839E+00 0.18117960E+04</pdfrwt>
<totfact> 0.25024206E+00</totfact>
</mgrwt>
</event>
<event>
 6    1  0.2325157E-005  0.1498954E+04  0.7818608E-02  0.8885149E-01
          2   -1    0    0  501    0  0.00000000000E+00  0.00000000000E+00  0.50652291278E+03  0.50652291278E+03  0.00000000000E+00 0.  1.
         -2   -1    0    0    0  501 -0.00000000000E+00 -0.00000000000E+00 -0.11089636263E+04  0.11089636263E+04  0.00000000000E+00 0. -1.
         23    2    1    2    0    0  0.29653479123E+03 -0.62992066165E+03 -0.59368925010E+03  0.91920390216E+03  0.87954338520E+02 0.  0.
         11    1    3    3    0    0  0.23290381605E+03 -0.50770714641E+03 -0.42794745519E+03  0.70366878462E+03  0.00000000000E+00 0.  1.
        -11    1    3    3    0    0  0.63630975187E+02 -0.12221351525E+03 -0.16574179491E+03  0.21553511754E+03  0.00000000000E+00 0. -1.
         22    1    1    2    0    0 -0.29653479123E+03  0.62992066165E+03 -0.87514634242E+01  0.69628263694E+03  0.00000000000E+00 0.  1.
<mgrwt>
<rscale>  0 0.14989536E+04</rscale>
<asrwt>0</asrwt>
<pdfrwt beam="1">  1        2 0.77926603E-01 0.14989536E+04</pdfrwt>
<pdfrwt beam="2">  1       -2 0.17060979E+00 0.14989536E+04</pdfrwt>
<totfact> 0.12354456E+01</totfact>
</mgrwt>
</event>
<event>
 6    1  0.2325157E-005  0.1599548E+04  0.7818608E-02  0.8820826E-01
         -2   -1    0    0    0  501 -0.00000000000E+00  0.00000000000E+00  0.27753873707E+03  0.27753873707E+03  0.00000000000E+00 0. -1.
          2   -1    0    0  501    0  0.00000000000E+00 -0.00000000000E+00 -0.23046811662E+04  0.23046811662E+04  0.00000000000E+00 0.  1.
         23    2    1    2    0    0  0.73113854386E+03 -0.19466494646E+03 -0.61166839677E+03  0.97721998178E+03  0.91447545010E+02 0.  0.
         11    1    3    3    0    0  0.41262459936E+03 -0.67647190708E+02 -0.31014269062E+03  0.52059935742E+03  0.00000000000E+00 0.  1.
        -11    1    3    3    0    0  0.31851394450E+03 -0.12701775576E+03 -0.30152570615E+03  0.45662062435E+03  0.00000000000E+00 0. -1.
         22    1    1    2    0    0 -0.73113854386E+03  0.19466494646E+03 -0.14154740323E+04  0.16049999215E+04  0.00000000000E+00 0.  1.
<mgrwt>
<rscale>  0 0.15995478E+04</rscale>
<asrwt>0</asrwt>
<pdfrwt beam="1">  1        2 0.35456631E+00 0.15995478E+04</pdfrwt>
<pdfrwt beam="2">  1       -2 0.42698270E-01 0.15995478E+04</pdfrwt>
<totfact> 0.22495254E+01</totfact>
</mgrwt>
</event>
<event>
 6    1  0.2325157E-005  0.1832493E+04  0.7818608E-02  0.8689208E-01
          2   -1    0    0  501    0  0.00000000000E+00  0.00000000000E+00  0.45614694962E+03  0.45614694962E+03  0.00000000000E+00 0.  1.
         -2   -1    0    0    0  501 -0.00000000000E+00 -0.00000000000E+00 -0.18404326842E+04  0.18404326842E+04  0.00000000000E+00 0. -1.
         23    2    1    2    0    0  0.58468576478E+03 -0.47934261471E+03 -0.50107023091E+02  0.76306744933E+03  0.90191089635E+02 0.  0.
         11    1    3    3    0    0  0.99774630580E+02 -0.10650071555E+03  0.20337364010E+02  0.14734648857E+03  0.00000000000E+00 0.  1.
        -11    1    3    3    0    0  0.48491113420E+03 -0.37284189916E+03 -0.70444387101E+02  0.61572096076E+03  0.00000000000E+00 0. -1.
         22    1    1    2    0    0 -0.58468576478E+03  0.47934261471E+03 -0.13341787115E+04  0.15335121845E+04  0.00000000000E+00 0. -1.
<mgrwt>
<rscale>  0 0.18324931E+04</rscale>
<asrwt>0</asrwt>
<pdfrwt beam="1">  1        2 0.70176454E-01 0.18324931E+04</pdfrwt>
<pdfrwt beam="2">  1       -2 0.28314349E+00 0.18324931E+04</pdfrwt>
<totfact> 0.26004350E+00</totfact>
</mgrwt>
</event>
<event>
 6    1  0.2325157E-005  0.2206123E+04  0.7818608E-02  0.8515884E-01
          2   -1    0    0  501    0  0.00000000000E+00  0.00000000000E+00  0.15910927729E+04  0.15910927729E+04  0.00000000000E+00 0.  1.
         -2   -1    0    0    0  501 -0.00000000000E+00 -0.00000000000E+00 -0.76472246501E+03  0.76472246501E+03  0.00000000000E+00 0. -1.
         23    2    1    2    0    0 -0.80154608390E+03 -0.34356743934E+03 -0.30424046156E+03  0.92795130112E+03  0.89535740390E+02 0.  0.
         11    1    3    3    0    0 -0.54690579057E+03 -0.25078333225E+03 -0.16834120885E+03  0.62476954638E+03  0.00000000000E+00 0. -1.
        -11    1    3    3    0    0 -0.25464029333E+03 -0.92784107087E+02 -0.13589925271E+03  0.30318175473E+03  0.00000000000E+00 0.  1.
         22    1    1    2    0    0  0.80154608390E+03  0.34356743934E+03  0.11306107695E+04  0.14278639368E+04  0.00000000000E+00 0.  1.
<mgrwt>
<rscale>  0 0.22061227E+04</rscale>
<asrwt>0</asrwt>
<pdfrwt beam="1">  1        2 0.24478350E+00 0.22061227E+04</pdfrwt>
<pdfrwt beam="2">  1       -2 0.11764961E+00 0.22061227E+04</pdfrwt>
<totfact> 0.57479035E+00</totfact>
</mgrwt>
</event>
<event>
 6    1  0.2325157E-005  0.1312506E+04  0.7818608E-02  0.9019707E-01
          2   -1    0    0  501    0  0.00000000000E+00  0.00000000000E+00  0.33841873716E+03  0.33841873716E+03  0.00000000000E+00 0.  1.
         -2   -1    0    0    0  501 -0.00000000000E+00 -0.00000000000E+00 -0.12725882352E+04  0.12725882352E+04  0.00000000000E+00 0. -1.
         23    2    1    2    0    0 -0.51189683449E+03  0.17599464770E+03 -0.91785475140E+03  0.10694548916E+04  0.90906189857E+02 0.  0.
         11    1    3    3    0    0 -0.99215783217E+02  0.49679804419E+01 -0.21196723365E+03  0.23409092381E+03  0.00000000000E+00 0.  1.
        -11    1    3    3    0    0 -0.41268105127E+03  0.17102666726E+03 -0.70588751775E+03  0.83536396780E+03  0.00000000000E+00 0. -1.
         22    1    1    2    0    0  0.51189683449E+03 -0.17599464770E+03 -0.16314746623E+02  0.54155208073E+03  0.00000000000E+00 0. -1.
<mgrwt>
<rscale>  0 0.13125055E+04</rscale>
<asrwt>0</asrwt>
<pdfrwt beam="1">  1        2 0.52064421E-01 0.13125055E+04</pdfrwt>
<pdfrwt beam="2">  1       -2 0.19578280E+00 0.13125055E+04</pdfrwt>
<totfact> 0.13313924E+01</totfact>
</mgrwt>
</event>
<event>
 6    1  0.2325157E-005  0.2420603E+04  0.7818608E-02  0.8431830E-01
          2   -1    0    0  501    0  0.00000000000E+00  0.00000000000E+00  0.36596775009E+04  0.36596775009E+04  0.00000000000E+00 0.  1.
         -2   -1    0    0    0  501 -0.00000000000E+00 -0.00000000000E+00 -0.40026199117E+03  0.40026199117E+03  0.00000000000E+00 0. -1.
         23    2    1    2    0    0  0.24256913890E+03 -0.71703044167E+03  0.51840902976E+02  0.76425939544E+03  0.91828660389E+02 0.  0.
         11    1    3    3    0    0  0.28253710303E+02 -0.52070967534E+02 -0.18551244870E+02  0.62079034239E+02  0.00000000000E+00 0.  1.
        -11    1    3    3    0    0  0.21431542860E+03 -0.66495947413E+03  0.70392147846E+02  0.70218036120E+03  0.00000000000E+00 0. -1.
         22    1    1    2    0    0 -0.24256913890E+03  0.71703044167E+03  0.32075746068E+04  0.32956800967E+04  0.00000000000E+00 0.  1.
<mgrwt>
<rscale>  0 0.24206031E+04</rscale>
<asrwt>0</asrwt>
<pdfrwt beam="1">  1        2 0.56302729E+00 0.24206031E+04</pdfrwt>
<pdfrwt beam="2">  1       -2 0.61578770E-01 0.24206031E+04</pdfrwt>
<totfact> 0.13784822E+00</totfact>
</mgrwt>
</event>
<event>
 6    1  0.2325157E-005  0.1045056E+04  0.7818608E-02  0.9260464E-01
          4   -1    0    0  501    0  0.00000000000E+00  0.00000000000E+00  0.10758315429E+04  0.10758315429E+04  0.00000000000E+00 0.  1.
         -4   -1    0    0    0  501 -0.00000000000E+00 -0.00000000000E+00 -0.25379011451E+03  0.25379011451E+03  0.00000000000E+00 0. -1.
         23    2    1    2    0    0  0.35265940976E+01  0.35957387682E+03  0.88729522420E+03  0.96415774997E+03  0.11402430521E+03 0.  0.
         13    1    3    3    0    0 -0.52134520778E+02  0.21686023878E+03  0.56028286439E+03  0.60304498966E+03  0.00000000000E+00 0. -1.
        -13    1    3    3    0    0  0.55661114876E+02  0.14271363804E+03  0.32701235981E+03  0.36111276031E+03  0.00000000000E+00 0.  1.
         22    1    1    2    0    0 -0.35265940976E+01 -0.35957387682E+03 -0.65253795824E+02  0.36546390742E+03  0.00000000000E+00 0. -1.
<mgrwt>
<rscale>  0 0.10450558E+04</rscale>
<asrwt>0</asrwt>
<pdfrwt beam="1">  1        4 0.16551254E+00 0.10450558E+04</pdfrwt>
<pdfrwt beam="2">  1       -4 0.39044634E-01 0.10450558E+04</pdfrwt>
<totfact> 0.28944494E+00</totfact>
</mgrwt>
</event>
<event>
 6    1  0.2325157E-005  0.1341960E+04  0.7818608E-02  0.8996937E-01
         -2   -1    0    0    0  501 -0.00000000000E+00  0.00000000000E+00  0.89835643879E+03  0.89835643879E+03  0.00000000000E+00 0. -1.
          2   -1    0    0  501    0  0.00000000000E+00 -0.00000000000E+00 -0.50115306896E+03  0.50115306896E+03  0.00000000000E+00 0.  1.
         23    2    1    2    0    0  0.19803983271E+03 -0.72832806475E+02  0.86005217832E+03  0.89083140466E+03  0.96780416727E+02 0.  0.
         11    1    3    3    0    0  0.80267627460E+02  0.14225009085E+02  0.23120913772E+03  0.24515894491E+03  0.00000000000E+00 0.  1.
        -11    1    3    3    0    0  0.11777220525E+03 -0.87057815560E+02  0.62884304060E+03  0.64567245976E+03  0.00000000000E+00 0. -1.
         22    1    1    2    0    0 -0.19803983271E+03  0.72832806475E+02 -0.46284880849E+03  0.50867810309E+03  0.00000000000E+00 0.  1.
<mgrwt>
<rscale>  0 0.13419599E+04</rscale>
<asrwt>0</asrwt>
<pdfrwt beam="1">  1        2 0.77100473E-01 0.13419599E+04</pdfrwt>
<pdfrwt beam="2">  1       -2 0.13820868E+00 0.13419599E+04</pdfrwt>
<totfact> 0.22274863E+01</totfact>
</mgrwt>
</event>
<event>
 6    1  0.2325157E-005  0.4410937E+04  0.7818608E-02  0.7926417E-01
          2   -1    0    0  501    0  0.00000000000E+00  0.00000000000E+00  0.20054220723E+04  0.20054220723E+04  0.00000000000E+00 0.  1.
         -2   -1    0    0    0  501 -0.00000000000E+00 -0.00000000000E+00 -0.24254701600E+04  0.24254701600E+04  0.00000000000E+00 0. -1.
         23    2    1    2    0    0 -0.74835073108E+03 -0.61842735167E+03 -0.21982885020E+04  0.24049060090E+04  0.92840549938E+02 0.  0.
         11    1    3    3    0    0 -0.27016767222E+03 -0.26306898813E+03 -0.77133290822E+03  0.85857458554E+03  0.00000000000E+00 0. -1.
        -11    1    3    3    0    0 -0.47818305885E+03 -0.35535836354E+03 -0.14269555938E+04  0.15463314234E+04  0.00000000000E+00 0.  1.
         22    1    1    2    0    0  0.74835073108E+03  0.61842735167E+03  0.17782404144E+04  0.20259862234E+04  0.00000000000E+00 0.  1.
<mgrwt>
<rscale>  0 0.44109370E+04</rscale>
<asrwt>0</asrwt>
<pdfrwt beam="1">  1        2 0.30852647E+00 0.44109370E+04</pdfrwt>
<pdfrwt beam="2">  1       -2 0.37314926E+00 0.44109370E+04</pdfrwt>
<totfact> 0.56112393E-02</totfact>
</mgrwt>
</event>
<event>
 6    1  0.2325157E-005  0.3839410E+04  0.7818608E-02  0.8037750E-01
          1   -1    0    0  501    0  0.00000000000E+00  0.00000000000E+00  0.21408790692E+04  0.21408790692E+04  0.00000000000E+00 0.  1.
         -1   -1    0    0    0  501 -0.00000000000E+00 -0.00000000000E+00 -0.17213804131E+04  0.17213804131E+04  0.00000000000E+00 0. -1.
         23    2    1    2    0    0 -0.18775203373E+04  0.11656498955E+03 -0.17022176272E+03  0.18908538452E+04  0.87651591992E+02 0.  0.
         11    1    3    3    0    0 -0.17535531106E+03 -0.57495411143E+01  0.34670014925E+01  0.17548379537E+03  0.00000000000E+00 0.  1.
        -11    1    3    3    0    0 -0.17021650262E+04  0.12231453066E+03 -0.17368876422E+03  0.17153700498E+04  0.00000000000E+00 0. -1.
         22    1    1    2    0    0  0.18775203373E+04 -0.11656498955E+03  0.58972041888E+03  0.19714056371E+04  0.00000000000E+00 0.  1.
<mgrwt>
<rscale>  0 0.38394100E+04</rscale>
<asrwt>0</asrwt>
<pdfrwt beam="1">  1        1 0.32936601E+00 0.38394100E+04</pdfrwt>
<pdfrwt beam="2">  1       -1 0.26482776E+00 0.38394100E+04</pdfrwt>
<totfact> 0.10582858E-01</totfact>
</mgrwt>
</event>
<event>
 6    1  0.2325157E-005  0.4424423E+04  0.7818608E-02  0.7924003E-01
         -2   -1    0    0    0  501 -0.00000000000E+00  0.00000000000E+00  0.23068482342E+04  0.23068482342E+04  0.00000000000E+00 0. -1.
          2   -1    0    0  501    0  0.00000000000E+00 -0.00000000000E+00 -0.21214573981E+04  0.21214573981E+04  0.00000000000E+00 0.  1.
         23    2    1    2    0    0  0.21727531455E+04  0.11616760173E+03  0.48721446055E+03  0.22316152482E+04  0.91528916665E+02 0.  0.
         13    1    3    3    0    0  0.40626003600E+03  0.35358655211E+02  0.12538236627E+03  0.42663589760E+03  0.00000000000E+00 0. -1.
        -13    1    3    3    0    0  0.17664931095E+04  0.80808946519E+02  0.36183209428E+03  0.18049793506E+04  0.00000000000E+00 0.  1.
         22    1    1    2    0    0 -0.21727531455E+04 -0.11616760173E+03 -0.30182362447E+03  0.21966903840E+04  0.00000000000E+00 0.  1.
<mgrwt>
<rscale>  0 0.44244232E+04</rscale>
<asrwt>0</asrwt>
<pdfrwt beam="1">  1        2 0.32637806E+00 0.44244232E+04</pdfrwt>
<pdfrwt beam="2">  1       -2 0.35489973E+00 0.44244232E+04</pdfrwt>
<totfact> 0.63123171E-02</totfact>
</mgrwt>
</event>
<event>
 6    1  0.2325157E-005  0.2407289E+04  0.7818608E-02  0.8436780E-01
          2   -1    0    0  501    0  0.00000000000E+00  0.00000000000E+00  0.14637567942E+04  0.14637567942E+04  0.00000000000E+00 0.  1.
         -2   -1    0    0    0  501 -0.00000000000E+00 -0.00000000000E+00 -0.98975492998E+03  0.98975492998E+03  0.00000000000E+00 0. -1.
         23    2    1    2    0    0 -0.49609881249E+03 -0.79419726201E+03 -0.53068324312E+03  0.10801015569E+04  0.90173975861E+02 0.  0.
         11    1    3    3    0    0 -0.14171518816E+03 -0.15609202092E+03 -0.11724999890E+03  0.24123738473E+03  0.00000000000E+00 0.  1.
        -11    1    3    3    0    0 -0.35438362433E+03 -0.63810524109E+03 -0.41343324423E+03  0.83886417216E+03  0.00000000000E+00 0. -1.
         22    1    1    2    0    0  0.49609881249E+03  0.79419726201E+03  0.10046851074E+04  0.13734101673E+04  0.00000000000E+00 0.  1.
<mgrwt>
<rscale>  0 0.24072893E+04</rscale>
<asrwt>0</asrwt>
<pdfrwt beam="1">  1        2 0.22519335E+00 0.24072893E+04</pdfrwt>
<pdfrwt beam="2">  1       -2 0.15226999E+00 0.24072893E+04</pdfrwt>
<totfact> 0.34436917E+00</totfact>
</mgrwt>
</event>
<event>
 6    1  0.2325157E-005  0.4383611E+04  0.7818608E-02  0.7931336E-01
         -2   -1    0    0    0  501 -0.00000000000E+00  0.00000000000E+00  0.16141011094E+04  0.16141011094E+04  0.00000000000E+00 0. -1.
          2   -1    0    0  501    0  0.00000000000E+00 -0.00000000000E+00 -0.29762767859E+04  0.29762767859E+04  0.00000000000E+00 0.  1.
         23    2    1    2    0    0 -0.82814505162E+03 -0.98608546341E+02 -0.28028566781E+04  0.29257128779E+04  0.90787742032E+02 0.  0.
         11    1    3    3    0    0 -0.51186685240E+03 -0.47892554177E+02 -0.15761715120E+04  0.16578956562E+04  0.00000000000E+00 0.  1.
        -11    1    3    3    0    0 -0.31627819922E+03 -0.50715992164E+02 -0.12266851661E+04  0.12678172218E+04  0.00000000000E+00 0. -1.
         22    1    1    2    0    0  0.82814505162E+03  0.98608546341E+02  0.14406810016E+04  0.16646650174E+04  0.00000000000E+00 0. -1.
<mgrwt>
<rscale>  0 0.43836111E+04</rscale>
<asrwt>0</asrwt>
<pdfrwt beam="1">  1        2 0.45788873E+00 0.43836111E+04</pdfrwt>
<pdfrwt beam="2">  1       -2 0.24832325E+00 0.43836111E+04</pdfrwt>
<totfact> 0.90641602E-02</totfact>
</mgrwt>
</event>
<event>
 6    1  0.2325157E-005  0.2431710E+04  0.7818608E-02  0.8427726E-01
         -2   -1    0    0    0  501 -0.00000000000E+00  0.00000000000E+00  0.11966754875E+04  0.11966754875E+04  0.00000000000E+00 0. -1.
          2   -1    0    0  501    0  0.00000000000E+00 -0.00000000000E+00 -0.12353419936E+04  0.12353419936E+04  0.00000000000E+00 0.  1.
         23    2    1    2    0    0 -0.10641837655E+04  0.46897290009E+03 -0.36821447799E+03  0.12232890031E+04  0.91822740300E+02 0.  0.
         13    1    3    3    0    0 -0.16123134463E+03  0.41342227424E+02 -0.34954367921E+02  0.17007802356E+03  0.00000000000E+00 0.  1.
        -13    1    3    3    0    0 -0.90295242083E+03  0.42763067267E+03 -0.33326011007E+03  0.10532109796E+04  0.00000000000E+00 0. -1.
         22    1    1    2    0    0  0.10641837655E+04 -0.46897290009E+03  0.32954797190E+03  0.12087284780E+04  0.00000000000E+00 0.  1.
<mgrwt>
<rscale>  0 0.24317101E+04</rscale>
<asrwt>0</asrwt>
<pdfrwt beam="1">  1        2 0.19005261E+00 0.24317101E+04</pdfrwt>
<pdfrwt beam="2">  1       -2 0.18410392E+00 0.24317101E+04</pdfrwt>
<totfact> 0.27501588E+00</totfact>
</mgrwt>
</event>
<event>
 6    1  0.2325157E-005  0.2183973E+04  0.7818608E-02  0.8525129E-01
         -1   -1    0    0    0  501 -0.00000000000E+00  0.00000000000E+00  0.10073601832E+04  0.10073601832E+04  0.00000000000E+00 0. -1.
          1   -1    0    0  501    0  0.00000000000E+00 -0.00000000000E+00 -0.11837222039E+04  0.11837222039E+04  0.00000000000E+00 0.  1.
         23    2    1    2    0    0 -0.60253394744E+03 -0.81540076280E+03  0.31344558931E+03  0.10650996801E+04  0.90904506008E+02 0.  0.
         11    1    3    3    0    0 -0.47326158883E+03 -0.57653156630E+03  0.21603843720E+03  0.77655507516E+03  0.00000000000E+00 0.  1.
        -11    1    3    3    0    0 -0.12927235862E+03 -0.23886919650E+03  0.97407152118E+02  0.28854460491E+03  0.00000000000E+00 0. -1.
         22    1    1    2    0    0  0.60253394744E+03  0.81540076280E+03 -0.48980761001E+03  0.11259827071E+04  0.00000000000E+00 0.  1.
<mgrwt>
<rscale>  0 0.21839731E+04</rscale>
<asrwt>0</asrwt>
<pdfrwt beam="1">  1        1 0.18211111E+00 0.21839731E+04</pdfrwt>
<pdfrwt beam="2">  1       -1 0.15497849E+00 0.21839731E+04</pdfrwt>
<totfact> 0.32016871E+00</totfact>
</mgrwt>
</event>
<event>
 6    1  0.2325157E-005  0.2741152E+04  0.7818608E-02  0.8321775E-01
          2   -1    0    0  501    0  0.00000000000E+00  0.00000000000E+00  0.17002597866E+04  0.17002597866E+04  0.00000000000E+00 0. -1.
         -2   -1    0    0    0  501 -0.00000000000E+00 -0.00000000000E+00 -0.11048184425E+04  0.11048184425E+04  0.00000000000E+00 0.  1.
         23    2    1    2    0    0  0.49834583528E+02 -0.87241957996E+03  0.13765534500E+04  0.16330135845E+04  0.90744461739E+02 0.  0.
         13    1    3    3    0    0  0.38643649397E+02 -0.43156345405E+03  0.60203023692E+03  0.74174170213E+03  0.00000000000E+00 0. -1.
        -13    1    3    3    0    0  0.11190934131E+02 -0.44085612591E+03  0.77452321306E+03  0.89127188239E+03  0.00000000000E+00 0.  1.
         22    1    1    2    0    0 -0.49834583528E+02  0.87241957996E+03 -0.78111210592E+03  0.11720646446E+04  0.00000000000E+00 0.  1.
<mgrwt>
<rscale>  0 0.27411519E+04</rscale>
<asrwt>0</asrwt>
<pdfrwt beam="1">  1        2 0.26157843E+00 0.27411519E+04</pdfrwt>
<pdfrwt beam="2">  1       -2 0.16997207E+00 0.27411519E+04</pdfrwt>
<totfact> 0.18280732E+00</totfact>
</mgrwt>
</event>
<event>
 6    1  0.2325157E-005  0.3121418E+04  0.7818608E-02  0.8209884E-01
         -2   -1    0    0    0  501 -0.00000000000E+00  0.00000000000E+00  0.14514643031E+04  0.14514643031E+04  0.00000000000E+00 0. -1.
          2   -1    0    0  501    0  0.00000000000E+00 -0.00000000000E+00 -0.16781763550E+04  0.16781763550E+04  0.00000000000E+00 0.  1.
         23    2    1    2    0    0  0.13422034409E+03 -0.11892622465E+04  0.88811933316E+03  0.14940341013E+04  0.10498644785E+03 0.  0.
         13    1    3    3    0    0  0.12906879504E+03 -0.69813842948E+03  0.50882405481E+03  0.87347463577E+03  0.00000000000E+00 0.  1.
        -13    1    3    3    0    0  0.51515490481E+01 -0.49112381701E+03  0.37929527835E+03  0.62055946554E+03  0.00000000000E+00 0. -1.
         22    1    1    2    0    0 -0.13422034409E+03  0.11892622465E+04 -0.11148313850E+04  0.16356065568E+04  0.00000000000E+00 0.  1.
<mgrwt>
<rscale>  0 0.31214183E+04</rscale>
<asrwt>0</asrwt>
<pdfrwt beam="1">  1        2 0.25818098E+00 0.31214183E+04</pdfrwt>
<pdfrwt beam="2">  1       -2 0.22330220E+00 0.31214183E+04</pdfrwt>
<totfact> 0.80520050E-01</totfact>
</mgrwt>
</event>
<event>
 6    1  0.2325157E-005  0.1093752E+04  0.7818608E-02  0.9211303E-01
          2   -1    0    0  501    0  0.00000000000E+00  0.00000000000E+00  0.92398094150E+03  0.92398094150E+03  0.00000000000E+00 0.  1.
         -2   -1    0    0    0  501 -0.00000000000E+00 -0.00000000000E+00 -0.32367896879E+03  0.32367896879E+03  0.00000000000E+00 0. -1.
         23    2    1    2    0    0  0.17761740922E+03  0.49168091233E+03  0.46995495209E+03  0.70887571472E+03  0.91373181583E+02 0.  0.
         11    1    3    3    0    0  0.18061030811E+02  0.44168213216E+02  0.84629864297E+02  0.97155781215E+02  0.00000000000E+00 0. -1.
        -11    1    3    3    0    0  0.15955637841E+03  0.44751269912E+03  0.38532508779E+03  0.61171993350E+03  0.00000000000E+00 0.  1.
         22    1    1    2    0    0 -0.17761740922E+03 -0.49168091233E+03  0.13034702062E+03  0.53878419557E+03  0.00000000000E+00 0. -1.
<mgrwt>
<rscale>  0 0.10937517E+04</rscale>
<asrwt>0</asrwt>
<pdfrwt beam="1">  1        2 0.14215091E+00 0.10937517E+04</pdfrwt>
<pdfrwt beam="2">  1       -2 0.49796765E-01 0.10937517E+04</pdfrwt>
<totfact> 0.10705889E+02</totfact>
</mgrwt>
</event>
<event>
 6    1  0.2325157E-005  0.4670834E+04  0.7818608E-02  0.7881393E-01
          2   -1    0    0  501    0  0.00000000000E+00  0.00000000000E+00  0.27308867014E+04  0.27308867014E+04  0.00000000000E+00 0.  1.
         -2   -1    0    0    0  501 -0.00000000000E+00 -0.00000000000E+00 -0.19972163427E+04  0.19972163427E+04  0.00000000000E+00 0. -1.
         23    2    1    2    0    0  0.11004710307E+04  0.64074308066E+03  0.23475881132E+04  0.26723018127E+04  0.91863181164E+02 0.  0.
         13    1    3    3    0    0  0.63513360397E+03  0.40999364528E+03  0.14513818666E+04  0.16364592286E+04  0.00000000000E+00 0. -1.
        -13    1    3    3    0    0  0.46533742672E+03  0.23074943538E+03  0.89620624656E+03  0.10358425841E+04  0.00000000000E+00 0.  1.
         22    1    1    2    0    0 -0.11004710307E+04 -0.64074308066E+03 -0.16139177545E+04  0.20558012314E+04  0.00000000000E+00 0. -1.
<mgrwt>
<rscale>  0 0.46708336E+04</rscale>
<asrwt>0</asrwt>
<pdfrwt beam="1">  1        2 0.42013641E+00 0.46708336E+04</pdfrwt>
<pdfrwt beam="2">  1       -2 0.30726405E+00 0.46708336E+04</pdfrwt>
<totfact> 0.54550308E-02</totfact>
</mgrwt>
</event>
<event>
 6    1  0.2325157E-005  0.1776045E+04  0.7818608E-02  0.8719143E-01
          2   -1    0    0  501    0  0.00000000000E+00  0.00000000000E+00  0.18726955312E+04  0.18726955312E+04  0.00000000000E+00 0.  1.
         -2   -1    0    0    0  501 -0.00000000000E+00 -0.00000000000E+00 -0.42109566380E+03  0.42109566380E+03  0.00000000000E+00 0. -1.
         23    2    1    2    0    0 -0.31750984290E+03  0.36535106829E+03  0.16856400181E+04  0.17561401040E+04  0.91388680207E+02 0.  0.
         11    1    3    3    0    0 -0.65513632812E+02  0.28761370345E+02  0.21664364843E+03  0.22815284989E+03  0.00000000000E+00 0. -1.
        -11    1    3    3    0    0 -0.25199621009E+03  0.33658969794E+03  0.14689963697E+04  0.15279872541E+04  0.00000000000E+00 0.  1.
         22    1    1    2    0    0  0.31750984290E+03 -0.36535106829E+03 -0.23404015075E+03  0.53765109095E+03  0.00000000000E+00 0. -1.
<mgrwt>
<rscale>  0 0.17760450E+04</rscale>
<asrwt>0</asrwt>
<pdfrwt beam="1">  1        2 0.28810700E+00 0.17760450E+04</pdfrwt>
<pdfrwt beam="2">  1       -2 0.64783950E-01 0.17760450E+04</pdfrwt>
<totfact> 0.16352666E+01</totfact>
</mgrwt>
</event>
<event>
 6    1  0.2325157E-005  0.3396103E+04  0.7818608E-02  0.8138864E-01
         -2   -1    0    0    0  501 -0.00000000000E+00  0.00000000000E+00  0.12883641360E+04  0.12883641360E+04  0.00000000000E+00 0. -1.
          2   -1    0    0  501    0  0.00000000000E+00 -0.00000000000E+00 -0.22380149422E+04  0.22380149422E+04  0.00000000000E+00 0.  1.
         23    2    1    2    0    0 -0.11897486896E+04  0.94644536506E+02 -0.17275222760E+04  0.21017585827E+04  0.92716736141E+02 0.  0.
         13    1    3    3    0    0 -0.81877103462E+03  0.93173643111E+02 -0.12472480213E+04  0.14948896152E+04  0.00000000000E+00 0. -1.
        -13    1    3    3    0    0 -0.37097765493E+03  0.14708933955E+01 -0.48027425472E+03  0.60686896752E+03  0.00000000000E+00 0.  1.
         22    1    1    2    0    0  0.11897486896E+04 -0.94644536506E+02  0.77787146990E+03  0.14246204955E+04  0.00000000000E+00 0. -1.
<mgrwt>
<rscale>  0 0.33961026E+04</rscale>
<asrwt>0</asrwt>
<pdfrwt beam="1">  1        2 0.34430999E+00 0.33961026E+04</pdfrwt>
<pdfrwt beam="2">  1       -2 0.19820987E+00 0.33961026E+04</pdfrwt>
<totfact> 0.55664637E-01</totfact>
</mgrwt>
</event>
<event>
 6    1  0.2325157E-005  0.1609140E+04  0.7818608E-02  0.8814952E-01
          2   -1    0    0  501    0  0.00000000000E+00  0.00000000000E+00  0.18740632454E+04  0.18740632454E+04  0.00000000000E+00 0.  1.
         -2   -1    0    0    0  501 -0.00000000000E+00 -0.00000000000E+00 -0.34541694637E+03  0.34541694637E+03  0.00000000000E+00 0. -1.
         23    2    1    2    0    0  0.92934964868E+02 -0.54282591087E+03  0.15709082418E+04  0.16671370475E+04  0.91084321867E+02 0.  0.
         13    1    3    3    0    0  0.45388197260E+02 -0.46346632514E+03  0.13140473200E+04  0.13941239121E+04  0.00000000000E+00 0.  1.
        -13    1    3    3    0    0  0.47546767608E+02 -0.79359585734E+02  0.25686092183E+03  0.27301313543E+03  0.00000000000E+00 0. -1.
         22    1    1    2    0    0 -0.92934964868E+02  0.54282591087E+03 -0.42261942813E+02  0.55234314427E+03  0.00000000000E+00 0. -1.
<mgrwt>
<rscale>  0 0.16091404E+04</rscale>
<asrwt>0</asrwt>
<pdfrwt beam="1">  1        2 0.28831742E+00 0.16091404E+04</pdfrwt>
<pdfrwt beam="2">  1       -2 0.53141070E-01 0.16091404E+04</pdfrwt>
<totfact> 0.25114478E+01</totfact>
</mgrwt>
</event>
<event>
 6    1  0.2325157E-005  0.1597713E+04  0.7818608E-02  0.8821954E-01
         -2   -1    0    0    0  501 -0.00000000000E+00  0.00000000000E+00  0.57345154134E+03  0.57345154134E+03  0.00000000000E+00 0. -1.
          2   -1    0    0  501    0  0.00000000000E+00 -0.00000000000E+00 -0.11128601902E+04  0.11128601902E+04  0.00000000000E+00 0.  1.
         23    2    1    2    0    0 -0.11314642325E+03  0.22308480850E+03  0.52681751005E+03  0.59113724004E+03  0.96631272299E+02 0.  0.
         11    1    3    3    0    0 -0.72676083583E+02  0.45019379195E+02  0.16233474223E+03  0.18346968731E+03  0.00000000000E+00 0. -1.
        -11    1    3    3    0    0 -0.40470339669E+02  0.17806542930E+03  0.36448276782E+03  0.40766755273E+03  0.00000000000E+00 0.  1.
         22    1    1    2    0    0  0.11314642325E+03 -0.22308480850E+03 -0.10662261589E+04  0.10951744915E+04  0.00000000000E+00 0.  1.
<mgrwt>
<rscale>  0 0.15977126E+04</rscale>
<asrwt>0</asrwt>
<pdfrwt beam="1">  1        2 0.17120926E+00 0.15977126E+04</pdfrwt>
<pdfrwt beam="2">  1       -2 0.88223316E-01 0.15977126E+04</pdfrwt>
<totfact> 0.22706378E+01</totfact>
</mgrwt>
</event>
<event>
 6    1  0.2325157E-005  0.5541869E+04  0.7818608E-02  0.7749954E-01
          2   -1    0    0  501    0  0.00000000000E+00  0.00000000000E+00  0.40707167254E+04  0.40707167254E+04  0.00000000000E+00 0.  1.
         -2   -1    0    0    0  501 -0.00000000000E+00 -0.00000000000E+00 -0.18861737785E+04  0.18861737785E+04  0.00000000000E+00 0. -1.
         23    2    1    2    0    0 -0.23139538758E+04 -0.10818338200E+04  0.22448564016E+04  0.34018201201E+04  0.90845538182E+02 0.  0.
         13    1    3    3    0    0 -0.13445652766E+04 -0.58226438821E+03  0.12656793521E+04  0.19361900277E+04  0.00000000000E+00 0.  1.
        -13    1    3    3    0    0 -0.96938859920E+03 -0.49956943178E+03  0.97917704952E+03  0.14656300924E+04  0.00000000000E+00 0. -1.
         22    1    1    2    0    0  0.23139538758E+04  0.10818338200E+04 -0.60313454719E+02  0.25550703838E+04  0.00000000000E+00 0. -1.
<mgrwt>
<rscale>  0 0.55418694E+04</rscale>
<asrwt>0</asrwt>
<pdfrwt beam="1">  1        2 0.62626411E+00 0.55418694E+04</pdfrwt>
<pdfrwt beam="2">  1       -2 0.29018058E+00 0.55418694E+04</pdfrwt>
<totfact> 0.75771275E-03</totfact>
</mgrwt>
</event>
<event>
 6    1  0.2325157E-005  0.2064748E+04  0.7818608E-02  0.8576933E-01
         -2   -1    0    0    0  501 -0.00000000000E+00  0.00000000000E+00  0.10444546494E+04  0.10444546494E+04  0.00000000000E+00 0. -1.
          2   -1    0    0  501    0  0.00000000000E+00 -0.00000000000E+00 -0.10204326899E+04  0.10204326899E+04  0.00000000000E+00 0.  1.
         23    2    1    2    0    0 -0.91248547303E+03  0.16113767320E+03 -0.43854692745E+03  0.10292401681E+04  0.91743271381E+02 0.  0.
         11    1    3    3    0    0 -0.50347345123E+03  0.58158712121E+02 -0.27704837011E+03  0.57760172374E+03  0.00000000000E+00 0.  1.
        -11    1    3    3    0    0 -0.40901202180E+03  0.10297896108E+03 -0.16149855735E+03  0.45163844436E+03  0.00000000000E+00 0. -1.
         22    1    1    2    0    0  0.91248547303E+03 -0.16113767320E+03  0.46256888693E+03  0.10356471713E+04  0.00000000000E+00 0. -1.
<mgrwt>
<rscale>  0 0.20647476E+04</rscale>
<asrwt>0</asrwt>
<pdfrwt beam="1">  1        2 0.15698965E+00 0.20647476E+04</pdfrwt>
<pdfrwt beam="2">  1       -2 0.16068533E+00 0.20647476E+04</pdfrwt>
<totfact> 0.56230295E+00</totfact>
</mgrwt>
</event>
<event>
 6    1  0.2325157E-005  0.2478292E+04  0.7818608E-02  0.8410760E-01
          2   -1    0    0  501    0  0.00000000000E+00  0.00000000000E+00  0.18386524281E+04  0.18386524281E+04  0.00000000000E+00 0.  1.
         -2   -1    0    0    0  501 -0.00000000000E+00 -0.00000000000E+00 -0.83511314821E+03  0.83511314821E+03  0.00000000000E+00 0. -1.
         23    2    1    2    0    0  0.11390758873E+04  0.36156352316E+03  0.84897369903E+03  0.14687292378E+04  0.90483003879E+02 0.  0.
         13    1    3    3    0    0  0.90409292334E+03  0.27157116641E+03  0.62761089781E+03  0.11335917923E+04  0.00000000000E+00 0. -1.
        -13    1    3    3    0    0  0.23498296397E+03  0.89992356748E+02  0.22136280122E+03  0.33513744552E+03  0.00000000000E+00 0.  1.
         22    1    1    2    0    0 -0.11390758873E+04 -0.36156352316E+03  0.15456558086E+03  0.12050363385E+04  0.00000000000E+00 0. -1.
<mgrwt>
<rscale>  0 0.24782920E+04</rscale>
<asrwt>0</asrwt>
<pdfrwt beam="1">  1        2 0.28286960E+00 0.24782920E+04</pdfrwt>
<pdfrwt beam="2">  1       -2 0.12847895E+00 0.24782920E+04</pdfrwt>
<totfact> 0.32835367E+00</totfact>
</mgrwt>
</event>
<event>
 6    1  0.2325157E-005  0.1135471E+04  0.7818608E-02  0.9171293E-01
          2   -1    0    0  501    0  0.00000000000E+00  0.00000000000E+00  0.76907453815E+03  0.76907453815E+03  0.00000000000E+00 0.  1.
         -2   -1    0    0    0  501 -0.00000000000E+00 -0.00000000000E+00 -0.41910543932E+03  0.41910543932E+03  0.00000000000E+00 0. -1.
         23    2    1    2    0    0  0.11469192605E+03  0.32865294837E+03  0.64050237966E+03  0.73477443533E+03  0.92104148044E+02 0.  0.
         13    1    3    3    0    0  0.64201740832E+02  0.28420880080E+03  0.49313316470E+03  0.57277990896E+03  0.00000000000E+00 0. -1.
        -13    1    3    3    0    0  0.50490185215E+02  0.44444147578E+02  0.14736921496E+03  0.16199452637E+03  0.00000000000E+00 0.  1.
         22    1    1    2    0    0 -0.11469192605E+03 -0.32865294837E+03 -0.29053328083E+03  0.45340554214E+03  0.00000000000E+00 0. -1.
<mgrwt>
<rscale>  0 0.11354705E+04</rscale>
<asrwt>0</asrwt>
<pdfrwt beam="1">  1        2 0.11831916E+00 0.11354705E+04</pdfrwt>
<pdfrwt beam="2">  1       -2 0.64477760E-01 0.11354705E+04</pdfrwt>
<totfact> 0.79903530E+01</totfact>
</mgrwt>
</event>
<event>
 6    1  0.2325157E-005  0.1359460E+04  0.7818608E-02  0.8983697E-01
         -2   -1    0    0    0  501 -0.00000000000E+00  0.00000000000E+00  0.10245378733E+04  0.10245378733E+04  0.00000000000E+00 0. -1.
          2   -1    0    0  501    0  0.00000000000E+00 -0.00000000000E+00 -0.45096734008E+03  0.45096734008E+03  0.00000000000E+00 0.  1.
         23    2    1    2    0    0  0.29494334733E+03 -0.17100645704E+02  0.94881873892E+03  0.99791205370E+03  0.91035473255E+02 0.  0.
         13    1    3    3    0    0  0.12150806215E+03 -0.37286732008E+02  0.51077559872E+03  0.52635180421E+03  0.00000000000E+00 0. -1.
        -13    1    3    3    0    0  0.17343528518E+03  0.20186086304E+02  0.43804314020E+03  0.47156024949E+03  0.00000000000E+00 0.  1.
         22    1    1    2    0    0 -0.29494334733E+03  0.17100645704E+02 -0.37524820574E+03  0.47759315963E+03  0.00000000000E+00 0.  1.
<mgrwt>
<rscale>  0 0.13594604E+04</rscale>
<asrwt>0</asrwt>
<pdfrwt beam="1">  1        2 0.69379591E-01 0.13594604E+04</pdfrwt>
<pdfrwt beam="2">  1       -2 0.15762121E+00 0.13594604E+04</pdfrwt>
<totfact> 0.17748440E+01</totfact>
</mgrwt>
</event>
<event>
 6    1  0.2325157E-005  0.1788235E+04  0.7818608E-02  0.8712581E-01
          2   -1    0    0  501    0  0.00000000000E+00  0.00000000000E+00  0.18904710483E+04  0.18904710483E+04  0.00000000000E+00 0.  1.
         -2   -1    0    0    0  501 -0.00000000000E+00 -0.00000000000E+00 -0.42288195153E+03  0.42288195153E+03  0.00000000000E+00 0. -1.
         23    2    1    2    0    0  0.17147852509E+03 -0.72264202435E+03  0.13743371842E+04  0.15648128880E+04  0.90665861478E+02 0.  0.
         13    1    3    3    0    0  0.12376035534E+03 -0.42696048218E+03  0.73860260238E+03  0.86205897892E+03  0.00000000000E+00 0.  1.
        -13    1    3    3    0    0  0.47718169751E+02 -0.29568154216E+03  0.63573458186E+03  0.70275390904E+03  0.00000000000E+00 0. -1.
         22    1    1    2    0    0 -0.17147852509E+03  0.72264202435E+03  0.93251912549E+02  0.74854011189E+03  0.00000000000E+00 0. -1.
<mgrwt>
<rscale>  0 0.17882350E+04</rscale>
<asrwt>0</asrwt>
<pdfrwt beam="1">  1        2 0.29084170E+00 0.17882350E+04</pdfrwt>
<pdfrwt beam="2">  1       -2 0.65058763E-01 0.17882350E+04</pdfrwt>
<totfact> 0.15825078E+01</totfact>
</mgrwt>
</event>
<event>
 6    1  0.2606484E-005  0.3458278E+04  0.7818608E-02  0.8123749E-01
          2   -1    0    0  501    0  0.00000000000E+00  0.00000000000E+00  0.25156338498E+04  0.25156338498E+04  0.00000000000E+00 0.  1.
         -2   -1    0    0    0  501 -0.00000000000E+00 -0.00000000000E+00 -0.11885362778E+04  0.11885362778E+04  0.00000000000E+00 0. -1.
         23    2    1    2    0    0  0.85529316893E+03 -0.90542178419E+03  0.19469134121E+04  0.23129524280E+04  0.89230531576E+02 0.  0.
         11    1    3    3    0    0  0.30591779549E+03 -0.37551415059E+03  0.80275684328E+03  0.93755806451E+03  0.00000000000E+00 0.  1.
        -11    1    3    3    0    0  0.54937537343E+03 -0.52990763360E+03  0.11441565688E+04  0.13753943635E+04  0.00000000000E+00 0. -1.
         22    1    1    2    0    0 -0.85529316893E+03  0.90542178419E+03 -0.61981584007E+03  0.13912176996E+04  0.00000000000E+00 0. -1.
<mgrwt>
<rscale>  0 0.34582782E+04</rscale>
<asrwt>0</asrwt>
<pdfrwt beam="1">  1        2 0.38702059E+00 0.34582782E+04</pdfrwt>
<pdfrwt beam="2">  1       -2 0.18285174E+00 0.34582782E+04</pdfrwt>
<totfact> 0.48708653E-01</totfact>
</mgrwt>
</event>
<event>
 6    1  0.2325157E-005  0.6713877E+04  0.7818608E-02  0.7607685E-01
          2   -1    0    0  501    0  0.00000000000E+00  0.00000000000E+00  0.37203636762E+04  0.37203636762E+04  0.00000000000E+00 0.  1.
         -2   -1    0    0    0  501 -0.00000000000E+00 -0.00000000000E+00 -0.30290145401E+04  0.30290145401E+04  0.00000000000E+00 0. -1.
         23    2    1    2    0    0  0.23402543779E+04  0.37254288093E+03 -0.20436770318E+04  0.31305459613E+04  0.90130208961E+02 0.  0.
         11    1    3    3    0    0  0.17976263204E+04  0.24785216099E+03 -0.15569437609E+04  0.23910175566E+04  0.00000000000E+00 0.  1.
        -11    1    3    3    0    0  0.54262805743E+03  0.12469071994E+03 -0.48673327085E+03  0.73952840467E+03  0.00000000000E+00 0. -1.
         22    1    1    2    0    0 -0.23402543779E+04 -0.37254288093E+03  0.27350261679E+04  0.36188322550E+04  0.00000000000E+00 0.  1.
<mgrwt>
<rscale>  0 0.67138769E+04</rscale>
<asrwt>0</asrwt>
<pdfrwt beam="1">  1        2 0.57236365E+00 0.67138769E+04</pdfrwt>
<pdfrwt beam="2">  1       -2 0.46600223E+00 0.67138769E+04</pdfrwt>
<totfact> 0.98274293E-04</totfact>
</mgrwt>
</event>
<event>
 6    1  0.2325157E-005  0.5036307E+04  0.7818608E-02  0.7822931E-01
         -2   -1    0    0    0  501 -0.00000000000E+00  0.00000000000E+00  0.24924492352E+04  0.24924492352E+04  0.00000000000E+00 0. -1.
          2   -1    0    0  501    0  0.00000000000E+00 -0.00000000000E+00 -0.25441230174E+04  0.25441230174E+04  0.00000000000E+00 0.  1.
         23    2    1    2    0    0  0.95104334257E+03  0.14719605598E+04 -0.18331001954E+04  0.25376462043E+04  0.90777764706E+02 0.  0.
         13    1    3    3    0    0  0.73148012203E+03  0.11952373001E+04 -0.14816331248E+04  0.20393361883E+04  0.00000000000E+00 0.  1.
        -13    1    3    3    0    0  0.21956322054E+03  0.27672325970E+03 -0.35146707061E+03  0.49831001595E+03  0.00000000000E+00 0. -1.
         22    1    1    2    0    0 -0.95104334257E+03 -0.14719605598E+04  0.17814264132E+04  0.24989260483E+04  0.00000000000E+00 0. -1.
<mgrwt>
<rscale>  0 0.50363072E+04</rscale>
<asrwt>0</asrwt>
<pdfrwt beam="1">  1        2 0.39140354E+00 0.50363072E+04</pdfrwt>
<pdfrwt beam="2">  1       -2 0.38345372E+00 0.50363072E+04</pdfrwt>
<totfact> 0.22663891E-02</totfact>
</mgrwt>
</event>
<event>
 6    1  0.2325157E-005  0.4029144E+04  0.7818608E-02  0.7998693E-01
         -2   -1    0    0    0  501 -0.00000000000E+00  0.00000000000E+00  0.17350536085E+04  0.17350536085E+04  0.00000000000E+00 0. -1.
          2   -1    0    0  501    0  0.00000000000E+00 -0.00000000000E+00 -0.23391213027E+04  0.23391213027E+04  0.00000000000E+00 0.  1.
         23    2    1    2    0    0 -0.56087659655E+03 -0.11132198229E+04 -0.19012106282E+04  0.22751694299E+04  0.89180441849E+02 0.  0.
         11    1    3    3    0    0 -0.36672566374E+03 -0.70885944335E+03 -0.11394747066E+04  0.13911764913E+04  0.00000000000E+00 0.  1.
        -11    1    3    3    0    0 -0.19415093281E+03 -0.40436037959E+03 -0.76173592156E+03  0.88399293859E+03  0.00000000000E+00 0. -1.
         22    1    1    2    0    0  0.56087659655E+03  0.11132198229E+04  0.12971429339E+04  0.17990054813E+04  0.00000000000E+00 0. -1.
<mgrwt>
<rscale>  0 0.40291443E+04</rscale>
<asrwt>0</asrwt>
<pdfrwt beam="1">  1        2 0.35986481E+00 0.40291443E+04</pdfrwt>
<pdfrwt beam="2">  1       -2 0.26693133E+00 0.40291443E+04</pdfrwt>
<totfact> 0.17155652E-01</totfact>
</mgrwt>
</event>
<event>
 6    1  0.2325157E-005  0.1148599E+04  0.7818608E-02  0.9159077E-01
          2   -1    0    0  501    0  0.00000000000E+00  0.00000000000E+00  0.19271519585E+03  0.19271519585E+03  0.00000000000E+00 0.  1.
         -2   -1    0    0    0  501 -0.00000000000E+00 -0.00000000000E+00 -0.17114378844E+04  0.17114378844E+04  0.00000000000E+00 0. -1.
         23    2    1    2    0    0  0.79520849458E+02 -0.16236101333E+03 -0.16614711279E+04  0.16738016508E+04  0.91874877380E+02 0.  0.
         11    1    3    3    0    0  0.42871755726E+02 -0.81146719227E+02 -0.46209925758E+03  0.47112471951E+03  0.00000000000E+00 0.  1.
        -11    1    3    3    0    0  0.36649093732E+02 -0.81214294103E+02 -0.11993718703E+04  0.12026769313E+04  0.00000000000E+00 0. -1.
         22    1    1    2    0    0 -0.79520849458E+02  0.16236101333E+03  0.14274843932E+03  0.23035142951E+03  0.00000000000E+00 0.  1.
<mgrwt>
<rscale>  0 0.11485993E+04</rscale>
<asrwt>0</asrwt>
<pdfrwt beam="1">  1        2 0.29648493E-01 0.11485993E+04</pdfrwt>
<pdfrwt beam="2">  1       -2 0.26329812E+00 0.11485993E+04</pdfrwt>
<totfact> 0.95643316E+00</totfact>
</mgrwt>
</event>
<event>
 6    1  0.2325157E-005  0.3015028E+04  0.7818608E-02  0.8239453E-01
          2   -1    0    0  501    0  0.00000000000E+00  0.00000000000E+00  0.31028770898E+04  0.31028770898E+04  0.00000000000E+00 0.  1.
         -2   -1    0    0    0  501 -0.00000000000E+00 -0.00000000000E+00 -0.73241646351E+03  0.73241646351E+03  0.00000000000E+00 0. -1.
         23    2    1    2    0    0 -0.13245380935E+04 -0.18673213648E+03  0.20667594473E+04  0.24636141236E+04  0.92897175203E+02 0.  0.
         13    1    3    3    0    0 -0.76169048340E+03 -0.94579728908E+02  0.11038840062E+04  0.13444990207E+04  0.00000000000E+00 0. -1.
        -13    1    3    3    0    0 -0.56284761006E+03 -0.92152407576E+02  0.96287544109E+03  0.11191151028E+04  0.00000000000E+00 0.  1.
         22    1    1    2    0    0  0.13245380935E+04  0.18673213648E+03  0.30370117899E+03  0.13716794297E+04  0.00000000000E+00 0. -1.
<mgrwt>
<rscale>  0 0.30150279E+04</rscale>
<asrwt>0</asrwt>
<pdfrwt beam="1">  1        2 0.47736570E+00 0.30150279E+04</pdfrwt>
<pdfrwt beam="2">  1       -2 0.11267946E+00 0.30150279E+04</pdfrwt>
<totfact> 0.79339570E-01</totfact>
</mgrwt>
</event>
<event>
 6    1  0.2325157E-005  0.1396913E+04  0.7818608E-02  0.8956056E-01
          2   -1    0    0  501    0  0.00000000000E+00  0.00000000000E+00  0.13161786100E+04  0.13161786100E+04  0.00000000000E+00 0.  1.
         -2   -1    0    0    0  501 -0.00000000000E+00 -0.00000000000E+00 -0.37064972850E+03  0.37064972850E+03  0.00000000000E+00 0. -1.
         23    2    1    2    0    0  0.66456677597E+03 -0.17563884027E+03  0.60195315360E+03  0.91836084878E+03  0.92417787850E+02 0.  0.
         13    1    3    3    0    0  0.40803507090E+03 -0.11198215637E+03  0.30996008528E+03  0.52450727059E+03  0.00000000000E+00 0.  1.
        -13    1    3    3    0    0  0.25653170506E+03 -0.63656683902E+02  0.29199306832E+03  0.39385357819E+03  0.00000000000E+00 0. -1.
         22    1    1    2    0    0 -0.66456677597E+03  0.17563884027E+03  0.34357572786E+03  0.76846748969E+03  0.00000000000E+00 0. -1.
<mgrwt>
<rscale>  0 0.13969127E+04</rscale>
<asrwt>0</asrwt>
<pdfrwt beam="1">  1        2 0.20248901E+00 0.13969127E+04</pdfrwt>
<pdfrwt beam="2">  1       -2 0.57023036E-01 0.13969127E+04</pdfrwt>
<totfact> 0.45396193E+01</totfact>
</mgrwt>
</event>
<event>
 6    1  0.2325157E-005  0.1026950E+04  0.7818608E-02  0.9279471E-01
         -2   -1    0    0    0  501 -0.00000000000E+00  0.00000000000E+00  0.19339544690E+03  0.19339544690E+03  0.00000000000E+00 0. -1.
          2   -1    0    0  501    0  0.00000000000E+00 -0.00000000000E+00 -0.13633031004E+04  0.13633031004E+04  0.00000000000E+00 0.  1.
         23    2    1    2    0    0  0.76392022816E+02 -0.41703164550E+03 -0.16132125385E+03  0.46262466493E+03  0.90806933480E+02 0.  0.
         13    1    3    3    0    0  0.54249209681E+02 -0.11037145378E+03 -0.71756863079E+02  0.14238638263E+03  0.00000000000E+00 0.  1.
        -13    1    3    3    0    0  0.22142813135E+02 -0.30666019172E+03 -0.89564390768E+02  0.32023828230E+03  0.00000000000E+00 0. -1.
         22    1    1    2    0    0 -0.76392022816E+02  0.41703164550E+03 -0.10085863996E+04  0.10940738823E+04  0.00000000000E+00 0.  1.
<mgrwt>
<rscale>  0 0.10269501E+04</rscale>
<asrwt>0</asrwt>
<pdfrwt beam="1">  1        2 0.20973894E+00 0.10269501E+04</pdfrwt>
<pdfrwt beam="2">  1       -2 0.29753146E-01 0.10269501E+04</pdfrwt>
<totfact> 0.15752456E+02</totfact>
</mgrwt>
</event>
<event>
 6    1  0.2325157E-005  0.3093944E+04  0.7818608E-02  0.8217402E-01
          2   -1    0    0  501    0  0.00000000000E+00  0.00000000000E+00  0.33199271972E+04  0.33199271972E+04  0.00000000000E+00 0. -1.
         -2   -1    0    0    0  501 -0.00000000000E+00 -0.00000000000E+00 -0.72083583328E+03  0.72083583328E+03  0.00000000000E+00 0.  1.
         23    2    1    2    0    0 -0.29217282476E+03  0.14079508239E+04  0.20405232411E+04  0.24981390225E+04  0.96296398790E+02 0.  0.
         13    1    3    3    0    0 -0.18757869114E+03  0.70319685109E+03  0.98674608098E+03  0.12261074199E+04  0.00000000000E+00 0. -1.
        -13    1    3    3    0    0 -0.10459413362E+03  0.70475397283E+03  0.10537771601E+04  0.12720316026E+04  0.00000000000E+00 0.  1.
         22    1    1    2    0    0  0.29217282476E+03 -0.14079508239E+04  0.55856812287E+03  0.15426240080E+04  0.00000000000E+00 0.  1.
<mgrwt>
<rscale>  0 0.30939441E+04</rscale>
<asrwt>0</asrwt>
<pdfrwt beam="1">  1        2 0.51075802E+00 0.30939441E+04</pdfrwt>
<pdfrwt beam="2">  1       -2 0.11089782E+00 0.30939441E+04</pdfrwt>
<totfact> 0.59051743E-01</totfact>
</mgrwt>
</event>
<event>
 6    1  0.2325157E-005  0.1438782E+04  0.7818608E-02  0.8926215E-01
         -2   -1    0    0    0  501 -0.00000000000E+00  0.00000000000E+00  0.10939831339E+04  0.10939831339E+04  0.00000000000E+00 0. -1.
          2   -1    0    0  501    0  0.00000000000E+00 -0.00000000000E+00 -0.47306372216E+03  0.47306372216E+03  0.00000000000E+00 0.  1.
         23    2    1    2    0    0 -0.14034669743E+03 -0.68617506777E+03  0.14691098412E+03  0.72134158318E+03  0.90650004226E+02 0.  0.
         13    1    3    3    0    0 -0.71508519763E+02 -0.19565027394E+03  0.15552985535E+02  0.20888847132E+03  0.00000000000E+00 0. -1.
        -13    1    3    3    0    0 -0.68838177672E+02 -0.49052479383E+03  0.13135799859E+03  0.51245311186E+03  0.00000000000E+00 0.  1.
         22    1    1    2    0    0  0.14034669743E+03  0.68617506777E+03  0.47400842762E+03  0.84570527287E+03  0.00000000000E+00 0. -1.
<mgrwt>
<rscale>  0 0.14387824E+04</rscale>
<asrwt>0</asrwt>
<pdfrwt beam="1">  1        2 0.72779034E-01 0.14387824E+04</pdfrwt>
<pdfrwt beam="2">  1       -2 0.16830510E+00 0.14387824E+04</pdfrwt>
<totfact> 0.13951875E+01</totfact>
</mgrwt>
</event>
<event>
 6    1  0.2325157E-005  0.2894070E+04  0.7818608E-02  0.8274644E-01
          2   -1    0    0  501    0  0.00000000000E+00  0.00000000000E+00  0.12680161638E+04  0.12680161638E+04  0.00000000000E+00 0.  1.
         -2   -1    0    0    0  501 -0.00000000000E+00 -0.00000000000E+00 -0.16513275137E+04  0.16513275137E+04  0.00000000000E+00 0. -1.
         23    2    1    2    0    0  0.91640975176E+03  0.11814960101E+03 -0.13132618060E+04  0.16083997381E+04  0.92341676640E+02 0.  0.
         11    1    3    3    0    0  0.58104168883E+03  0.92411301442E+02 -0.76321829019E+03  0.96366563251E+03  0.00000000000E+00 0. -1.
        -11    1    3    3    0    0  0.33536806293E+03  0.25738299568E+02 -0.55004351579E+03  0.64473410563E+03  0.00000000000E+00 0.  1.
         22    1    1    2    0    0 -0.91640975176E+03 -0.11814960101E+03  0.92995045610E+03  0.13109439394E+04  0.00000000000E+00 0.  1.
<mgrwt>
<rscale>  0 0.28940698E+04</rscale>
<asrwt>0</asrwt>
<pdfrwt beam="1">  1        2 0.19507941E+00 0.28940698E+04</pdfrwt>
<pdfrwt beam="2">  1       -2 0.25405039E+00 0.28940698E+04</pdfrwt>
<totfact> 0.90438815E-01</totfact>
</mgrwt>
</event>
<event>
 6    1  0.2325157E-005  0.2475854E+04  0.7818608E-02  0.8411638E-01
         -2   -1    0    0    0  501 -0.00000000000E+00  0.00000000000E+00  0.48717938260E+03  0.48717938260E+03  0.00000000000E+00 0. -1.
          2   -1    0    0  501    0  0.00000000000E+00 -0.00000000000E+00 -0.31455840039E+04  0.31455840039E+04  0.00000000000E+00 0.  1.
         23    2    1    2    0    0 -0.71750698630E+03 -0.48322577513E+03 -0.35395659200E+02  0.87078955599E+03  0.93263996263E+02 0.  0.
         13    1    3    3    0    0 -0.39172364981E+03 -0.31184867906E+03 -0.43572349753E+02  0.50258886389E+03  0.00000000000E+00 0. -1.
        -13    1    3    3    0    0 -0.32578333649E+03 -0.17137709608E+03  0.81766905532E+01  0.36820069210E+03  0.00000000000E+00 0.  1.
         22    1    1    2    0    0  0.71750698630E+03  0.48322577513E+03 -0.26230089621E+04  0.27619738305E+04  0.00000000000E+00 0.  1.
<mgrwt>
<rscale>  0 0.24758543E+04</rscale>
<asrwt>0</asrwt>
<pdfrwt beam="1">  1        2 0.48393602E+00 0.24758543E+04</pdfrwt>
<pdfrwt beam="2">  1       -2 0.74950672E-01 0.24758543E+04</pdfrwt>
<totfact> 0.20112561E+00</totfact>
</mgrwt>
</event>
<event>
 6    1  0.2325157E-005  0.2525632E+04  0.7818608E-02  0.8393911E-01
         -2   -1    0    0    0  501 -0.00000000000E+00  0.00000000000E+00  0.15098294817E+04  0.15098294817E+04  0.00000000000E+00 0. -1.
          2   -1    0    0  501    0  0.00000000000E+00 -0.00000000000E+00 -0.10562145288E+04  0.10562145288E+04  0.00000000000E+00 0.  1.
         23    2    1    2    0    0  0.37823528098E+03  0.49334881463E+03  0.13420384260E+04  0.14817233715E+04  0.89342219118E+02 0.  0.
         13    1    3    3    0    0  0.20490383073E+03  0.20306025777E+03  0.66855130928E+03  0.72813453515E+03  0.00000000000E+00 0. -1.
        -13    1    3    3    0    0  0.17333145026E+03  0.29028855686E+03  0.67348711667E+03  0.75358883631E+03  0.00000000000E+00 0.  1.
         22    1    1    2    0    0 -0.37823528098E+03 -0.49334881463E+03 -0.88842347310E+03  0.10843206390E+04  0.00000000000E+00 0.  1.
<mgrwt>
<rscale>  0 0.25256317E+04</rscale>
<asrwt>0</asrwt>
<pdfrwt beam="1">  1        2 0.16249454E+00 0.25256317E+04</pdfrwt>
<pdfrwt beam="2">  1       -2 0.23228146E+00 0.25256317E+04</pdfrwt>
<totfact> 0.17079984E+00</totfact>
</mgrwt>
</event>
<event>
 6    1  0.2325157E-005  0.2220549E+04  0.7818608E-02  0.8509924E-01
         -1   -1    0    0    0  501 -0.00000000000E+00  0.00000000000E+00  0.57999186810E+03  0.57999186810E+03  0.00000000000E+00 0. -1.
          1   -1    0    0  501    0  0.00000000000E+00 -0.00000000000E+00 -0.21253903985E+04  0.21253903985E+04  0.00000000000E+00 0.  1.
         23    2    1    2    0    0 -0.14898778717E+02  0.72662822930E+03  0.24547516568E+03  0.77265384476E+03  0.92332819925E+02 0.  0.
         11    1    3    3    0    0  0.87278324523E+01  0.67570052155E+03  0.23560486820E+03  0.71565146811E+03  0.00000000000E+00 0.  1.
        -11    1    3    3    0    0 -0.23626611169E+02  0.50927707748E+02  0.98702974813E+01  0.57002376654E+02  0.00000000000E+00 0. -1.
         22    1    1    2    0    0  0.14898778717E+02 -0.72662822930E+03 -0.17908736961E+04  0.19327284218E+04  0.00000000000E+00 0.  1.
<mgrwt>
<rscale>  0 0.22205487E+04</rscale>
<asrwt>0</asrwt>
<pdfrwt beam="1">  1        1 0.32698314E+00 0.22205487E+04</pdfrwt>
<pdfrwt beam="2">  1       -1 0.89229517E-01 0.22205487E+04</pdfrwt>
<totfact> 0.27434508E+00</totfact>
</mgrwt>
</event>
<event>
 6    1  0.2325157E-005  0.5168889E+04  0.7818608E-02  0.7802970E-01
          2   -1    0    0  501    0  0.00000000000E+00  0.00000000000E+00  0.27060136057E+04  0.27060136057E+04  0.00000000000E+00 0.  1.
         -2   -1    0    0    0  501 -0.00000000000E+00 -0.00000000000E+00 -0.24683373342E+04  0.24683373342E+04  0.00000000000E+00 0. -1.
         23    2    1    2    0    0 -0.58113841111E+03 -0.16786250405E+04 -0.17591064294E+04  0.25017782030E+04  0.94524427933E+02 0.  0.
         13    1    3    3    0    0 -0.15397226251E+03 -0.49498942873E+03 -0.56996931640E+03  0.77044598371E+03  0.00000000000E+00 0. -1.
        -13    1    3    3    0    0 -0.42716614860E+03 -0.11836356118E+04 -0.11891371130E+04  0.17313322193E+04  0.00000000000E+00 0.  1.
         22    1    1    2    0    0  0.58113841111E+03  0.16786250405E+04  0.19967827009E+04  0.26725727369E+04  0.00000000000E+00 0.  1.
<mgrwt>
<rscale>  0 0.51688894E+04</rscale>
<asrwt>0</asrwt>
<pdfrwt beam="1">  1        2 0.41630979E+00 0.51688894E+04</pdfrwt>
<pdfrwt beam="2">  1       -2 0.37974421E+00 0.51688894E+04</pdfrwt>
<totfact> 0.19020552E-02</totfact>
</mgrwt>
</event>
<event>
 6    1  0.2325157E-005  0.1779906E+04  0.7818608E-02  0.8717059E-01
          2   -1    0    0  501    0  0.00000000000E+00  0.00000000000E+00  0.13822583048E+04  0.13822583048E+04  0.00000000000E+00 0.  1.
         -2   -1    0    0    0  501 -0.00000000000E+00 -0.00000000000E+00 -0.57298708041E+03  0.57298708041E+03  0.00000000000E+00 0. -1.
         23    2    1    2    0    0  0.85802915333E+03 -0.10563433780E+03  0.62661430195E+03  0.10716526099E+04  0.91767050813E+02 0.  0.
         13    1    3    3    0    0  0.64641765178E+03 -0.39383148435E+02  0.46875698674E+03  0.79946227274E+03  0.00000000000E+00 0. -1.
        -13    1    3    3    0    0  0.21161150155E+03 -0.66251189363E+02  0.15785731522E+03  0.27219033717E+03  0.00000000000E+00 0.  1.
         22    1    1    2    0    0 -0.85802915333E+03  0.10563433780E+03  0.18265692247E+03  0.88359277533E+03  0.00000000000E+00 0. -1.
<mgrwt>
<rscale>  0 0.17799058E+04</rscale>
<asrwt>0</asrwt>
<pdfrwt beam="1">  1        2 0.21265512E+00 0.17799058E+04</pdfrwt>
<pdfrwt beam="2">  1       -2 0.88151859E-01 0.17799058E+04</pdfrwt>
<totfact> 0.15529664E+01</totfact>
</mgrwt>
</event>
<event>
 6    1  0.2325157E-005  0.2010423E+04  0.7818608E-02  0.8601763E-01
         -2   -1    0    0    0  501 -0.00000000000E+00  0.00000000000E+00  0.14142615132E+04  0.14142615132E+04  0.00000000000E+00 0. -1.
          2   -1    0    0  501    0  0.00000000000E+00 -0.00000000000E+00 -0.71447196865E+03  0.71447196865E+03  0.00000000000E+00 0.  1.
         23    2    1    2    0    0 -0.50557327976E+03  0.16057686350E+03  0.12522917289E+04  0.13628040244E+04  0.87240841243E+02 0.  0.
         11    1    3    3    0    0 -0.32754034332E+03  0.10629390586E+03  0.91354593941E+03  0.97629260693E+03  0.00000000000E+00 0.  1.
        -11    1    3    3    0    0 -0.17803293644E+03  0.54282957640E+02  0.33874578944E+03  0.38651141744E+03  0.00000000000E+00 0. -1.
         22    1    1    2    0    0  0.50557327976E+03 -0.16057686350E+03 -0.55250218426E+03  0.76592945753E+03  0.00000000000E+00 0.  1.
<mgrwt>
<rscale>  0 0.20104230E+04</rscale>
<asrwt>0</asrwt>
<pdfrwt beam="1">  1        2 0.10991876E+00 0.20104230E+04</pdfrwt>
<pdfrwt beam="2">  1       -2 0.21757869E+00 0.20104230E+04</pdfrwt>
<totfact> 0.37924610E+00</totfact>
</mgrwt>
</event>
<event>
 6    1  0.2325157E-005  0.1759688E+04  0.7818608E-02  0.8728036E-01
         -2   -1    0    0    0  501 -0.00000000000E+00  0.00000000000E+00  0.90645889008E+03  0.90645889008E+03  0.00000000000E+00 0. -1.
          2   -1    0    0  501    0  0.00000000000E+00 -0.00000000000E+00 -0.85401008080E+03  0.85401008080E+03  0.00000000000E+00 0.  1.
         23    2    1    2    0    0 -0.83197400355E+03 -0.91141496465E+02  0.28986062991E+03  0.89049662216E+03  0.92073526763E+02 0.  0.
         11    1    3    3    0    0 -0.62740826645E+03 -0.41810016114E+02  0.24802748663E+03  0.67594884746E+03  0.00000000000E+00 0. -1.
        -11    1    3    3    0    0 -0.20456573710E+03 -0.49331480351E+02  0.41833143281E+02  0.21454777469E+03  0.00000000000E+00 0.  1.
         22    1    1    2    0    0  0.83197400355E+03  0.91141496465E+02 -0.23741182063E+03  0.86997234872E+03  0.00000000000E+00 0.  1.
<mgrwt>
<rscale>  0 0.17596875E+04</rscale>
<asrwt>0</asrwt>
<pdfrwt beam="1">  1        2 0.13138617E+00 0.17596875E+04</pdfrwt>
<pdfrwt beam="2">  1       -2 0.13945521E+00 0.17596875E+04</pdfrwt>
<totfact> 0.10833705E+01</totfact>
</mgrwt>
</event>
<event>
 6    1  0.2981208E-005  0.2341695E+04  0.7818608E-02  0.8461661E-01
         -2   -1    0    0    0  501 -0.00000000000E+00  0.00000000000E+00  0.68168141418E+03  0.68168141418E+03  0.00000000000E+00 0. -1.
          2   -1    0    0  501    0  0.00000000000E+00 -0.00000000000E+00 -0.20110327681E+04  0.20110327681E+04  0.00000000000E+00 0.  1.
         23    2    1    2    0    0 -0.68807267939E+00 -0.85989722920E+03 -0.15764355549E+04  0.17980218773E+04  0.91158622395E+02 0.  0.
         11    1    3    3    0    0  0.77837229417E+01 -0.62517435040E+03 -0.10593422198E+04  0.12300851570E+04  0.00000000000E+00 0.  1.
        -11    1    3    3    0    0 -0.84717956211E+01 -0.23472287880E+03 -0.51709333505E+03  0.56793672034E+03  0.00000000000E+00 0. -1.
         22    1    1    2    0    0  0.68807267939E+00  0.85989722920E+03  0.24708420094E+03  0.89469230497E+03  0.00000000000E+00 0. -1.
<mgrwt>
<rscale>  0 0.23416948E+04</rscale>
<asrwt>0</asrwt>
<pdfrwt beam="1">  1        2 0.30938965E+00 0.23416948E+04</pdfrwt>
<pdfrwt beam="2">  1       -2 0.10487407E+00 0.23416948E+04</pdfrwt>
<totfact> 0.43875436E+00</totfact>
</mgrwt>
</event>
<event>
 6    1  0.2325157E-005  0.5147181E+03  0.7818608E-02  0.1010007E+00
          2   -1    0    0  501    0  0.00000000000E+00  0.00000000000E+00  0.22097485283E+03  0.22097485283E+03  0.00000000000E+00 0.  1.
         -2   -1    0    0    0  501 -0.00000000000E+00 -0.00000000000E+00 -0.29973407180E+03  0.29973407180E+03  0.00000000000E+00 0. -1.
         23    2    1    2    0    0 -0.19676929629E+03  0.63051617718E+02 -0.18190012773E+03  0.28977233265E+03  0.90480306379E+02 0.  0.
         11    1    3    3    0    0 -0.14719418923E+03  0.93832578884E+01 -0.91622206739E+02  0.17363410851E+03  0.00000000000E+00 0. -1.
        -11    1    3    3    0    0 -0.49575107055E+02  0.53668359829E+02 -0.90277920995E+02  0.11613822414E+03  0.00000000000E+00 0.  1.
         22    1    1    2    0    0  0.19676929629E+03 -0.63051617718E+02  0.10314090876E+03  0.23093659198E+03  0.00000000000E+00 0.  1.
<mgrwt>
<rscale>  0 0.51471815E+03</rscale>
<asrwt>0</asrwt>
<pdfrwt beam="1">  1        2 0.33996131E-01 0.51471815E+03</pdfrwt>
<pdfrwt beam="2">  1       -2 0.46112934E-01 0.51471815E+03</pdfrwt>
<totfact> 0.69300841E+02</totfact>
</mgrwt>
</event>
<event>
 6    1  0.2325157E-005  0.4976660E+03  0.7818608E-02  0.1014390E+00
         -1   -1    0    0    0  501 -0.00000000000E+00  0.00000000000E+00  0.44820023805E+03  0.44820023805E+03  0.00000000000E+00 0. -1.
          1   -1    0    0  501    0  0.00000000000E+00 -0.00000000000E+00 -0.13814777313E+03  0.13814777313E+03  0.00000000000E+00 0.  1.
         23    2    1    2    0    0  0.17420828800E+03  0.47266035346E+02  0.34754547824E+03  0.40198876472E+03  0.90689039112E+02 0.  0.
         13    1    3    3    0    0  0.84061644407E+02 -0.23629965131E+02  0.14916313776E+03  0.17284205790E+03  0.00000000000E+00 0.  1.
        -13    1    3    3    0    0  0.90146643594E+02  0.70896000477E+02  0.19838234048E+03  0.22914670683E+03  0.00000000000E+00 0. -1.
         22    1    1    2    0    0 -0.17420828800E+03 -0.47266035346E+02 -0.37493013317E+02  0.18435924645E+03  0.00000000000E+00 0.  1.
<mgrwt>
<rscale>  0 0.49766601E+03</rscale>
<asrwt>0</asrwt>
<pdfrwt beam="1">  1        1 0.21253504E-01 0.49766601E+03</pdfrwt>
<pdfrwt beam="2">  1       -1 0.68953882E-01 0.49766601E+03</pdfrwt>
<totfact> 0.52101653E+02</totfact>
</mgrwt>
</event>
<event>
 6    1  0.2325157E-005  0.2266711E+04  0.7818608E-02  0.8491163E-01
         -2   -1    0    0    0  501 -0.00000000000E+00  0.00000000000E+00  0.82850026319E+03  0.82850026319E+03  0.00000000000E+00 0. -1.
          2   -1    0    0  501    0  0.00000000000E+00 -0.00000000000E+00 -0.15503853492E+04  0.15503853492E+04  0.00000000000E+00 0.  1.
         23    2    1    2    0    0  0.92879054678E+03 -0.60919318248E+03 -0.58789998529E+03  0.12600825821E+04  0.91725174085E+02 0.  0.
         13    1    3    3    0    0  0.22847443922E+03 -0.19774256847E+03 -0.15093205075E+03  0.33776201193E+03  0.00000000000E+00 0.  1.
        -13    1    3    3    0    0  0.70031610756E+03 -0.41145061401E+03 -0.43696793454E+03  0.92232057013E+03  0.00000000000E+00 0. -1.
         22    1    1    2    0    0 -0.92879054678E+03  0.60919318248E+03 -0.13398510068E+03  0.11188030303E+04  0.00000000000E+00 0. -1.
<mgrwt>
<rscale>  0 0.22667110E+04</rscale>
<asrwt>0</asrwt>
<pdfrwt beam="1">  1        2 0.23852082E+00 0.22667110E+04</pdfrwt>
<pdfrwt beam="2">  1       -2 0.12746158E+00 0.22667110E+04</pdfrwt>
<totfact> 0.49352594E+00</totfact>
</mgrwt>
</event>
<event>
 6    1  0.2325157E-005  0.4881954E+04  0.7818608E-02  0.7846979E-01
         -2   -1    0    0    0  501 -0.00000000000E+00  0.00000000000E+00  0.13932718596E+04  0.13932718596E+04  0.00000000000E+00 0. -1.
          2   -1    0    0  501    0  0.00000000000E+00 -0.00000000000E+00 -0.42765298991E+04  0.42765298991E+04  0.00000000000E+00 0.  1.
         23    2    1    2    0    0  0.17873584842E+02 -0.24178929067E+04 -0.10623896123E+04  0.26429077397E+04  0.98813251760E+02 0.  0.
         11    1    3    3    0    0  0.34282968206E+02 -0.18728098140E+04 -0.86166412174E+03  0.20618091522E+04  0.00000000000E+00 0.  1.
        -11    1    3    3    0    0 -0.16409383364E+02 -0.54508309274E+03 -0.20072549059E+03  0.58109858753E+03  0.00000000000E+00 0. -1.
         22    1    1    2    0    0 -0.17873584842E+02  0.24178929067E+04 -0.18208684271E+04  0.30268940190E+04  0.00000000000E+00 0. -1.
<mgrwt>
<rscale>  0 0.48819540E+04</rscale>
<asrwt>0</asrwt>
<pdfrwt beam="1">  1        2 0.65792766E+00 0.48819540E+04</pdfrwt>
<pdfrwt beam="2">  1       -2 0.21434952E+00 0.48819540E+04</pdfrwt>
<totfact> 0.15601717E-02</totfact>
</mgrwt>
</event>
<event>
 6    1  0.2325157E-005  0.1939433E+04  0.7818608E-02  0.8635473E-01
         -2   -1    0    0    0  501 -0.00000000000E+00  0.00000000000E+00  0.31847494304E+03  0.31847494304E+03  0.00000000000E+00 0. -1.
          2   -1    0    0  501    0  0.00000000000E+00 -0.00000000000E+00 -0.29526645621E+04  0.29526645621E+04  0.00000000000E+00 0.  1.
         23    2    1    2    0    0  0.67770792555E+03 -0.65425996522E+03 -0.94763432301E+03  0.13393494283E+04  0.92206000108E+02 0.  0.
         13    1    3    3    0    0  0.44374230085E+03 -0.47050902111E+03 -0.69107811153E+03  0.94650669556E+03  0.00000000000E+00 0. -1.
        -13    1    3    3    0    0  0.23396562470E+03 -0.18375094410E+03 -0.25655621148E+03  0.39284273272E+03  0.00000000000E+00 0.  1.
         22    1    1    2    0    0 -0.67770792555E+03  0.65425996522E+03 -0.16865552961E+04  0.19317900769E+04  0.00000000000E+00 0. -1.
<mgrwt>
<rscale>  0 0.19394326E+04</rscale>
<asrwt>0</asrwt>
<pdfrwt beam="1">  1        2 0.45425609E+00 0.19394326E+04</pdfrwt>
<pdfrwt beam="2">  1       -2 0.48996145E-01 0.19394326E+04</pdfrwt>
<totfact> 0.68803201E+00</totfact>
</mgrwt>
</event>
<event>
 6    1  0.2325157E-005  0.3794686E+04  0.7818608E-02  0.8047296E-01
          2   -1    0    0  501    0  0.00000000000E+00  0.00000000000E+00  0.10873445134E+04  0.10873445134E+04  0.00000000000E+00 0.  1.
         -2   -1    0    0    0  501 -0.00000000000E+00 -0.00000000000E+00 -0.33107355155E+04  0.33107355155E+04  0.00000000000E+00 0. -1.
         23    2    1    2    0    0  0.94568977088E+03 -0.16346779352E+04 -0.91435250810E+03  0.21002369373E+04  0.91943401290E+02 0.  0.
         11    1    3    3    0    0  0.30904059893E+03 -0.58002805915E+03 -0.27690556754E+03  0.71317272419E+03  0.00000000000E+00 0.  1.
        -11    1    3    3    0    0  0.63664917196E+03 -0.10546498760E+04 -0.63744694056E+03  0.13870642131E+04  0.00000000000E+00 0. -1.
         22    1    1    2    0    0 -0.94568977088E+03  0.16346779352E+04 -0.13090384940E+04  0.22978430915E+04  0.00000000000E+00 0. -1.
<mgrwt>
<rscale>  0 0.37946858E+04</rscale>
<asrwt>0</asrwt>
<pdfrwt beam="1">  1        2 0.16728377E+00 0.37946858E+04</pdfrwt>
<pdfrwt beam="2">  1       -2 0.50934392E+00 0.37946858E+04</pdfrwt>
<totfact> 0.25728746E-02</totfact>
</mgrwt>
</event>
<event>
 6    1  0.2325157E-005  0.1194220E+04  0.7818608E-02  0.9117931E-01
          1   -1    0    0  501    0  0.00000000000E+00  0.00000000000E+00  0.10357692794E+04  0.10357692794E+04  0.00000000000E+00 0.  1.
         -1   -1    0    0    0  501 -0.00000000000E+00 -0.00000000000E+00 -0.34422773318E+03  0.34422773318E+03  0.00000000000E+00 0. -1.
         23    2    1    2    0    0  0.26516648781E+03 -0.29478108453E+03 -0.16269409849E+03  0.43822862770E+03  0.91464782313E+02 0.  0.
         13    1    3    3    0    0  0.64336288350E+02 -0.12172483424E+03 -0.26587164724E+02  0.14022471465E+03  0.00000000000E+00 0. -1.
        -13    1    3    3    0    0  0.20083019946E+03 -0.17305625028E+03 -0.13610693376E+03  0.29800391306E+03  0.00000000000E+00 0.  1.
         22    1    1    2    0    0 -0.26516648781E+03  0.29478108453E+03  0.85423564467E+03  0.94176838484E+03  0.00000000000E+00 0.  1.
<mgrwt>
<rscale>  0 0.11942203E+04</rscale>
<asrwt>0</asrwt>
<pdfrwt beam="1">  1        1 0.15934912E+00 0.11942203E+04</pdfrwt>
<pdfrwt beam="2">  1       -1 0.52958113E-01 0.11942203E+04</pdfrwt>
<totfact> 0.50508371E+01</totfact>
</mgrwt>
</event>
<event>
 6    1  0.2325157E-005  0.3479578E+04  0.7818608E-02  0.8118647E-01
         -2   -1    0    0    0  501 -0.00000000000E+00  0.00000000000E+00  0.12100196974E+04  0.12100196974E+04  0.00000000000E+00 0. -1.
          2   -1    0    0  501    0  0.00000000000E+00 -0.00000000000E+00 -0.25015007909E+04  0.25015007909E+04  0.00000000000E+00 0.  1.
         23    2    1    2    0    0  0.75512249720E+02 -0.10305273852E+04  0.84523753288E+03  0.13380725154E+04  0.91229260762E+02 0.  0.
         11    1    3    3    0    0  0.30175236106E+02 -0.77825175877E+03  0.67230551876E+03  0.10288736829E+04  0.00000000000E+00 0. -1.
        -11    1    3    3    0    0  0.45337013614E+02 -0.25227562643E+03  0.17293201412E+03  0.30919883248E+03  0.00000000000E+00 0.  1.
         22    1    1    2    0    0 -0.75512249720E+02  0.10305273852E+04 -0.21367186264E+04  0.23734479728E+04  0.00000000000E+00 0.  1.
<mgrwt>
<rscale>  0 0.34795777E+04</rscale>
<asrwt>0</asrwt>
<pdfrwt beam="1">  1        2 0.38484627E+00 0.34795777E+04</pdfrwt>
<pdfrwt beam="2">  1       -2 0.18615688E+00 0.34795777E+04</pdfrwt>
<totfact> 0.47045748E-01</totfact>
</mgrwt>
</event>
<event>
 6    1  0.2325157E-005  0.1074164E+04  0.7818608E-02  0.9230746E-01
          2   -1    0    0  501    0  0.00000000000E+00  0.00000000000E+00  0.91653265892E+03  0.91653265892E+03  0.00000000000E+00 0.  1.
         -2   -1    0    0    0  501 -0.00000000000E+00 -0.00000000000E+00 -0.31472621493E+03  0.31472621493E+03  0.00000000000E+00 0. -1.
         23    2    1    2    0    0  0.45188452224E+03 -0.56038292454E+02  0.62110421023E+03  0.77550420800E+03  0.91084713325E+02 0.  0.
         11    1    3    3    0    0  0.30565942859E+03 -0.77250909312E+02  0.39479724606E+03  0.50523287183E+03  0.00000000000E+00 0. -1.
        -11    1    3    3    0    0  0.14622509364E+03  0.21212616857E+02  0.22630696417E+03  0.27027133617E+03  0.00000000000E+00 0.  1.
         22    1    1    2    0    0 -0.45188452224E+03  0.56038292454E+02 -0.19297766252E+02  0.45575466585E+03  0.00000000000E+00 0. -1.
<mgrwt>
<rscale>  0 0.10741636E+04</rscale>
<asrwt>0</asrwt>
<pdfrwt beam="1">  1        2 0.14100502E+00 0.10741636E+04</pdfrwt>
<pdfrwt beam="2">  1       -2 0.48419418E-01 0.10741636E+04</pdfrwt>
<totfact> 0.11478354E+02</totfact>
</mgrwt>
</event>
<event>
 6    1  0.2325157E-005  0.1142450E+04  0.7818608E-02  0.9164777E-01
          2   -1    0    0  501    0  0.00000000000E+00  0.00000000000E+00  0.16988730234E+04  0.16988730234E+04  0.00000000000E+00 0.  1.
         -2   -1    0    0    0  501 -0.00000000000E+00 -0.00000000000E+00 -0.19206723288E+03  0.19206723288E+03  0.00000000000E+00 0. -1.
         23    2    1    2    0    0 -0.88047704993E+02 -0.36543120050E+03  0.54137641164E+02  0.39042797282E+03  0.90613228133E+02 0.  0.
         13    1    3    3    0    0 -0.82201281000E+02 -0.19375223449E+03  0.49659388088E+00  0.21046906085E+03  0.00000000000E+00 0. -1.
        -13    1    3    3    0    0 -0.58464239933E+01 -0.17167896601E+03  0.53641047283E+02  0.17995891197E+03  0.00000000000E+00 0.  1.
         22    1    1    2    0    0  0.88047704993E+02  0.36543120050E+03  0.14526681494E+04  0.15005122835E+04  0.00000000000E+00 0.  1.
<mgrwt>
<rscale>  0 0.11424497E+04</rscale>
<asrwt>0</asrwt>
<pdfrwt beam="1">  1        2 0.26136507E+00 0.11424497E+04</pdfrwt>
<pdfrwt beam="2">  1       -2 0.29548806E-01 0.11424497E+04</pdfrwt>
<totfact> 0.10258589E+02</totfact>
</mgrwt>
</event>
<event>
 6    1  0.2325157E-005  0.2665160E+04  0.7818608E-02  0.8346399E-01
         -2   -1    0    0    0  501 -0.00000000000E+00  0.00000000000E+00  0.56820419701E+03  0.56820419701E+03  0.00000000000E+00 0. -1.
          2   -1    0    0  501    0  0.00000000000E+00 -0.00000000000E+00 -0.31252320117E+04  0.31252320117E+04  0.00000000000E+00 0.  1.
         23    2    1    2    0    0 -0.63625377632E+03 -0.61738454089E+03  0.96360915435E+02  0.89585613079E+03  0.85382913080E+02 0.  0.
         11    1    3    3    0    0 -0.20821528051E+03 -0.25865402183E+03  0.28616597239E+02  0.33327828565E+03  0.00000000000E+00 0. -1.
        -11    1    3    3    0    0 -0.42803849581E+03 -0.35873051906E+03  0.67744318196E+02  0.56257784515E+03  0.00000000000E+00 0.  1.
         22    1    1    2    0    0  0.63625377632E+03  0.61738454089E+03 -0.26533887301E+04  0.27975800779E+04  0.00000000000E+00 0.  1.
<mgrwt>
<rscale>  0 0.26651604E+04</rscale>
<asrwt>0</asrwt>
<pdfrwt beam="1">  1        2 0.48080492E+00 0.26651604E+04</pdfrwt>
<pdfrwt beam="2">  1       -2 0.87416032E-01 0.26651604E+04</pdfrwt>
<totfact> 0.14413154E+00</totfact>
</mgrwt>
</event>
<event>
 6    1  0.2325157E-005  0.1616233E+04  0.7818608E-02  0.8810637E-01
         -2   -1    0    0    0  501 -0.00000000000E+00  0.00000000000E+00  0.86511271875E+03  0.86511271875E+03  0.00000000000E+00 0. -1.
          2   -1    0    0  501    0  0.00000000000E+00 -0.00000000000E+00 -0.75487564591E+03  0.75487564591E+03  0.00000000000E+00 0.  1.
         23    2    1    2    0    0  0.56408417824E+02 -0.28333815676E+03  0.80884848473E+03  0.86399873146E+03  0.93784412567E+02 0.  0.
         11    1    3    3    0    0  0.50513041987E+02 -0.13887842043E+03  0.52566218982E+03  0.54603985283E+03  0.00000000000E+00 0. -1.
        -11    1    3    3    0    0  0.58953758373E+01 -0.14445973633E+03  0.28318629491E+03  0.31795887864E+03  0.00000000000E+00 0.  1.
         22    1    1    2    0    0 -0.56408417824E+02  0.28333815676E+03 -0.69861141189E+03  0.75598963320E+03  0.00000000000E+00 0.  1.
<mgrwt>
<rscale>  0 0.16162333E+04</rscale>
<asrwt>0</asrwt>
<pdfrwt beam="1">  1        2 0.11613471E+00 0.16162333E+04</pdfrwt>
<pdfrwt beam="2">  1       -2 0.13309426E+00 0.16162333E+04</pdfrwt>
<totfact> 0.14565435E+01</totfact>
</mgrwt>
</event>
<event>
 6    1  0.2325157E-005  0.1457675E+04  0.7818608E-02  0.8913097E-01
          2   -1    0    0  501    0  0.00000000000E+00  0.00000000000E+00  0.73195183935E+03  0.73195183935E+03  0.00000000000E+00 0.  1.
         -2   -1    0    0    0  501 -0.00000000000E+00 -0.00000000000E+00 -0.72573643138E+03  0.72573643138E+03  0.00000000000E+00 0. -1.
         23    2    1    2    0    0  0.10351568648E+03 -0.53555644182E+03  0.48214644992E+03  0.73377767100E+03  0.91805618404E+02 0.  0.
         13    1    3    3    0    0  0.72806045918E+02 -0.26407900025E+03  0.18749143717E+03  0.33195101703E+03  0.00000000000E+00 0.  1.
        -13    1    3    3    0    0  0.30709640560E+02 -0.27147744157E+03  0.29465501275E+03  0.40182665397E+03  0.00000000000E+00 0. -1.
         22    1    1    2    0    0 -0.10351568648E+03  0.53555644182E+03 -0.47593104195E+03  0.72391059974E+03  0.00000000000E+00 0.  1.
<mgrwt>
<rscale>  0 0.14576750E+04</rscale>
<asrwt>0</asrwt>
<pdfrwt beam="1">  1        2 0.11260798E+00 0.14576750E+04</pdfrwt>
<pdfrwt beam="2">  1       -2 0.11165176E+00 0.14576750E+04</pdfrwt>
<totfact> 0.23770135E+01</totfact>
</mgrwt>
</event>
<event>
 6    1  0.2325157E-005  0.2401512E+04  0.7818608E-02  0.8438938E-01
         -2   -1    0    0    0  501 -0.00000000000E+00  0.00000000000E+00  0.97752040362E+03  0.97752040362E+03  0.00000000000E+00 0. -1.
          2   -1    0    0  501    0  0.00000000000E+00 -0.00000000000E+00 -0.14749711498E+04  0.14749711498E+04  0.00000000000E+00 0.  1.
         23    2    1    2    0    0  0.10100872940E+04  0.63596668987E+03 -0.13318576538E+03  0.12045256290E+04  0.91725517969E+02 0.  0.
         13    1    3    3    0    0  0.56049255546E+03  0.30000772776E+03 -0.80396083024E+02  0.64079643538E+03  0.00000000000E+00 0. -1.
        -13    1    3    3    0    0  0.44959473857E+03  0.33595896212E+03 -0.52789682352E+02  0.56372919362E+03  0.00000000000E+00 0.  1.
         22    1    1    2    0    0 -0.10100872940E+04 -0.63596668987E+03 -0.36426498077E+03  0.12479659244E+04  0.00000000000E+00 0.  1.
<mgrwt>
<rscale>  0 0.24015115E+04</rscale>
<asrwt>0</asrwt>
<pdfrwt beam="1">  1        2 0.22691864E+00 0.24015115E+04</pdfrwt>
<pdfrwt beam="2">  1       -2 0.15038776E+00 0.24015115E+04</pdfrwt>
<totfact> 0.35094797E+00</totfact>
</mgrwt>
</event>
<event>
 6    1  0.2325157E-005  0.2388246E+04  0.7818608E-02  0.8443917E-01
         -2   -1    0    0    0  501 -0.00000000000E+00  0.00000000000E+00  0.50809242094E+03  0.50809242094E+03  0.00000000000E+00 0. -1.
          2   -1    0    0  501    0  0.00000000000E+00 -0.00000000000E+00 -0.28064376369E+04  0.28064376369E+04  0.00000000000E+00 0.  1.
         23    2    1    2    0    0  0.56015785320E+03 -0.10071516652E+04 -0.72629172572E+03  0.13653036796E+04  0.91777826670E+02 0.  0.
         13    1    3    3    0    0  0.30806285864E+03 -0.59195739903E+03 -0.46889025960E+03  0.81558222313E+03  0.00000000000E+00 0. -1.
        -13    1    3    3    0    0  0.25209499456E+03 -0.41519426622E+03 -0.25740146612E+03  0.54972145651E+03  0.00000000000E+00 0.  1.
         22    1    1    2    0    0 -0.56015785320E+03  0.10071516652E+04 -0.15720534902E+04  0.19492263782E+04  0.00000000000E+00 0.  1.
<mgrwt>
<rscale>  0 0.23882460E+04</rscale>
<asrwt>0</asrwt>
<pdfrwt beam="1">  1        2 0.43175963E+00 0.23882460E+04</pdfrwt>
<pdfrwt beam="2">  1       -2 0.78168065E-01 0.23882460E+04</pdfrwt>
<totfact> 0.30041402E+00</totfact>
</mgrwt>
</event>
<event>
 6    1  0.2325157E-005  0.1639219E+04  0.7818608E-02  0.8796810E-01
          2   -1    0    0  501    0  0.00000000000E+00  0.00000000000E+00  0.10283653616E+04  0.10283653616E+04  0.00000000000E+00 0.  1.
         -2   -1    0    0    0  501 -0.00000000000E+00 -0.00000000000E+00 -0.65323050349E+03  0.65323050349E+03  0.00000000000E+00 0. -1.
         23    2    1    2    0    0 -0.71195033121E+03 -0.29841365820E+03 -0.86281979242E+02  0.78224638726E+03  0.92416691888E+02 0.  0.
         11    1    3    3    0    0 -0.25945976154E+03 -0.10891192275E+03 -0.76393715468E+02  0.29157704735E+03  0.00000000000E+00 0. -1.
        -11    1    3    3    0    0 -0.45249056966E+03 -0.18950173545E+03 -0.98882637746E+01  0.49066933992E+03  0.00000000000E+00 0.  1.
         22    1    1    2    0    0  0.71195033121E+03  0.29841365820E+03  0.46141683740E+03  0.89934947787E+03  0.00000000000E+00 0. -1.
<mgrwt>
<rscale>  0 0.16392189E+04</rscale>
<asrwt>0</asrwt>
<pdfrwt beam="1">  1        2 0.15821006E+00 0.16392189E+04</pdfrwt>
<pdfrwt beam="2">  1       -2 0.10049700E+00 0.16392189E+04</pdfrwt>
<totfact> 0.18857715E+01</totfact>
</mgrwt>
</event>
<event>
 6    1  0.2325157E-005  0.2031866E+04  0.7818608E-02  0.8591866E-01
          2   -1    0    0  501    0  0.00000000000E+00  0.00000000000E+00  0.28696604887E+04  0.28696604887E+04  0.00000000000E+00 0.  1.
         -2   -1    0    0    0  501 -0.00000000000E+00 -0.00000000000E+00 -0.35966619003E+03  0.35966619003E+03  0.00000000000E+00 0. -1.
         23    2    1    2    0    0  0.81482985268E+03 -0.23103041967E+03  0.21431108923E+04  0.23063282077E+04  0.94354445372E+02 0.  0.
         13    1    3    3    0    0  0.19075327590E+03 -0.49004703345E+02  0.61254559421E+03  0.64342861158E+03  0.00000000000E+00 0.  1.
        -13    1    3    3    0    0  0.62407657679E+03 -0.18202571633E+03  0.15305652981E+04  0.16628995961E+04  0.00000000000E+00 0. -1.
         22    1    1    2    0    0 -0.81482985268E+03  0.23103041967E+03  0.36688340637E+03  0.92299847102E+03  0.00000000000E+00 0. -1.
<mgrwt>
<rscale>  0 0.20318660E+04</rscale>
<asrwt>0</asrwt>
<pdfrwt beam="1">  1        2 0.44148621E+00 0.20318660E+04</pdfrwt>
<pdfrwt beam="2">  1       -2 0.55333262E-01 0.20318660E+04</pdfrwt>
<totfact> 0.59760746E+00</totfact>
</mgrwt>
</event>
<event>
 6    1  0.2325157E-005  0.2636929E+04  0.7818608E-02  0.8355764E-01
          2   -1    0    0  501    0  0.00000000000E+00  0.00000000000E+00  0.20300111009E+04  0.20300111009E+04  0.00000000000E+00 0.  1.
         -2   -1    0    0    0  501 -0.00000000000E+00 -0.00000000000E+00 -0.85632474271E+03  0.85632474271E+03  0.00000000000E+00 0. -1.
         23    2    1    2    0    0  0.69430643445E+03  0.78675887460E+03 -0.28325233062E+03  0.10908634003E+04  0.93274453532E+02 0.  0.
         13    1    3    3    0    0  0.42345099293E+03  0.54641426607E+03 -0.19054956009E+03  0.71706933307E+03  0.00000000000E+00 0.  1.
        -13    1    3    3    0    0  0.27085544151E+03  0.24034460853E+03 -0.92702770526E+02  0.37379406725E+03  0.00000000000E+00 0. -1.
         22    1    1    2    0    0 -0.69430643445E+03 -0.78675887460E+03  0.14569386888E+04  0.17954724433E+04  0.00000000000E+00 0.  1.
<mgrwt>
<rscale>  0 0.26369291E+04</rscale>
<asrwt>0</asrwt>
<pdfrwt beam="1">  1        2 0.31230940E+00 0.26369291E+04</pdfrwt>
<pdfrwt beam="2">  1       -2 0.13174227E+00 0.26369291E+04</pdfrwt>
<totfact> 0.23804995E+00</totfact>
</mgrwt>
</event>
<event>
 6    1  0.2325157E-005  0.7472874E+03  0.7818608E-02  0.9639616E-01
         -2   -1    0    0    0  501 -0.00000000000E+00  0.00000000000E+00  0.25043426204E+03  0.25043426204E+03  0.00000000000E+00 0. -1.
          2   -1    0    0  501    0  0.00000000000E+00 -0.00000000000E+00 -0.55747004417E+03  0.55747004417E+03  0.00000000000E+00 0.  1.
         23    2    1    2    0    0  0.29856451466E+03  0.14883643222E+03  0.12739669725E+02  0.34579025905E+03  0.90086353551E+02 0.  0.
         13    1    3    3    0    0  0.56348738633E+02  0.25872473037E+02  0.38412925594E+02  0.72939139420E+02  0.00000000000E+00 0. -1.
        -13    1    3    3    0    0  0.24221577603E+03  0.12296395919E+03 -0.25673255869E+02  0.27285111963E+03  0.00000000000E+00 0.  1.
         22    1    1    2    0    0 -0.29856451466E+03 -0.14883643222E+03 -0.31977545185E+03  0.46211404716E+03  0.00000000000E+00 0.  1.
<mgrwt>
<rscale>  0 0.74728736E+03</rscale>
<asrwt>0</asrwt>
<pdfrwt beam="1">  1        2 0.85764622E-01 0.74728736E+03</pdfrwt>
<pdfrwt beam="2">  1       -2 0.38528348E-01 0.74728736E+03</pdfrwt>
<totfact> 0.34717329E+02</totfact>
</mgrwt>
</event>
<event>
 6    1  0.2325157E-005  0.1603204E+04  0.7818608E-02  0.8818582E-01
          2   -1    0    0  501    0  0.00000000000E+00  0.00000000000E+00  0.10523447073E+04  0.10523447073E+04  0.00000000000E+00 0.  1.
         -2   -1    0    0    0  501 -0.00000000000E+00 -0.00000000000E+00 -0.61060360839E+03  0.61060360839E+03  0.00000000000E+00 0. -1.
         23    2    1    2    0    0 -0.11673695021E+03 -0.17796986775E+03  0.10205793092E+04  0.10462194748E+04  0.87705607868E+02 0.  0.
         11    1    3    3    0    0  0.11314609371E+02 -0.32372323271E+02  0.20933362481E+03  0.21212391232E+03  0.00000000000E+00 0.  1.
        -11    1    3    3    0    0 -0.12805155958E+03 -0.14559754448E+03  0.81124568441E+03  0.83409556248E+03  0.00000000000E+00 0. -1.
         22    1    1    2    0    0  0.11673695021E+03  0.17796986775E+03 -0.57883821036E+03  0.61672884086E+03  0.00000000000E+00 0. -1.
<mgrwt>
<rscale>  0 0.16032036E+04</rscale>
<asrwt>0</asrwt>
<pdfrwt beam="1">  1        2 0.16189919E+00 0.16032036E+04</pdfrwt>
<pdfrwt beam="2">  1       -2 0.93939016E-01 0.16032036E+04</pdfrwt>
<totfact> 0.21403235E+01</totfact>
</mgrwt>
</event>
<event>
 6    1  0.2325157E-005  0.1787598E+04  0.7818608E-02  0.8712923E-01
          2   -1    0    0  501    0  0.00000000000E+00  0.00000000000E+00  0.10712676310E+04  0.10712676310E+04  0.00000000000E+00 0.  1.
         -2   -1    0    0    0  501 -0.00000000000E+00 -0.00000000000E+00 -0.74573001498E+03  0.74573001498E+03  0.00000000000E+00 0. -1.
         23    2    1    2    0    0 -0.35967012906E+03  0.81451518059E+03  0.20977218762E+03  0.91911167572E+03  0.89243042274E+02 0.  0.
         11    1    3    3    0    0 -0.11079048972E+03  0.35062762603E+03  0.68359456181E+02  0.37401507991E+03  0.00000000000E+00 0. -1.
        -11    1    3    3    0    0 -0.24887963934E+03  0.46388755456E+03  0.14141273144E+03  0.54509659581E+03  0.00000000000E+00 0.  1.
         22    1    1    2    0    0  0.35967012906E+03 -0.81451518059E+03  0.11576542838E+03  0.89788597024E+03  0.00000000000E+00 0.  1.
<mgrwt>
<rscale>  0 0.17875977E+04</rscale>
<asrwt>0</asrwt>
<pdfrwt beam="1">  1        2 0.16481040E+00 0.17875977E+04</pdfrwt>
<pdfrwt beam="2">  1       -2 0.11472769E+00 0.17875977E+04</pdfrwt>
<totfact> 0.12724168E+01</totfact>
</mgrwt>
</event>
<event>
 6    1  0.2325157E-005  0.4188865E+03  0.7818608E-02  0.1037429E+00
         -2   -1    0    0    0  501 -0.00000000000E+00  0.00000000000E+00  0.90525284332E+03  0.90525284332E+03  0.00000000000E+00 0. -1.
          2   -1    0    0  501    0  0.00000000000E+00 -0.00000000000E+00 -0.48457695443E+02  0.48457695443E+02  0.00000000000E+00 0.  1.
         23    2    1    2    0    0  0.64254050115E+02 -0.17802410634E+03  0.30189102600E+03  0.36741731019E+03  0.89644424555E+02 0.  0.
         11    1    3    3    0    0  0.32567390447E+02 -0.76592918161E+02  0.58185323039E+02  0.10155117848E+03  0.00000000000E+00 0. -1.
        -11    1    3    3    0    0  0.31686659668E+02 -0.10143118818E+03  0.24370570296E+03  0.26586613171E+03  0.00000000000E+00 0.  1.
         22    1    1    2    0    0 -0.64254050115E+02  0.17802410634E+03  0.55490412187E+03  0.58629322857E+03  0.00000000000E+00 0. -1.
<mgrwt>
<rscale>  0 0.41888646E+03</rscale>
<asrwt>0</asrwt>
<pdfrwt beam="1">  1        2 0.74550307E-02 0.41888646E+03</pdfrwt>
<pdfrwt beam="2">  1       -2 0.13926966E+00 0.41888646E+03</pdfrwt>
<totfact> 0.35842206E+02</totfact>
</mgrwt>
</event>
<event>
 6    1  0.2325157E-005  0.8524071E+03  0.7818608E-02  0.9487112E-01
          1   -1    0    0  501    0  0.00000000000E+00  0.00000000000E+00  0.17304184301E+04  0.17304184301E+04  0.00000000000E+00 0.  1.
         -1   -1    0    0    0  501 -0.00000000000E+00 -0.00000000000E+00 -0.10497430508E+03  0.10497430508E+03  0.00000000000E+00 0. -1.
         23    2    1    2    0    0 -0.37913109449E+03 -0.77826557750E+02  0.11765742751E+04  0.12427026795E+04  0.10092356017E+03 0.  0.
         11    1    3    3    0    0 -0.28618072515E+03 -0.21872004097E+02  0.93082315014E+03  0.97406854423E+03  0.00000000000E+00 0.  1.
        -11    1    3    3    0    0 -0.92950369340E+02 -0.55954553653E+02  0.24575112493E+03  0.26863413528E+03  0.00000000000E+00 0. -1.
         22    1    1    2    0    0  0.37913109449E+03  0.77826557750E+02  0.44886984998E+03  0.59269005570E+03  0.00000000000E+00 0.  1.
<mgrwt>
<rscale>  0 0.85240711E+03</rscale>
<asrwt>0</asrwt>
<pdfrwt beam="1">  1        1 0.26621820E+00 0.85240711E+03</pdfrwt>
<pdfrwt beam="2">  1       -1 0.16149894E-01 0.85240711E+03</pdfrwt>
<totfact> 0.13449139E+02</totfact>
</mgrwt>
</event>
<event>
 6    1  0.2812801E-005  0.3323594E+04  0.7818608E-02  0.8156918E-01
          2   -1    0    0  501    0  0.00000000000E+00  0.00000000000E+00  0.15606177296E+04  0.15606177296E+04  0.00000000000E+00 0.  1.
         -2   -1    0    0    0  501 -0.00000000000E+00 -0.00000000000E+00 -0.17695364522E+04  0.17695364522E+04  0.00000000000E+00 0. -1.
         23    2    1    2    0    0 -0.31112584902E+03 -0.34346080112E+03  0.14931924423E+04  0.15660830286E+04  0.90707037771E+02 0.  0.
         13    1    3    3    0    0 -0.11665035207E+03 -0.17652377818E+03  0.78197363076E+03  0.81009302435E+03  0.00000000000E+00 0. -1.
        -13    1    3    3    0    0 -0.19447549695E+03 -0.16693702295E+03  0.71121881159E+03  0.75599000423E+03  0.00000000000E+00 0.  1.
         22    1    1    2    0    0  0.31112584902E+03  0.34346080112E+03 -0.17021111649E+04  0.17640711532E+04  0.00000000000E+00 0. -1.
<mgrwt>
<rscale>  0 0.33235944E+04</rscale>
<asrwt>0</asrwt>
<pdfrwt beam="1">  1        2 0.24009504E+00 0.33235944E+04</pdfrwt>
<pdfrwt beam="2">  1       -2 0.27223638E+00 0.33235944E+04</pdfrwt>
<totfact> 0.45938766E-01</totfact>
</mgrwt>
</event>
<event>
 6    1  0.2325157E-005  0.8612891E+03  0.7818608E-02  0.9475309E-01
         -2   -1    0    0    0  501 -0.00000000000E+00  0.00000000000E+00  0.85145158313E+03  0.85145158313E+03  0.00000000000E+00 0. -1.
          2   -1    0    0  501    0  0.00000000000E+00 -0.00000000000E+00 -0.21781008943E+03  0.21781008943E+03  0.00000000000E+00 0.  1.
         23    2    1    2    0    0  0.13476393022E+03 -0.40432517702E+03  0.36574233452E+03  0.56586309772E+03  0.69234561058E+02 0.  0.
         13    1    3    3    0    0  0.42709293412E+02 -0.14600437918E+03  0.88924370032E+02  0.17620699779E+03  0.00000000000E+00 0.  1.
        -13    1    3    3    0    0  0.92054636813E+02 -0.25832079784E+03  0.27681796448E+03  0.38965609993E+03  0.00000000000E+00 0. -1.
         22    1    1    2    0    0 -0.13476393022E+03  0.40432517702E+03  0.26789915918E+03  0.50339857484E+03  0.00000000000E+00 0. -1.
<mgrwt>
<rscale>  0 0.86128914E+03</rscale>
<asrwt>0</asrwt>
<pdfrwt beam="1">  1        2 0.33509245E-01 0.86128914E+03</pdfrwt>
<pdfrwt beam="2">  1       -2 0.13099255E+00 0.86128914E+03</pdfrwt>
<totfact> 0.67228293E+01</totfact>
</mgrwt>
</event>
<event>
 6    1  0.2325157E-005  0.1046334E+04  0.7818608E-02  0.9259137E-01
         -2   -1    0    0    0  501 -0.00000000000E+00  0.00000000000E+00  0.15363474998E+03  0.15363474998E+03  0.00000000000E+00 0. -1.
          2   -1    0    0  501    0  0.00000000000E+00 -0.00000000000E+00 -0.17815231993E+04  0.17815231993E+04  0.00000000000E+00 0.  1.
         23    2    1    2    0    0 -0.31674973596E+03  0.24089795506E+03 -0.14365879556E+04  0.14936173522E+04  0.93518022916E+02 0.  0.
         11    1    3    3    0    0 -0.28993512606E+03  0.24074129136E+03 -0.12647993756E+04  0.13197485394E+04  0.00000000000E+00 0. -1.
        -11    1    3    3    0    0 -0.26814609892E+02  0.15666369340E+00 -0.17178858004E+03  0.17386881285E+03  0.00000000000E+00 0.  1.
         22    1    1    2    0    0  0.31674973596E+03 -0.24089795506E+03 -0.19130049372E+03  0.44154059709E+03  0.00000000000E+00 0. -1.
<mgrwt>
<rscale>  0 0.10463343E+04</rscale>
<asrwt>0</asrwt>
<pdfrwt beam="1">  1        2 0.27408050E+00 0.10463343E+04</pdfrwt>
<pdfrwt beam="2">  1       -2 0.23636115E-01 0.10463343E+04</pdfrwt>
<totfact> 0.13981153E+02</totfact>
</mgrwt>
</event>
<event>
 6    1  0.2325157E-005  0.3296608E+04  0.7818608E-02  0.8163759E-01
          2   -1    0    0  501    0  0.00000000000E+00  0.00000000000E+00  0.87709449284E+03  0.87709449284E+03  0.00000000000E+00 0.  1.
         -2   -1    0    0    0  501 -0.00000000000E+00 -0.00000000000E+00 -0.30976210672E+04  0.30976210672E+04  0.00000000000E+00 0. -1.
         23    2    1    2    0    0  0.58516632072E+03 -0.51212772232E+03 -0.28616267690E+04  0.29668942037E+04  0.94122389857E+02 0.  0.
         13    1    3    3    0    0  0.37077442077E+03 -0.36060018376E+03 -0.20273510001E+04  0.20922854111E+04  0.00000000000E+00 0.  1.
        -13    1    3    3    0    0  0.21439189994E+03 -0.15152753856E+03 -0.83427576882E+03  0.87460879263E+03  0.00000000000E+00 0. -1.
         22    1    1    2    0    0 -0.58516632072E+03  0.51212772232E+03  0.64110019457E+03  0.10078213564E+04  0.00000000000E+00 0.  1.
<mgrwt>
<rscale>  0 0.32966082E+04</rscale>
<asrwt>0</asrwt>
<pdfrwt beam="1">  1        2 0.13493761E+00 0.32966082E+04</pdfrwt>
<pdfrwt beam="2">  1       -2 0.47655709E+00 0.32966082E+04</pdfrwt>
<totfact> 0.58922137E-02</totfact>
</mgrwt>
</event>
<event>
 6    1  0.2325157E-005  0.1223541E+04  0.7818608E-02  0.9092497E-01
          2   -1    0    0  501    0  0.00000000000E+00  0.00000000000E+00  0.93541594365E+03  0.93541594365E+03  0.00000000000E+00 0.  1.
         -2   -1    0    0    0  501 -0.00000000000E+00 -0.00000000000E+00 -0.40010344304E+03  0.40010344304E+03  0.00000000000E+00 0. -1.
         23    2    1    2    0    0  0.23433719178E+03 -0.26971834142E+03 -0.26828713396E+03  0.45606826478E+03  0.91424136528E+02 0.  0.
         13    1    3    3    0    0  0.11170022507E+03 -0.64579742989E+02 -0.80054539876E+02  0.15184272403E+03  0.00000000000E+00 0.  1.
        -13    1    3    3    0    0  0.12263696671E+03 -0.20513859843E+03 -0.18823259408E+03  0.30422554075E+03  0.00000000000E+00 0. -1.
         22    1    1    2    0    0 -0.23433719178E+03  0.26971834142E+03  0.80359963457E+03  0.87945112191E+03  0.00000000000E+00 0.  1.
<mgrwt>
<rscale>  0 0.12235410E+04</rscale>
<asrwt>0</asrwt>
<pdfrwt beam="1">  1        2 0.14391014E+00 0.12235410E+04</pdfrwt>
<pdfrwt beam="2">  1       -2 0.61554376E-01 0.12235410E+04</pdfrwt>
<totfact> 0.67106138E+01</totfact>
</mgrwt>
</event>
<event>
 6    1  0.2325157E-005  0.1880334E+04  0.7818608E-02  0.8664708E-01
         -2   -1    0    0    0  501 -0.00000000000E+00  0.00000000000E+00  0.52964387634E+03  0.52964387634E+03  0.00000000000E+00 0. -1.
          2   -1    0    0  501    0  0.00000000000E+00 -0.00000000000E+00 -0.16688836710E+04  0.16688836710E+04  0.00000000000E+00 0.  1.
         23    2    1    2    0    0  0.34649046804E+03 -0.73424359326E+02  0.44446018460E+03  0.57570518944E+03  0.91895747855E+02 0.  0.
         11    1    3    3    0    0  0.25189023829E+03 -0.13253286166E+02  0.28245379188E+03  0.37868784809E+03  0.00000000000E+00 0. -1.
        -11    1    3    3    0    0  0.94600229747E+02 -0.60171073160E+02  0.16200639272E+03  0.19701734136E+03  0.00000000000E+00 0.  1.
         22    1    1    2    0    0 -0.34649046804E+03  0.73424359326E+02 -0.15836999793E+04  0.16228223579E+04  0.00000000000E+00 0.  1.
<mgrwt>
<rscale>  0 0.18803340E+04</rscale>
<asrwt>0</asrwt>
<pdfrwt beam="1">  1        2 0.25675133E+00 0.18803340E+04</pdfrwt>
<pdfrwt beam="2">  1       -2 0.81483674E-01 0.18803340E+04</pdfrwt>
<totfact> 0.12695924E+01</totfact>
</mgrwt>
</event>
<event>
 6    1  0.2325157E-005  0.4617091E+03  0.7818608E-02  0.1024287E+00
         -2   -1    0    0    0  501 -0.00000000000E+00  0.00000000000E+00  0.32887005878E+03  0.32887005878E+03  0.00000000000E+00 0.  1.
          2   -1    0    0  501    0  0.00000000000E+00 -0.00000000000E+00 -0.16205129178E+03  0.16205129178E+03  0.00000000000E+00 0. -1.
         23    2    1    2    0    0 -0.17068590234E+03 -0.34432183550E+02 -0.60449960667E+02  0.20461674512E+03  0.88851348415E+02 0.  0.
         13    1    3    3    0    0 -0.14054654633E+03  0.38950690790E+01 -0.66410636063E+02  0.15549558139E+03  0.00000000000E+00 0. -1.
        -13    1    3    3    0    0 -0.30139356008E+02 -0.38327252629E+02  0.59606753965E+01  0.49121163726E+02  0.00000000000E+00 0.  1.
         22    1    1    2    0    0  0.17068590234E+03  0.34432183550E+02  0.22726872767E+03  0.28630460545E+03  0.00000000000E+00 0.  1.
<mgrwt>
<rscale>  0 0.46170908E+03</rscale>
<asrwt>0</asrwt>
<pdfrwt beam="1">  1        2 0.24930968E-01 0.46170908E+03</pdfrwt>
<pdfrwt beam="2">  1       -2 0.50595394E-01 0.46170908E+03</pdfrwt>
<totfact> 0.81491981E+02</totfact>
</mgrwt>
</event>
<event>
 6    1  0.2325157E-005  0.3750647E+03  0.7818608E-02  0.1052773E+00
          2   -1    0    0  501    0  0.00000000000E+00  0.00000000000E+00  0.10405268000E+04  0.10405268000E+04  0.00000000000E+00 0.  1.
         -2   -1    0    0    0  501 -0.00000000000E+00 -0.00000000000E+00 -0.33798628982E+02  0.33798628982E+02  0.00000000000E+00 0. -1.
         23    2    1    2    0    0 -0.10363730287E+03 -0.41838157978E+02  0.92360811232E+03  0.93504130867E+03  0.93590500438E+02 0.  0.
         11    1    3    3    0    0 -0.43579020381E+02  0.28282397287E+02  0.39945217763E+03  0.40281641877E+03  0.00000000000E+00 0.  1.
        -11    1    3    3    0    0 -0.60058282490E+02 -0.70120555265E+02  0.52415593469E+03  0.53222488991E+03  0.00000000000E+00 0. -1.
         22    1    1    2    0    0  0.10363730287E+03  0.41838157978E+02  0.83120058674E+02  0.13928412028E+03  0.00000000000E+00 0. -1.
<mgrwt>
<rscale>  0 0.37506468E+03</rscale>
<asrwt>0</asrwt>
<pdfrwt beam="1">  1        2 0.16008102E+00 0.37506468E+03</pdfrwt>
<pdfrwt beam="2">  1       -2 0.51997898E-02 0.37506468E+03</pdfrwt>
<totfact> 0.45930279E+03</totfact>
</mgrwt>
</event>
<event>
 6    1  0.2325157E-005  0.2533659E+04  0.7818608E-02  0.8391092E-01
         -2   -1    0    0    0  501 -0.00000000000E+00  0.00000000000E+00  0.29266964525E+04  0.29266964525E+04  0.00000000000E+00 0. -1.
          2   -1    0    0  501    0  0.00000000000E+00 -0.00000000000E+00 -0.54835091464E+03  0.54835091464E+03  0.00000000000E+00 0.  1.
         23    2    1    2    0    0 -0.21772388124E+03 -0.12057252982E+04  0.16235726600E+04  0.20359993206E+04  0.90154688547E+02 0.  0.
         13    1    3    3    0    0 -0.35888332001E+02 -0.40483030527E+03  0.50237186210E+03  0.64618343856E+03  0.00000000000E+00 0. -1.
        -13    1    3    3    0    0 -0.18183554924E+03 -0.80089499294E+03  0.11212007979E+04  0.13898158820E+04  0.00000000000E+00 0.  1.
         22    1    1    2    0    0  0.21772388124E+03  0.12057252982E+04  0.75477287786E+03  0.14390480466E+04  0.00000000000E+00 0.  1.
<mgrwt>
<rscale>  0 0.25336588E+04</rscale>
<asrwt>0</asrwt>
<pdfrwt beam="1">  1        2 0.84361681E-01 0.25336588E+04</pdfrwt>
<pdfrwt beam="2">  1       -2 0.45026099E+00 0.25336588E+04</pdfrwt>
<totfact> 0.16971422E-01</totfact>
</mgrwt>
</event>
<event>
 6    1  0.2325157E-005  0.1979652E+04  0.7818608E-02  0.8616193E-01
          2   -1    0    0  501    0  0.00000000000E+00  0.00000000000E+00  0.15018460565E+04  0.15018460565E+04  0.00000000000E+00 0.  1.
         -2   -1    0    0    0  501 -0.00000000000E+00 -0.00000000000E+00 -0.65236776634E+03  0.65236776634E+03  0.00000000000E+00 0. -1.
         23    2    1    2    0    0  0.17992573879E+03 -0.93274123899E+03  0.13091231759E+03  0.96311494057E+03  0.89849114936E+02 0.  0.
         13    1    3    3    0    0  0.16025283181E+03 -0.62192244770E+03  0.10273434163E+03  0.65040206488E+03  0.00000000000E+00 0. -1.
        -13    1    3    3    0    0  0.19672906979E+02 -0.31081879129E+03  0.28177975954E+02  0.31271287568E+03  0.00000000000E+00 0.  1.
         22    1    1    2    0    0 -0.17992573879E+03  0.93274123899E+03  0.71856597257E+03  0.11910988823E+04  0.00000000000E+00 0.  1.
<mgrwt>
<rscale>  0 0.19796525E+04</rscale>
<asrwt>0</asrwt>
<pdfrwt beam="1">  1        2 0.23105324E+00 0.19796525E+04</pdfrwt>
<pdfrwt beam="2">  1       -2 0.10036427E+00 0.19796525E+04</pdfrwt>
<totfact> 0.96513342E+00</totfact>
</mgrwt>
</event>
<event>
 6    1  0.2408928E-005  0.4019009E+04  0.7818608E-02  0.8000723E-01
         -2   -1    0    0    0  501 -0.00000000000E+00  0.00000000000E+00  0.19358941470E+04  0.19358941470E+04  0.00000000000E+00 0. -1.
          2   -1    0    0  501    0  0.00000000000E+00 -0.00000000000E+00 -0.20859140821E+04  0.20859140821E+04  0.00000000000E+00 0.  1.
         23    2    1    2    0    0 -0.82211117684E+02 -0.13186068070E+04  0.14389312067E+04  0.19553503150E+04  0.85960791031E+02 0.  0.
         11    1    3    3    0    0 -0.26355778181E+02 -0.88501940215E+03  0.10047657001E+04  0.13392192058E+04  0.00000000000E+00 0.  1.
        -11    1    3    3    0    0 -0.55855339503E+02 -0.43358740485E+03  0.43416550662E+03  0.61613110921E+03  0.00000000000E+00 0. -1.
         22    1    1    2    0    0  0.82211117684E+02  0.13186068070E+04 -0.15889511419E+04  0.20664579141E+04  0.00000000000E+00 0.  1.
<mgrwt>
<rscale>  0 0.40190093E+04</rscale>
<asrwt>0</asrwt>
<pdfrwt beam="1">  1        2 0.32090986E+00 0.40190093E+04</pdfrwt>
<pdfrwt beam="2">  1       -2 0.29782987E+00 0.40190093E+04</pdfrwt>
<totfact> 0.15445211E-01</totfact>
</mgrwt>
</event>
<event>
 6    1  0.2325157E-005  0.3598835E+04  0.7818608E-02  0.8090759E-01
         -2   -1    0    0    0  501 -0.00000000000E+00  0.00000000000E+00  0.12487918690E+04  0.12487918690E+04  0.00000000000E+00 0. -1.
          2   -1    0    0  501    0  0.00000000000E+00 -0.00000000000E+00 -0.25928281036E+04  0.25928281036E+04  0.00000000000E+00 0.  1.
         23    2    1    2    0    0  0.80046274991E+03 -0.31049391657E+03 -0.23591308701E+04  0.25121222459E+04  0.90070140741E+02 0.  0.
         13    1    3    3    0    0  0.54307087367E+03 -0.25473708770E+03 -0.16545449943E+04  0.17599250256E+04  0.00000000000E+00 0. -1.
        -13    1    3    3    0    0  0.25739187623E+03 -0.55756828870E+02 -0.70458587579E+03  0.75219722034E+03  0.00000000000E+00 0.  1.
         22    1    1    2    0    0 -0.80046274991E+03  0.31049391657E+03  0.10150946355E+04  0.13294977266E+04  0.00000000000E+00 0. -1.
<mgrwt>
<rscale>  0 0.35988346E+04</rscale>
<asrwt>0</asrwt>
<pdfrwt beam="1">  1        2 0.39889663E+00 0.35988346E+04</pdfrwt>
<pdfrwt beam="2">  1       -2 0.19212183E+00 0.35988346E+04</pdfrwt>
<totfact> 0.37567334E-01</totfact>
</mgrwt>
</event>
<event>
 6    1  0.2325157E-005  0.1764076E+04  0.7818608E-02  0.8725640E-01
         -2   -1    0    0    0  501 -0.00000000000E+00  0.00000000000E+00  0.24412514088E+03  0.24412514088E+03  0.00000000000E+00 0. -1.
          2   -1    0    0  501    0  0.00000000000E+00 -0.00000000000E+00 -0.31868542363E+04  0.31868542363E+04  0.00000000000E+00 0.  1.
         23    2    1    2    0    0 -0.69311983577E+03 -0.17331489323E+03 -0.47741394082E+03  0.86422423295E+03  0.92229577572E+02 0.  0.
         13    1    3    3    0    0 -0.31264500058E+03 -0.63544694347E+02 -0.16109400482E+03  0.35740187878E+03  0.00000000000E+00 0. -1.
        -13    1    3    3    0    0 -0.38047483519E+03 -0.10977019889E+03 -0.31631993600E+03  0.50682235417E+03  0.00000000000E+00 0.  1.
         22    1    1    2    0    0  0.69311983577E+03  0.17331489323E+03 -0.24653151546E+04  0.25667551442E+04  0.00000000000E+00 0.  1.
<mgrwt>
<rscale>  0 0.17640762E+04</rscale>
<asrwt>0</asrwt>
<pdfrwt beam="1">  1        2 0.49028528E+00 0.17640762E+04</pdfrwt>
<pdfrwt beam="2">  1       -2 0.37557713E-01 0.17640762E+04</pdfrwt>
<totfact> 0.84217400E+00</totfact>
</mgrwt>
</event>
<event>
 6    1  0.2325157E-005  0.1075084E+04  0.7818608E-02  0.9229822E-01
          2   -1    0    0  501    0  0.00000000000E+00  0.00000000000E+00  0.15549491773E+04  0.15549491773E+04  0.00000000000E+00 0.  1.
         -2   -1    0    0    0  501 -0.00000000000E+00 -0.00000000000E+00 -0.18582705666E+03  0.18582705666E+03  0.00000000000E+00 0. -1.
         23    2    1    2    0    0  0.32563835170E+03 -0.82901771970E+02  0.18762247338E+02  0.34923578277E+03  0.93276846790E+02 0.  0.
         13    1    3    3    0    0  0.89955126094E+02 -0.43355478336E+01 -0.32174218567E+02  0.95634209496E+02  0.00000000000E+00 0. -1.
        -13    1    3    3    0    0  0.23568322561E+03 -0.78566224136E+02  0.50936465905E+02  0.25360157327E+03  0.00000000000E+00 0.  1.
         22    1    1    2    0    0 -0.32563835170E+03  0.82901771970E+02  0.13503598733E+04  0.13915404512E+04  0.00000000000E+00 0.  1.
<mgrwt>
<rscale>  0 0.10750844E+04</rscale>
<asrwt>0</asrwt>
<pdfrwt beam="1">  1        2 0.23922294E+00 0.10750844E+04</pdfrwt>
<pdfrwt beam="2">  1       -2 0.28588779E-01 0.10750844E+04</pdfrwt>
<totfact> 0.13174160E+02</totfact>
</mgrwt>
</event>
<event>
 6    1  0.2325157E-005  0.1047652E+04  0.7818608E-02  0.9257771E-01
         -2   -1    0    0    0  501 -0.00000000000E+00  0.00000000000E+00  0.17325989452E+03  0.17325989452E+03  0.00000000000E+00 0. -1.
          2   -1    0    0  501    0  0.00000000000E+00 -0.00000000000E+00 -0.15837125293E+04  0.15837125293E+04  0.00000000000E+00 0.  1.
         23    2    1    2    0    0 -0.12272985563E+03  0.36012438262E+03 -0.13041152050E+04  0.13619283283E+04  0.96850994620E+02 0.  0.
         11    1    3    3    0    0 -0.12154100934E+02  0.14623528678E+03 -0.60385872698E+03  0.62143209076E+03  0.00000000000E+00 0. -1.
        -11    1    3    3    0    0 -0.11057575469E+03  0.21388909584E+03 -0.70025647799E+03  0.74049623754E+03  0.00000000000E+00 0.  1.
         22    1    1    2    0    0  0.12272985563E+03 -0.36012438262E+03 -0.10633742978E+03  0.39504409550E+03  0.00000000000E+00 0. -1.
<mgrwt>
<rscale>  0 0.10476524E+04</rscale>
<asrwt>0</asrwt>
<pdfrwt beam="1">  1        2 0.24364808E+00 0.10476524E+04</pdfrwt>
<pdfrwt beam="2">  1       -2 0.26655368E-01 0.10476524E+04</pdfrwt>
<totfact> 0.14466817E+02</totfact>
</mgrwt>
</event>
<event>
 6    1  0.2325157E-005  0.2444993E+04  0.7818608E-02  0.8422848E-01
         -2   -1    0    0    0  501 -0.00000000000E+00  0.00000000000E+00  0.11242769787E+04  0.11242769787E+04  0.00000000000E+00 0. -1.
          2   -1    0    0  501    0  0.00000000000E+00 -0.00000000000E+00 -0.13292967433E+04  0.13292967433E+04  0.00000000000E+00 0.  1.
         23    2    1    2    0    0 -0.39728729661E+03 -0.94909121210E+03 -0.76224973793E+03  0.12834811752E+04  0.87680894017E+02 0.  0.
         11    1    3    3    0    0 -0.22419091291E+03 -0.43888981549E+03 -0.39265097850E+03  0.63012746845E+03  0.00000000000E+00 0. -1.
        -11    1    3    3    0    0 -0.17309638370E+03 -0.51020139661E+03 -0.36959875943E+03  0.65335370675E+03  0.00000000000E+00 0.  1.
         22    1    1    2    0    0  0.39728729661E+03  0.94909121210E+03  0.55722997329E+03  0.11700925468E+04  0.00000000000E+00 0. -1.
<mgrwt>
<rscale>  0 0.24449930E+04</rscale>
<asrwt>0</asrwt>
<pdfrwt beam="1">  1        2 0.20450719E+00 0.24449930E+04</pdfrwt>
<pdfrwt beam="2">  1       -2 0.17296569E+00 0.24449930E+04</pdfrwt>
<totfact> 0.28920670E+00</totfact>
</mgrwt>
</event>
<event>
 6    1  0.2325157E-005  0.1059981E+04  0.7818608E-02  0.9245099E-01
         -2   -1    0    0    0  501 -0.00000000000E+00  0.00000000000E+00  0.96229138824E+03  0.96229138824E+03  0.00000000000E+00 0. -1.
          2   -1    0    0  501    0  0.00000000000E+00 -0.00000000000E+00 -0.29189709802E+03  0.29189709802E+03  0.00000000000E+00 0.  1.
         23    2    1    2    0    0 -0.20544378523E+03  0.43970062211E+03  0.97466941729E+02  0.50332928999E+03  0.91086681042E+02 0.  0.
         13    1    3    3    0    0 -0.64066324623E+02  0.97691092904E+02 -0.11898406743E+02  0.11742919427E+03  0.00000000000E+00 0.  1.
        -13    1    3    3    0    0 -0.14137746061E+03  0.34200952920E+03  0.10936534847E+03  0.38590009573E+03  0.00000000000E+00 0. -1.
         22    1    1    2    0    0  0.20544378523E+03 -0.43970062211E+03  0.57292734849E+03  0.75085919627E+03  0.00000000000E+00 0. -1.
<mgrwt>
<rscale>  0 0.10599813E+04</rscale>
<asrwt>0</asrwt>
<pdfrwt beam="1">  1        2 0.44907246E-01 0.10599813E+04</pdfrwt>
<pdfrwt beam="2">  1       -2 0.14804483E+00 0.10599813E+04</pdfrwt>
<totfact> 0.34909580E+01</totfact>
</mgrwt>
</event>
<event>
 6    1  0.2325157E-005  0.1204781E+04  0.7818608E-02  0.9108682E-01
         -2   -1    0    0    0  501 -0.00000000000E+00  0.00000000000E+00  0.17924558960E+03  0.17924558960E+03  0.00000000000E+00 0. -1.
          2   -1    0    0  501    0  0.00000000000E+00 -0.00000000000E+00 -0.20244532724E+04  0.20244532724E+04  0.00000000000E+00 0.  1.
         23    2    1    2    0    0  0.43198171559E+03  0.40353596243E+02 -0.16831423408E+04  0.17405554821E+04  0.91261334957E+02 0.  0.
         13    1    3    3    0    0  0.20977461849E+03  0.55126907600E+02 -0.71753255164E+03  0.74959811177E+03  0.00000000000E+00 0. -1.
        -13    1    3    3    0    0  0.22220709709E+03 -0.14773311357E+02 -0.96560978920E+03  0.99095737029E+03  0.00000000000E+00 0.  1.
         22    1    1    2    0    0 -0.43198171559E+03 -0.40353596243E+02 -0.16206534196E+03  0.46314337995E+03  0.00000000000E+00 0. -1.
<mgrwt>
<rscale>  0 0.12047810E+04</rscale>
<asrwt>0</asrwt>
<pdfrwt beam="1">  1        2 0.31145436E+00 0.12047810E+04</pdfrwt>
<pdfrwt beam="2">  1       -2 0.27576244E-01 0.12047810E+04</pdfrwt>
<totfact> 0.76696266E+01</totfact>
</mgrwt>
</event>
<event>
 6    1  0.2325157E-005  0.2020984E+04  0.7818608E-02  0.8596872E-01
         -2   -1    0    0    0  501 -0.00000000000E+00  0.00000000000E+00  0.48117454124E+03  0.48117454124E+03  0.00000000000E+00 0. -1.
          2   -1    0    0  501    0  0.00000000000E+00 -0.00000000000E+00 -0.21220859933E+04  0.21220859933E+04  0.00000000000E+00 0.  1.
         23    2    1    2    0    0  0.11908204365E+03  0.92239404576E+03 -0.13242882892E+04  0.16207934684E+04  0.90778222170E+02 0.  0.
         13    1    3    3    0    0  0.10305604260E+02  0.30052330220E+03 -0.37357272673E+03  0.47955921720E+03  0.00000000000E+00 0. -1.
        -13    1    3    3    0    0  0.10877643939E+03  0.62187074357E+03 -0.95071556243E+03  0.11412342512E+04  0.00000000000E+00 0.  1.
         22    1    1    2    0    0 -0.11908204365E+03 -0.92239404576E+03 -0.31662316291E+03  0.98246706615E+03  0.00000000000E+00 0. -1.
<mgrwt>
<rscale>  0 0.20209837E+04</rscale>
<asrwt>0</asrwt>
<pdfrwt beam="1">  1        2 0.32647477E+00 0.20209837E+04</pdfrwt>
<pdfrwt beam="2">  1       -2 0.74026852E-01 0.20209837E+04</pdfrwt>
<totfact> 0.87060783E+00</totfact>
</mgrwt>
</event>
<event>
 6    1  0.2325157E-005  0.2224203E+04  0.7818608E-02  0.8508421E-01
          2   -1    0    0  501    0  0.00000000000E+00  0.00000000000E+00  0.32346852844E+04  0.32346852844E+04  0.00000000000E+00 0.  1.
         -2   -1    0    0    0  501 -0.00000000000E+00 -0.00000000000E+00 -0.38234617755E+03  0.38234617755E+03  0.00000000000E+00 0. -1.
         23    2    1    2    0    0 -0.64579978413E+03  0.73811751288E+03  0.22746923438E+04  0.24788088972E+04  0.91615860798E+02 0.  0.
         13    1    3    3    0    0 -0.17766991355E+03  0.14452759108E+03  0.53546644298E+03  0.58239087761E+03  0.00000000000E+00 0. -1.
        -13    1    3    3    0    0 -0.46812987059E+03  0.59358992180E+03  0.17392259008E+04  0.18964180196E+04  0.00000000000E+00 0.  1.
         22    1    1    2    0    0  0.64579978413E+03 -0.73811751288E+03  0.57764676305E+03  0.11382225647E+04  0.00000000000E+00 0. -1.
<mgrwt>
<rscale>  0 0.22242028E+04</rscale>
<asrwt>0</asrwt>
<pdfrwt beam="1">  1        2 0.49764387E+00 0.22242028E+04</pdfrwt>
<pdfrwt beam="2">  1       -2 0.58822491E-01 0.22242028E+04</pdfrwt>
<totfact> 0.30378224E+00</totfact>
</mgrwt>
</event>
<event>
 6    1  0.2325157E-005  0.2061800E+04  0.7818608E-02  0.8578260E-01
         -2   -1    0    0    0  501 -0.00000000000E+00  0.00000000000E+00  0.99361106376E+03  0.99361106376E+03  0.00000000000E+00 0. -1.
          2   -1    0    0  501    0  0.00000000000E+00 -0.00000000000E+00 -0.10695883612E+04  0.10695883612E+04  0.00000000000E+00 0.  1.
         23    2    1    2    0    0  0.24426959757E+03  0.99625351637E+03  0.41482480687E+02  0.10307336848E+04  0.92208608773E+02 0.  0.
         13    1    3    3    0    0  0.33304706758E+02  0.28693783740E+03 -0.88566500875E+01  0.28899994165E+03  0.00000000000E+00 0. -1.
        -13    1    3    3    0    0  0.21096489081E+03  0.70931567897E+03  0.50339130775E+02  0.74173374312E+03  0.00000000000E+00 0.  1.
         22    1    1    2    0    0 -0.24426959757E+03 -0.99625351637E+03 -0.11745977811E+03  0.10324657402E+04  0.00000000000E+00 0. -1.
<mgrwt>
<rscale>  0 0.20618000E+04</rscale>
<asrwt>0</asrwt>
<pdfrwt beam="1">  1        2 0.16455206E+00 0.20618000E+04</pdfrwt>
<pdfrwt beam="2">  1       -2 0.15286324E+00 0.20618000E+04</pdfrwt>
<totfact> 0.59929730E+00</totfact>
</mgrwt>
</event>
<event>
 6    1  0.2325157E-005  0.2259387E+04  0.7818608E-02  0.8494109E-01
         -2   -1    0    0    0  501 -0.00000000000E+00  0.00000000000E+00  0.11150835828E+04  0.11150835828E+04  0.00000000000E+00 0. -1.
          2   -1    0    0  501    0  0.00000000000E+00 -0.00000000000E+00 -0.11444949013E+04  0.11444949013E+04  0.00000000000E+00 0.  1.
         23    2    1    2    0    0 -0.15137662086E+03 -0.42239007250E+03 -0.10495829805E+04  0.11450927396E+04  0.91020297965E+02 0.  0.
         13    1    3    3    0    0 -0.12543425938E+03 -0.21567980593E+03 -0.57297666155E+03  0.62494302684E+03  0.00000000000E+00 0. -1.
        -13    1    3    3    0    0 -0.25942361478E+02 -0.20671026656E+03 -0.47660631893E+03  0.52014971275E+03  0.00000000000E+00 0.  1.
         22    1    1    2    0    0  0.15137662086E+03  0.42239007250E+03  0.10201716621E+04  0.11144857445E+04  0.00000000000E+00 0. -1.
<mgrwt>
<rscale>  0 0.22593871E+04</rscale>
<asrwt>0</asrwt>
<pdfrwt beam="1">  1        2 0.17607614E+00 0.22593871E+04</pdfrwt>
<pdfrwt beam="2">  1       -2 0.17155132E+00 0.22593871E+04</pdfrwt>
<totfact> 0.38670492E+00</totfact>
</mgrwt>
</event>
<event>
 6    1  0.2325157E-005  0.1679243E+04  0.7818608E-02  0.8773292E-01
          1   -1    0    0  501    0  0.00000000000E+00  0.00000000000E+00  0.16308711085E+04  0.16308711085E+04  0.00000000000E+00 0. -1.
         -1   -1    0    0    0  501 -0.00000000000E+00 -0.00000000000E+00 -0.43226221940E+03  0.43226221940E+03  0.00000000000E+00 0.  1.
         23    2    1    2    0    0 -0.64917357147E+03 -0.51444496095E+03  0.45275117738E+03  0.94851066984E+03  0.92784257474E+02 0.  0.
         13    1    3    3    0    0 -0.52397736798E+03 -0.45816139077E+03  0.38540848192E+03  0.79561538452E+03  0.00000000000E+00 0.  1.
        -13    1    3    3    0    0 -0.12519620349E+03 -0.56283570177E+02  0.67342695460E+02  0.15289528532E+03  0.00000000000E+00 0. -1.
         22    1    1    2    0    0  0.64917357147E+03  0.51444496095E+03  0.74585771175E+03  0.11146226581E+04  0.00000000000E+00 0. -1.
<mgrwt>
<rscale>  0 0.16792426E+04</rscale>
<asrwt>0</asrwt>
<pdfrwt beam="1">  1        1 0.25090324E+00 0.16792426E+04</pdfrwt>
<pdfrwt beam="2">  1       -1 0.66501881E-01 0.16792426E+04</pdfrwt>
<totfact> 0.11606649E+01</totfact>
</mgrwt>
</event>
<event>
 6    1  0.2325157E-005  0.1964121E+04  0.7818608E-02  0.8623581E-01
         -1   -1    0    0    0  501 -0.00000000000E+00  0.00000000000E+00  0.68965503015E+03  0.68965503015E+03  0.00000000000E+00 0. -1.
          1   -1    0    0  501    0  0.00000000000E+00 -0.00000000000E+00 -0.13984423358E+04  0.13984423358E+04  0.00000000000E+00 0.  1.
         23    2    1    2    0    0 -0.50559673312E+03 -0.63928090030E+03 -0.93348897514E+03  0.12426395217E+04  0.91886822729E+02 0.  0.
         11    1    3    3    0    0 -0.17825912073E+03 -0.22163144185E+03 -0.39381356454E+03  0.48578383439E+03  0.00000000000E+00 0.  1.
        -11    1    3    3    0    0 -0.32733761239E+03 -0.41764945845E+03 -0.53967541059E+03  0.75685568732E+03  0.00000000000E+00 0. -1.
         22    1    1    2    0    0  0.50559673312E+03  0.63928090030E+03  0.22470166953E+03  0.84545784420E+03  0.00000000000E+00 0.  1.
<mgrwt>
<rscale>  0 0.19641210E+04</rscale>
<asrwt>0</asrwt>
<pdfrwt beam="1">  1        1 0.21514497E+00 0.19641210E+04</pdfrwt>
<pdfrwt beam="2">  1       -1 0.10610078E+00 0.19641210E+04</pdfrwt>
<totfact> 0.59548805E+00</totfact>
</mgrwt>
</event>
<event>
 6    1  0.2325157E-005  0.2117417E+04  0.7818608E-02  0.8553609E-01
         -2   -1    0    0    0  501 -0.00000000000E+00  0.00000000000E+00  0.87431569405E+03  0.87431569405E+03  0.00000000000E+00 0. -1.
          2   -1    0    0  501    0  0.00000000000E+00 -0.00000000000E+00 -0.12819900821E+04  0.12819900821E+04  0.00000000000E+00 0.  1.
         23    2    1    2    0    0  0.99247926966E+03 -0.32131515012E+03 -0.37664681815E+03  0.11126481520E+04  0.88682343658E+02 0.  0.
         11    1    3    3    0    0  0.50206348284E+03 -0.20813434932E+03 -0.20516613515E+03  0.58093096938E+03  0.00000000000E+00 0. -1.
        -11    1    3    3    0    0  0.49041578682E+03 -0.11318080080E+03 -0.17148068301E+03  0.53171718261E+03  0.00000000000E+00 0.  1.
         22    1    1    2    0    0 -0.99247926966E+03  0.32131515012E+03 -0.31027569902E+02  0.10436576242E+04  0.00000000000E+00 0. -1.
<mgrwt>
<rscale>  0 0.21174173E+04</rscale>
<asrwt>0</asrwt>
<pdfrwt beam="1">  1        2 0.19722924E+00 0.21174173E+04</pdfrwt>
<pdfrwt beam="2">  1       -2 0.13451011E+00 0.21174173E+04</pdfrwt>
<totfact> 0.62074962E+00</totfact>
</mgrwt>
</event>
<event>
 6    1  0.2325157E-005  0.8166415E+03  0.7818608E-02  0.9536237E-01
         -2   -1    0    0    0  501 -0.00000000000E+00  0.00000000000E+00  0.51780514973E+02  0.51780514973E+02  0.00000000000E+00 0. -1.
          2   -1    0    0  501    0  0.00000000000E+00 -0.00000000000E+00 -0.32198567555E+04  0.32198567555E+04  0.00000000000E+00 0.  1.
         23    2    1    2    0    0  0.31644487168E+03 -0.21547909900E+02 -0.26013860841E+04  0.26222226089E+04  0.90775453697E+02 0.  0.
         13    1    3    3    0    0  0.18303289377E+03  0.23610858743E+02 -0.16848889861E+04  0.16949659018E+04  0.00000000000E+00 0. -1.
        -13    1    3    3    0    0  0.13341197792E+03 -0.45158768643E+02 -0.91649709803E+03  0.92725670714E+03  0.00000000000E+00 0.  1.
         22    1    1    2    0    0 -0.31644487168E+03  0.21547909900E+02 -0.56669015641E+03  0.64941466153E+03  0.00000000000E+00 0. -1.
<mgrwt>
<rscale>  0 0.81664151E+03</rscale>
<asrwt>0</asrwt>
<pdfrwt beam="1">  1        2 0.49536263E+00 0.81664151E+03</pdfrwt>
<pdfrwt beam="2">  1       -2 0.79662322E-02 0.81664151E+03</pdfrwt>
<totfact> 0.13158119E+02</totfact>
</mgrwt>
</event>
<event>
 6    1  0.2325157E-005  0.1664995E+04  0.7818608E-02  0.8781585E-01
          2   -1    0    0  501    0  0.00000000000E+00  0.00000000000E+00  0.33652598875E+04  0.33652598875E+04  0.00000000000E+00 0.  1.
         -2   -1    0    0    0  501 -0.00000000000E+00 -0.00000000000E+00 -0.20594306110E+03  0.20594306110E+03  0.00000000000E+00 0. -1.
         23    2    1    2    0    0 -0.62341403187E+03  0.10962443427E+03  0.43314476264E+03  0.77251098753E+03  0.92175206672E+02 0.  0.
         11    1    3    3    0    0 -0.46939948857E+03  0.42454641889E+02  0.30853435248E+03  0.56332204213E+03  0.00000000000E+00 0. -1.
        -11    1    3    3    0    0 -0.15401454330E+03  0.67169792381E+02  0.12461041016E+03  0.20918894540E+03  0.00000000000E+00 0.  1.
         22    1    1    2    0    0  0.62341403187E+03 -0.10962443427E+03  0.27261720638E+04  0.27986919611E+04  0.00000000000E+00 0.  1.
<mgrwt>
<rscale>  0 0.16649948E+04</rscale>
<asrwt>0</asrwt>
<pdfrwt beam="1">  1        2 0.51773225E+00 0.16649948E+04</pdfrwt>
<pdfrwt beam="2">  1       -2 0.31683550E-01 0.16649948E+04</pdfrwt>
<totfact> 0.89710447E+00</totfact>
</mgrwt>
</event>
<event>
 6    1  0.2325157E-005  0.2356409E+04  0.7818608E-02  0.8456006E-01
          2   -1    0    0  501    0  0.00000000000E+00  0.00000000000E+00  0.31718921259E+04  0.31718921259E+04  0.00000000000E+00 0.  1.
         -2   -1    0    0    0  501 -0.00000000000E+00 -0.00000000000E+00 -0.43764599485E+03  0.43764599485E+03  0.00000000000E+00 0. -1.
         23    2    1    2    0    0  0.26193969804E+03  0.95156975813E+03  0.23498633703E+04  0.25503650863E+04  0.91688628590E+02 0.  0.
         13    1    3    3    0    0  0.20600878372E+03  0.67209528873E+03  0.17621068159E+04  0.18971484198E+04  0.00000000000E+00 0. -1.
        -13    1    3    3    0    0  0.55930914314E+02  0.27947446941E+03  0.58775655439E+03  0.65321666655E+03  0.00000000000E+00 0.  1.
         22    1    1    2    0    0 -0.26193969804E+03 -0.95156975813E+03  0.38438276074E+03  0.10591730344E+04  0.00000000000E+00 0. -1.
<mgrwt>
<rscale>  0 0.23564090E+04</rscale>
<asrwt>0</asrwt>
<pdfrwt beam="1">  1        2 0.48798339E+00 0.23564090E+04</pdfrwt>
<pdfrwt beam="2">  1       -2 0.67330155E-01 0.23564090E+04</pdfrwt>
<totfact> 0.24721879E+00</totfact>
</mgrwt>
</event>
<event>
 6    1  0.2325157E-005  0.1584941E+04  0.7818608E-02  0.8829853E-01
         -2   -1    0    0    0  501 -0.00000000000E+00  0.00000000000E+00  0.10222933799E+04  0.10222933799E+04  0.00000000000E+00 0. -1.
          2   -1    0    0  501    0  0.00000000000E+00 -0.00000000000E+00 -0.61431453900E+03  0.61431453900E+03  0.00000000000E+00 0.  1.
         23    2    1    2    0    0 -0.26229952393E+03 -0.71978383133E+03  0.63602073609E+01  0.77162969322E+03  0.92098464284E+02 0.  0.
         11    1    3    3    0    0 -0.64949493488E+02 -0.27942555296E+03 -0.25597405550E+02  0.28801441547E+03  0.00000000000E+00 0. -1.
        -11    1    3    3    0    0 -0.19735003044E+03 -0.44035827837E+03  0.31957612911E+02  0.48361527775E+03  0.00000000000E+00 0.  1.
         22    1    1    2    0    0  0.26229952393E+03  0.71978383133E+03  0.40161863353E+03  0.86497822567E+03  0.00000000000E+00 0.  1.
<mgrwt>
<rscale>  0 0.15849412E+04</rscale>
<asrwt>0</asrwt>
<pdfrwt beam="1">  1        2 0.94509929E-01 0.15849412E+04</pdfrwt>
<pdfrwt beam="2">  1       -2 0.15727590E+00 0.15849412E+04</pdfrwt>
<totfact> 0.12201824E+01</totfact>
</mgrwt>
</event>
<event>
 6    1  0.2325157E-005  0.4208826E+04  0.7818608E-02  0.7963695E-01
          2   -1    0    0  501    0  0.00000000000E+00  0.00000000000E+00  0.37577900209E+04  0.37577900209E+04  0.00000000000E+00 0.  1.
         -2   -1    0    0    0  501 -0.00000000000E+00 -0.00000000000E+00 -0.11784998322E+04  0.11784998322E+04  0.00000000000E+00 0. -1.
         23    2    1    2    0    0  0.14688916372E+03  0.20120774645E+04  0.59290140812E+03  0.21050758842E+04  0.98895142675E+02 0.  0.
         11    1    3    3    0    0  0.18101984484E+02  0.15126353581E+03  0.19028796525E+02  0.15352665633E+03  0.00000000000E+00 0.  1.
        -11    1    3    3    0    0  0.12878717923E+03  0.18608139287E+04  0.57387261160E+03  0.19515492279E+04  0.00000000000E+00 0. -1.
         22    1    1    2    0    0 -0.14688916372E+03 -0.20120774645E+04  0.19863887807E+04  0.28312139688E+04  0.00000000000E+00 0.  1.
<mgrwt>
<rscale>  0 0.42088264E+04</rscale>
<asrwt>0</asrwt>
<pdfrwt beam="1">  1        2 0.57812154E+00 0.42088264E+04</pdfrwt>
<pdfrwt beam="2">  1       -2 0.18130767E+00 0.42088264E+04</pdfrwt>
<totfact> 0.72616706E-02</totfact>
</mgrwt>
</event>
<event>
 6    1  0.2325157E-005  0.2714593E+04  0.7818608E-02  0.8330286E-01
          2   -1    0    0  501    0  0.00000000000E+00  0.00000000000E+00  0.13230154928E+04  0.13230154928E+04  0.00000000000E+00 0.  1.
         -2   -1    0    0    0  501 -0.00000000000E+00 -0.00000000000E+00 -0.13924654123E+04  0.13924654123E+04  0.00000000000E+00 0. -1.
         23    2    1    2    0    0 -0.13412395656E+04 -0.14074967557E+03  0.10359678201E+03  0.13558194751E+04  0.93702253202E+02 0.  0.
         13    1    3    3    0    0 -0.77309497703E+03 -0.68470183344E+02  0.14869938780E+02  0.77626356645E+03  0.00000000000E+00 0. -1.
        -13    1    3    3    0    0 -0.56814458856E+03 -0.72279492229E+02  0.88726843232E+02  0.57955590862E+03  0.00000000000E+00 0.  1.
         22    1    1    2    0    0  0.13412395656E+04  0.14074967557E+03 -0.17304670149E+03  0.13596614301E+04  0.00000000000E+00 0. -1.
<mgrwt>
<rscale>  0 0.27145926E+04</rscale>
<asrwt>0</asrwt>
<pdfrwt beam="1">  1        2 0.20354085E+00 0.27145926E+04</pdfrwt>
<pdfrwt beam="2">  1       -2 0.21422545E+00 0.27145926E+04</pdfrwt>
<totfact> 0.15109300E+00</totfact>
</mgrwt>
</event>
<event>
 6    1  0.2325157E-005  0.1639955E+04  0.7818608E-02  0.8796371E-01
         -2   -1    0    0    0  501 -0.00000000000E+00  0.00000000000E+00  0.42415284977E+03  0.42415284977E+03  0.00000000000E+00 0. -1.
          2   -1    0    0  501    0  0.00000000000E+00 -0.00000000000E+00 -0.15851898773E+04  0.15851898773E+04  0.00000000000E+00 0.  1.
         23    2    1    2    0    0 -0.20841094848E+03  0.46093859200E+03  0.20432004712E+03  0.55328659823E+03  0.92086204632E+02 0.  0.
         13    1    3    3    0    0 -0.83638164714E+02  0.93941645262E+02  0.37171953166E+02  0.13115688855E+03  0.00000000000E+00 0.  1.
        -13    1    3    3    0    0 -0.12477278377E+03  0.36699694673E+03  0.16714809395E+03  0.42212970968E+03  0.00000000000E+00 0. -1.
         22    1    1    2    0    0  0.20841094848E+03 -0.46093859200E+03 -0.13653570746E+04  0.14560561288E+04  0.00000000000E+00 0.  1.
<mgrwt>
<rscale>  0 0.16399546E+04</rscale>
<asrwt>0</asrwt>
<pdfrwt beam="1">  1        2 0.24387537E+00 0.16399546E+04</pdfrwt>
<pdfrwt beam="2">  1       -2 0.65254284E-01 0.16399546E+04</pdfrwt>
<totfact> 0.23522776E+01</totfact>
</mgrwt>
</event>
<event>
 6    1  0.2325157E-005  0.6845374E+04  0.7818608E-02  0.7593596E-01
          2   -1    0    0  501    0  0.00000000000E+00  0.00000000000E+00  0.47406727023E+04  0.47406727023E+04  0.00000000000E+00 0.  1.
         -2   -1    0    0    0  501 -0.00000000000E+00 -0.00000000000E+00 -0.24711230382E+04  0.24711230382E+04  0.00000000000E+00 0. -1.
         23    2    1    2    0    0  0.19819008133E+04 -0.26061391757E+04  0.21835665148E+04  0.39365422635E+04  0.92249825594E+02 0.  0.
         11    1    3    3    0    0  0.13042892628E+04 -0.17587975634E+04  0.15012958110E+04  0.26548876553E+04  0.00000000000E+00 0. -1.
        -11    1    3    3    0    0  0.67761155050E+03 -0.84734161229E+03  0.68227070386E+03  0.12816546082E+04  0.00000000000E+00 0.  1.
         22    1    1    2    0    0 -0.19819008133E+04  0.26061391757E+04  0.85983149240E+02  0.32752534771E+04  0.00000000000E+00 0.  1.
<mgrwt>
<rscale>  0 0.68453738E+04</rscale>
<asrwt>0</asrwt>
<pdfrwt beam="1">  1        2 0.72933426E+00 0.68453738E+04</pdfrwt>
<pdfrwt beam="2">  1       -2 0.38017277E+00 0.68453738E+04</pdfrwt>
<totfact> 0.42931609E-04</totfact>
</mgrwt>
</event>
<event>
 6    1  0.4356655E-005  0.4272565E+04  0.7818608E-02  0.7951711E-01
          2   -1    0    0  501    0  0.00000000000E+00  0.00000000000E+00  0.30961512768E+04  0.30961512768E+04  0.00000000000E+00 0.  1.
         -2   -1    0    0    0  501 -0.00000000000E+00 -0.00000000000E+00 -0.14739924350E+04  0.14739924350E+04  0.00000000000E+00 0. -1.
         23    2    1    2    0    0  0.13716426920E+04  0.64407152024E+03 -0.79801372462E+03  0.17147160644E+04  0.84814380738E+02 0.  0.
         13    1    3    3    0    0  0.57585542145E+03  0.28138911345E+03 -0.38366888243E+03  0.74698802596E+03  0.00000000000E+00 0.  1.
        -13    1    3    3    0    0  0.79578727055E+03  0.36268240679E+03 -0.41434484220E+03  0.96772803846E+03  0.00000000000E+00 0. -1.
         22    1    1    2    0    0 -0.13716426920E+04 -0.64407152024E+03  0.24201725665E+04  0.28554276473E+04  0.00000000000E+00 0. -1.
<mgrwt>
<rscale>  0 0.42725653E+04</rscale>
<asrwt>0</asrwt>
<pdfrwt beam="1">  1        2 0.47633096E+00 0.42725653E+04</pdfrwt>
<pdfrwt beam="2">  1       -2 0.22676807E+00 0.42725653E+04</pdfrwt>
<totfact> 0.10454914E-01</totfact>
</mgrwt>
</event>
<event>
 6    1  0.2325157E-005  0.3415750E+04  0.7818608E-02  0.8134051E-01
          2   -1    0    0  501    0  0.00000000000E+00  0.00000000000E+00  0.20349698904E+04  0.20349698904E+04  0.00000000000E+00 0.  1.
         -2   -1    0    0    0  501 -0.00000000000E+00 -0.00000000000E+00 -0.14333567035E+04  0.14333567035E+04  0.00000000000E+00 0. -1.
         23    2    1    2    0    0  0.14755196314E+04 -0.53132164334E+03 -0.38244851500E+03  0.16168843711E+04  0.92667855585E+02 0.  0.
         13    1    3    3    0    0  0.56333909629E+03 -0.15575070423E+03 -0.13564201756E+03  0.60000664680E+03  0.00000000000E+00 0. -1.
        -13    1    3    3    0    0  0.91218053511E+03 -0.37557093912E+03 -0.24680649744E+03  0.10168777243E+04  0.00000000000E+00 0.  1.
         22    1    1    2    0    0 -0.14755196314E+04  0.53132164334E+03  0.98406170186E+03  0.18514422228E+04  0.00000000000E+00 0.  1.
<mgrwt>
<rscale>  0 0.34157504E+04</rscale>
<asrwt>0</asrwt>
<pdfrwt beam="1">  1        2 0.31307229E+00 0.34157504E+04</pdfrwt>
<pdfrwt beam="2">  1       -2 0.22051641E+00 0.34157504E+04</pdfrwt>
<totfact> 0.51849742E-01</totfact>
</mgrwt>
</event>
<event>
 6    1  0.2325157E-005  0.2364718E+04  0.7818608E-02  0.8452832E-01
          2   -1    0    0  501    0  0.00000000000E+00  0.00000000000E+00  0.30530863006E+04  0.30530863006E+04  0.00000000000E+00 0.  1.
         -2   -1    0    0    0  501 -0.00000000000E+00 -0.00000000000E+00 -0.45788850551E+03  0.45788850551E+03  0.00000000000E+00 0. -1.
         23    2    1    2    0    0 -0.11478590517E+04  0.27194437886E+03  0.12242722971E+04  0.17023922482E+04  0.88105400752E+02 0.  0.
         13    1    3    3    0    0 -0.30075561617E+03  0.54959169513E+02  0.36919932098E+03  0.47935643271E+03  0.00000000000E+00 0. -1.
        -13    1    3    3    0    0 -0.84710343549E+03  0.21698520935E+03  0.85507297614E+03  0.12230358155E+04  0.00000000000E+00 0.  1.
         22    1    1    2    0    0  0.11478590517E+04 -0.27194437886E+03  0.13709254979E+04  0.18085825579E+04  0.00000000000E+00 0. -1.
<mgrwt>
<rscale>  0 0.23647183E+04</rscale>
<asrwt>0</asrwt>
<pdfrwt beam="1">  1        2 0.46970557E+00 0.23647183E+04</pdfrwt>
<pdfrwt beam="2">  1       -2 0.70444387E-01 0.23647183E+04</pdfrwt>
<totfact> 0.26671203E+00</totfact>
</mgrwt>
</event>
<event>
 6    1  0.2325157E-005  0.4929256E+04  0.7818608E-02  0.7839514E-01
         -2   -1    0    0    0  501 -0.00000000000E+00  0.00000000000E+00  0.16192336576E+04  0.16192336576E+04  0.00000000000E+00 0. -1.
          2   -1    0    0  501    0  0.00000000000E+00 -0.00000000000E+00 -0.37513992680E+04  0.37513992680E+04  0.00000000000E+00 0.  1.
         23    2    1    2    0    0 -0.15653711071E+04 -0.84191422362E+03 -0.29251482041E+04  0.34243473205E+04  0.10225601391E+03 0.  0.
         13    1    3    3    0    0 -0.10125200682E+04 -0.59053628992E+03 -0.18750469507E+04  0.22112736297E+04  0.00000000000E+00 0.  1.
        -13    1    3    3    0    0 -0.55285103892E+03 -0.25137793370E+03 -0.10501012535E+04  0.12130736908E+04  0.00000000000E+00 0. -1.
         22    1    1    2    0    0  0.15653711071E+04  0.84191422362E+03  0.79298259376E+03  0.19462856052E+04  0.00000000000E+00 0. -1.
<mgrwt>
<rscale>  0 0.49292563E+04</rscale>
<asrwt>0</asrwt>
<pdfrwt beam="1">  1        2 0.57713834E+00 0.49292563E+04</pdfrwt>
<pdfrwt beam="2">  1       -2 0.24911287E+00 0.49292563E+04</pdfrwt>
<totfact> 0.25383596E-02</totfact>
</mgrwt>
</event>
<event>
 6    1  0.2325157E-005  0.2636530E+04  0.7818608E-02  0.8355898E-01
          2   -1    0    0  501    0  0.00000000000E+00  0.00000000000E+00  0.21232227994E+04  0.21232227994E+04  0.00000000000E+00 0.  1.
         -2   -1    0    0    0  501 -0.00000000000E+00 -0.00000000000E+00 -0.81848333754E+03  0.81848333754E+03  0.00000000000E+00 0. -1.
         23    2    1    2    0    0  0.47417815193E+03 -0.10472300451E+04  0.13694947213E+04  0.17903031099E+04  0.90187285224E+02 0.  0.
         13    1    3    3    0    0  0.40746260832E+03 -0.95455561536E+03  0.12100263189E+04  0.15941662060E+04  0.00000000000E+00 0. -1.
        -13    1    3    3    0    0  0.66715543610E+02 -0.92674429742E+02  0.15946840242E+03  0.19613690386E+03  0.00000000000E+00 0.  1.
         22    1    1    2    0    0 -0.47417815193E+03  0.10472300451E+04 -0.64755259449E+02  0.11514030271E+04  0.00000000000E+00 0. -1.
<mgrwt>
<rscale>  0 0.26365299E+04</rscale>
<asrwt>0</asrwt>
<pdfrwt beam="1">  1        2 0.32664966E+00 0.26365299E+04</pdfrwt>
<pdfrwt beam="2">  1       -2 0.12592051E+00 0.26365299E+04</pdfrwt>
<totfact> 0.23672108E+00</totfact>
</mgrwt>
</event>
<event>
 6    1  0.2325157E-005  0.1778137E+04  0.7818608E-02  0.8718013E-01
          2   -1    0    0  501    0  0.00000000000E+00  0.00000000000E+00  0.45207462392E+03  0.45207462392E+03  0.00000000000E+00 0.  1.
         -2   -1    0    0    0  501 -0.00000000000E+00 -0.00000000000E+00 -0.17484795546E+04  0.17484795546E+04  0.00000000000E+00 0. -1.
         23    2    1    2    0    0 -0.81650224239E+03 -0.11142121846E+03 -0.10548193802E+04  0.13418026557E+04  0.93272944922E+02 0.  0.
         11    1    3    3    0    0 -0.39423464517E+03 -0.14374553673E+02 -0.54386504184E+03  0.67187555915E+03  0.00000000000E+00 0.  1.
        -11    1    3    3    0    0 -0.42226759723E+03 -0.97046664785E+02 -0.51095433835E+03  0.66992709655E+03  0.00000000000E+00 0. -1.
         22    1    1    2    0    0  0.81650224239E+03  0.11142121846E+03 -0.24158555051E+03  0.85875152284E+03  0.00000000000E+00 0.  1.
<mgrwt>
<rscale>  0 0.17781375E+04</rscale>
<asrwt>0</asrwt>
<pdfrwt beam="1">  1        2 0.69549943E-01 0.17781375E+04</pdfrwt>
<pdfrwt beam="2">  1       -2 0.26899685E+00 0.17781375E+04</pdfrwt>
<totfact> 0.32179421E+00</totfact>
</mgrwt>
</event>
<event>
 6    1  0.2325157E-005  0.2084717E+04  0.7818608E-02  0.8568006E-01
          2   -1    0    0  501    0  0.00000000000E+00  0.00000000000E+00  0.90077939773E+03  0.90077939773E+03  0.00000000000E+00 0.  1.
         -2   -1    0    0    0  501 -0.00000000000E+00 -0.00000000000E+00 -0.12061903354E+04  0.12061903354E+04  0.00000000000E+00 0. -1.
         23    2    1    2    0    0 -0.51385852821E+03  0.74183316918E+03  0.37002882085E+03  0.97976704271E+03  0.93032745984E+02 0.  0.
         13    1    3    3    0    0 -0.23349181757E+03  0.37956852321E+03  0.13958331653E+03  0.46698414849E+03  0.00000000000E+00 0.  1.
        -13    1    3    3    0    0 -0.28036671064E+03  0.36226464597E+03  0.23044550432E+03  0.51278289423E+03  0.00000000000E+00 0. -1.
         22    1    1    2    0    0  0.51385852821E+03 -0.74183316918E+03 -0.67543975856E+03  0.11272026904E+04  0.00000000000E+00 0. -1.
<mgrwt>
<rscale>  0 0.20847172E+04</rscale>
<asrwt>0</asrwt>
<pdfrwt beam="1">  1        2 0.13858145E+00 0.20847172E+04</pdfrwt>
<pdfrwt beam="2">  1       -2 0.18556774E+00 0.20847172E+04</pdfrwt>
<totfact> 0.44858831E+00</totfact>
</mgrwt>
</event>
<event>
 6    1  0.2325157E-005  0.3996329E+04  0.7818608E-02  0.8005288E-01
          2   -1    0    0  501    0  0.00000000000E+00  0.00000000000E+00  0.25641813514E+04  0.25641813514E+04  0.00000000000E+00 0.  1.
         -2   -1    0    0    0  501 -0.00000000000E+00 -0.00000000000E+00 -0.15570900592E+04  0.15570900592E+04  0.00000000000E+00 0. -1.
         23    2    1    2    0    0  0.10400757344E+04 -0.11968741810E+04 -0.74844122601E+03  0.17556510351E+04  0.88774714096E+02 0.  0.
         13    1    3    3    0    0  0.51352633060E+03 -0.62814899288E+03 -0.34179128860E+03  0.88039862246E+03  0.00000000000E+00 0.  1.
        -13    1    3    3    0    0  0.52654940385E+03 -0.56872518809E+03 -0.40664993741E+03  0.87525241265E+03  0.00000000000E+00 0. -1.
         22    1    1    2    0    0 -0.10400757344E+04  0.11968741810E+04  0.17555325182E+04  0.23656203755E+04  0.00000000000E+00 0.  1.
<mgrwt>
<rscale>  0 0.39963290E+04</rscale>
<asrwt>0</asrwt>
<pdfrwt beam="1">  1        2 0.39448944E+00 0.39963290E+04</pdfrwt>
<pdfrwt beam="2">  1       -2 0.23955232E+00 0.39963290E+04</pdfrwt>
<totfact> 0.18789111E-01</totfact>
</mgrwt>
</event>
<event>
 6    1  0.2325157E-005  0.3572012E+04  0.7818608E-02  0.8096933E-01
          2   -1    0    0  501    0  0.00000000000E+00  0.00000000000E+00  0.32102762627E+04  0.32102762627E+04  0.00000000000E+00 0.  1.
         -2   -1    0    0    0  501 -0.00000000000E+00 -0.00000000000E+00 -0.99362714341E+03  0.99362714341E+03  0.00000000000E+00 0. -1.
         23    2    1    2    0    0  0.57767985193E+03 -0.12409464579E+04 -0.23895174890E+03  0.13925624900E+04  0.92033839547E+02 0.  0.
         11    1    3    3    0    0  0.28130281750E+03 -0.53495320330E+03 -0.69818991046E+02  0.60842493076E+03  0.00000000000E+00 0. -1.
        -11    1    3    3    0    0  0.29637703443E+03 -0.70599325459E+03 -0.16913275785E+03  0.78413755926E+03  0.00000000000E+00 0.  1.
         22    1    1    2    0    0 -0.57767985193E+03  0.12409464579E+04  0.24556008682E+04  0.28113409161E+04  0.00000000000E+00 0.  1.
<mgrwt>
<rscale>  0 0.35720121E+04</rscale>
<asrwt>0</asrwt>
<pdfrwt beam="1">  1        2 0.49388865E+00 0.35720121E+04</pdfrwt>
<pdfrwt beam="2">  1       -2 0.15286572E+00 0.35720121E+04</pdfrwt>
<totfact> 0.29685108E-01</totfact>
</mgrwt>
</event>
<event>
 6    1  0.2325157E-005  0.3323184E+04  0.7818608E-02  0.8157021E-01
          2   -1    0    0  501    0  0.00000000000E+00  0.00000000000E+00  0.30269683006E+04  0.30269683006E+04  0.00000000000E+00 0.  1.
         -2   -1    0    0    0  501 -0.00000000000E+00 -0.00000000000E+00 -0.91209652696E+03  0.91209652696E+03  0.00000000000E+00 0. -1.
         23    2    1    2    0    0 -0.12020541894E+03 -0.16504331250E+04  0.89493744007E+03  0.18831906532E+04  0.84351477144E+02 0.  0.
         11    1    3    3    0    0  0.17246817777E+01 -0.28057270785E+03  0.12629545667E+03  0.30769231595E+03  0.00000000000E+00 0. -1.
        -11    1    3    3    0    0 -0.12193010072E+03 -0.13698604171E+04  0.76864198341E+03  0.15754983372E+04  0.00000000000E+00 0.  1.
         22    1    1    2    0    0  0.12020541894E+03  0.16504331250E+04  0.12199343336E+04  0.20558741744E+04  0.00000000000E+00 0.  1.
<mgrwt>
<rscale>  0 0.33231836E+04</rscale>
<asrwt>0</asrwt>
<pdfrwt beam="1">  1        2 0.46568742E+00 0.33231836E+04</pdfrwt>
<pdfrwt beam="2">  1       -2 0.14032254E+00 0.33231836E+04</pdfrwt>
<totfact> 0.49797473E-01</totfact>
</mgrwt>
</event>
<event>
 6    1  0.2325157E-005  0.1616385E+04  0.7818608E-02  0.8810545E-01
          2   -1    0    0  501    0  0.00000000000E+00  0.00000000000E+00  0.26115814590E+03  0.26115814590E+03  0.00000000000E+00 0.  1.
         -2   -1    0    0    0  501 -0.00000000000E+00 -0.00000000000E+00 -0.25010711317E+04  0.25010711317E+04  0.00000000000E+00 0. -1.
         23    2    1    2    0    0  0.60386164174E+03  0.23800977693E+03 -0.19382762132E+04  0.20464903036E+04  0.99550730206E+02 0.  0.
         13    1    3    3    0    0  0.46260246589E+03  0.16279659420E+03 -0.13307072410E+04  0.14181979882E+04  0.00000000000E+00 0. -1.
        -13    1    3    3    0    0  0.14125917585E+03  0.75213182723E+02 -0.60756897221E+03  0.62829231542E+03  0.00000000000E+00 0.  1.
         22    1    1    2    0    0 -0.60386164174E+03 -0.23800977693E+03 -0.30163677258E+03  0.71573897396E+03  0.00000000000E+00 0.  1.
<mgrwt>
<rscale>  0 0.16163850E+04</rscale>
<asrwt>0</asrwt>
<pdfrwt beam="1">  1        2 0.40178176E-01 0.16163850E+04</pdfrwt>
<pdfrwt beam="2">  1       -2 0.38478018E+00 0.16163850E+04</pdfrwt>
<totfact> 0.11526304E+00</totfact>
</mgrwt>
</event>
<event>
 6    1  0.2325157E-005  0.2645525E+04  0.7818608E-02  0.8352900E-01
         -2   -1    0    0    0  501 -0.00000000000E+00  0.00000000000E+00  0.85438155152E+03  0.85438155152E+03  0.00000000000E+00 0.  1.
          2   -1    0    0  501    0  0.00000000000E+00 -0.00000000000E+00 -0.20479152377E+04  0.20479152377E+04  0.00000000000E+00 0. -1.
         23    2    1    2    0    0  0.10428522979E+04 -0.81162844744E+03 -0.60106058550E+03  0.14540889219E+04  0.82577924519E+02 0.  0.
         11    1    3    3    0    0  0.83142125459E+03 -0.63949306466E+03 -0.51253412582E+03  0.11674347573E+04  0.00000000000E+00 0. -1.
        -11    1    3    3    0    0  0.21143104326E+03 -0.17213538278E+03 -0.88526459675E+02  0.28665416467E+03  0.00000000000E+00 0.  1.
         22    1    1    2    0    0 -0.10428522979E+04  0.81162844744E+03 -0.59247310069E+03  0.14482078673E+04  0.00000000000E+00 0.  1.
<mgrwt>
<rscale>  0 0.26455253E+04</rscale>
<asrwt>0</asrwt>
<pdfrwt beam="1">  1        2 0.31506388E+00 0.26455253E+04</pdfrwt>
<pdfrwt beam="2">  1       -2 0.13144332E+00 0.26455253E+04</pdfrwt>
<totfact> 0.23381992E+00</totfact>
</mgrwt>
</event>
<event>
 6    1  0.2325157E-005  0.2287769E+04  0.7818608E-02  0.8482759E-01
         -2   -1    0    0    0  501 -0.00000000000E+00  0.00000000000E+00  0.45623520428E+03  0.45623520428E+03  0.00000000000E+00 0. -1.
          2   -1    0    0  501    0  0.00000000000E+00 -0.00000000000E+00 -0.28679757329E+04  0.28679757329E+04  0.00000000000E+00 0.  1.
         23    2    1    2    0    0  0.69361753364E+03  0.40524208849E+03 -0.28435748384E+02  0.80916260589E+03  0.92785223713E+02 0.  0.
         11    1    3    3    0    0  0.24051522250E+03  0.18419338666E+03  0.13736401541E+02  0.30325478508E+03  0.00000000000E+00 0.  1.
        -11    1    3    3    0    0  0.45310231113E+03  0.22104870183E+03 -0.42172149924E+02  0.50590782082E+03  0.00000000000E+00 0. -1.
         22    1    1    2    0    0 -0.69361753364E+03 -0.40524208849E+03 -0.23833047803E+04  0.25150483313E+04  0.00000000000E+00 0.  1.
<mgrwt>
<rscale>  0 0.22877688E+04</rscale>
<asrwt>0</asrwt>
<pdfrwt beam="1">  1        2 0.44122705E+00 0.22877688E+04</pdfrwt>
<pdfrwt beam="2">  1       -2 0.70190030E-01 0.22877688E+04</pdfrwt>
<totfact> 0.35272653E+00</totfact>
</mgrwt>
</event>
<event>
 6    1  0.2325157E-005  0.2429898E+04  0.7818608E-02  0.8428394E-01
         -1   -1    0    0    0  501 -0.00000000000E+00  0.00000000000E+00  0.53841868549E+03  0.53841868549E+03  0.00000000000E+00 0.  1.
          1   -1    0    0  501    0  0.00000000000E+00 -0.00000000000E+00 -0.27415487017E+04  0.27415487017E+04  0.00000000000E+00 0. -1.
         23    2    1    2    0    0  0.51072986121E+03  0.52544351768E+03 -0.24084211516E+04  0.25189941079E+04  0.88898766916E+02 0.  0.
         11    1    3    3    0    0  0.11800234952E+03  0.71936241377E+02 -0.44541913221E+03  0.46636635883E+03  0.00000000000E+00 0. -1.
        -11    1    3    3    0    0  0.39272751169E+03  0.45350727630E+03 -0.19630020194E+04  0.20526277491E+04  0.00000000000E+00 0.  1.
         22    1    1    2    0    0 -0.51072986121E+03 -0.52544351768E+03  0.20529113546E+03  0.76097327923E+03  0.00000000000E+00 0.  1.
<mgrwt>
<rscale>  0 0.24298980E+04</rscale>
<asrwt>0</asrwt>
<pdfrwt beam="1">  1        1 0.42177674E+00 0.24298980E+04</pdfrwt>
<pdfrwt beam="2">  1       -1 0.82833641E-01 0.24298980E+04</pdfrwt>
<totfact> 0.11866121E+00</totfact>
</mgrwt>
</event>
<event>
 6    1  0.2325157E-005  0.5158476E+04  0.7818608E-02  0.7804515E-01
         -2   -1    0    0    0  501 -0.00000000000E+00  0.00000000000E+00  0.30916284972E+04  0.30916284972E+04  0.00000000000E+00 0.  1.
          2   -1    0    0  501    0  0.00000000000E+00 -0.00000000000E+00 -0.21517680828E+04  0.21517680828E+04  0.00000000000E+00 0. -1.
         23    2    1    2    0    0  0.59779647735E+03 -0.74379686523E+03 -0.19647092127E+04  0.21860907197E+04  0.91191770660E+02 0.  0.
         13    1    3    3    0    0  0.27080389516E+03 -0.40804209097E+03 -0.98180386007E+03  0.10971654011E+04  0.00000000000E+00 0. -1.
        -13    1    3    3    0    0  0.32699258219E+03 -0.33575477425E+03 -0.98290535266E+03  0.10889253186E+04  0.00000000000E+00 0.  1.
         22    1    1    2    0    0 -0.59779647735E+03  0.74379686523E+03  0.29045696271E+04  0.30573058604E+04  0.00000000000E+00 0.  1.
<mgrwt>
<rscale>  0 0.51584756E+04</rscale>
<asrwt>0</asrwt>
<pdfrwt beam="1">  1        2 0.33104124E+00 0.51584756E+04</pdfrwt>
<pdfrwt beam="2">  1       -2 0.47563515E+00 0.51584756E+04</pdfrwt>
<totfact> 0.93606214E-03</totfact>
</mgrwt>
</event>
<event>
 6    1  0.2325157E-005  0.2631952E+04  0.7818608E-02  0.8357428E-01
         -2   -1    0    0    0  501 -0.00000000000E+00  0.00000000000E+00  0.25311925545E+04  0.25311925545E+04  0.00000000000E+00 0. -1.
          2   -1    0    0  501    0  0.00000000000E+00 -0.00000000000E+00 -0.68418034287E+03  0.68418034287E+03  0.00000000000E+00 0.  1.
         23    2    1    2    0    0 -0.28024472162E+03  0.11692353548E+04  0.27516692030E+03  0.12363968898E+04  0.85510327580E+02 0.  0.
         11    1    3    3    0    0 -0.15667007822E+03  0.79739439647E+03  0.20809788914E+03  0.83886117349E+03  0.00000000000E+00 0.  1.
        -11    1    3    3    0    0 -0.12357464340E+03  0.37184095831E+03  0.67069031162E+02  0.39753571627E+03  0.00000000000E+00 0. -1.
         22    1    1    2    0    0  0.28024472162E+03 -0.11692353548E+04  0.15718452914E+04  0.19789760076E+04  0.00000000000E+00 0. -1.
<mgrwt>
<rscale>  0 0.26319515E+04</rscale>
<asrwt>0</asrwt>
<pdfrwt beam="1">  1        2 0.10525852E+00 0.26319515E+04</pdfrwt>
<pdfrwt beam="2">  1       -2 0.38941424E+00 0.26319515E+04</pdfrwt>
<totfact> 0.32374720E-01</totfact>
</mgrwt>
</event>
<event>
 6    1  0.2325157E-005  0.3737974E+04  0.7818608E-02  0.8059598E-01
          2   -1    0    0  501    0  0.00000000000E+00  0.00000000000E+00  0.93524418811E+03  0.93524418811E+03  0.00000000000E+00 0.  1.
         -2   -1    0    0    0  501 -0.00000000000E+00 -0.00000000000E+00 -0.37349741231E+04  0.37349741231E+04  0.00000000000E+00 0. -1.
         23    2    1    2    0    0 -0.10375272519E+03  0.17821065561E+04 -0.20876304489E+04  0.27483041396E+04  0.91139165185E+02 0.  0.
         13    1    3    3    0    0 -0.58871445694E+02  0.10966605324E+04 -0.12159519145E+04  0.16384960265E+04  0.00000000000E+00 0. -1.
        -13    1    3    3    0    0 -0.44881279496E+02  0.68544602367E+03 -0.87167853435E+03  0.11098081131E+04  0.00000000000E+00 0.  1.
         22    1    1    2    0    0  0.10375272519E+03 -0.17821065561E+04 -0.71209948614E+03  0.19219141717E+04  0.00000000000E+00 0.  1.
<mgrwt>
<rscale>  0 0.37379742E+04</rscale>
<asrwt>0</asrwt>
<pdfrwt beam="1">  1        2 0.14388372E+00 0.37379742E+04</pdfrwt>
<pdfrwt beam="2">  1       -2 0.57461141E+00 0.37379742E+04</pdfrwt>
<totfact> 0.14488838E-02</totfact>
</mgrwt>
</event>
<event>
 6    1  0.2325157E-005  0.5019523E+03  0.7818608E-02  0.1013271E+00
         -2   -1    0    0    0  501 -0.00000000000E+00  0.00000000000E+00  0.36367108841E+02  0.36367108841E+02  0.00000000000E+00 0. -1.
          2   -1    0    0  501    0  0.00000000000E+00 -0.00000000000E+00 -0.17320328397E+04  0.17320328397E+04  0.00000000000E+00 0.  1.
         23    2    1    2    0    0  0.62066355616E+02  0.35760111486E+02 -0.16926417089E+04  0.16967050199E+04  0.92956720123E+02 0.  0.
         11    1    3    3    0    0  0.69056569159E+02  0.10505341853E+02 -0.65155035992E+03  0.65528394110E+03  0.00000000000E+00 0. -1.
        -11    1    3    3    0    0 -0.69902135428E+01  0.25254769633E+02 -0.10410913490E+04  0.10414210788E+04  0.00000000000E+00 0.  1.
         22    1    1    2    0    0 -0.62066355616E+02 -0.35760111486E+02 -0.30240218908E+01  0.71694928561E+02  0.00000000000E+00 0. -1.
<mgrwt>
<rscale>  0 0.50195230E+03</rscale>
<asrwt>0</asrwt>
<pdfrwt beam="1">  1        2 0.26646656E+00 0.50195230E+03</pdfrwt>
<pdfrwt beam="2">  1       -2 0.55949405E-02 0.50195230E+03</pdfrwt>
<totfact> 0.16747226E+03</totfact>
</mgrwt>
</event>
<event>
 6    1  0.2325157E-005  0.2388900E+04  0.7818608E-02  0.8443671E-01
         -2   -1    0    0    0  501 -0.00000000000E+00  0.00000000000E+00  0.48736549734E+03  0.48736549734E+03  0.00000000000E+00 0. -1.
          2   -1    0    0  501    0  0.00000000000E+00 -0.00000000000E+00 -0.29273950313E+04  0.29273950313E+04  0.00000000000E+00 0.  1.
         23    2    1    2    0    0  0.10508012987E+04  0.42780322625E+03 -0.17476569256E+04  0.20856334472E+04  0.91450406723E+02 0.  0.
         13    1    3    3    0    0  0.80045003586E+03  0.30232571224E+03 -0.12545427056E+04  0.15185514467E+04  0.00000000000E+00 0. -1.
        -13    1    3    3    0    0  0.25035126281E+03  0.12547751400E+03 -0.49311422005E+03  0.56708200053E+03  0.00000000000E+00 0.  1.
         22    1    1    2    0    0 -0.10508012987E+04 -0.42780322625E+03 -0.69237260829E+03  0.13291270814E+04  0.00000000000E+00 0. -1.
<mgrwt>
<rscale>  0 0.23889004E+04</rscale>
<asrwt>0</asrwt>
<pdfrwt beam="1">  1        2 0.45036847E+00 0.23889004E+04</pdfrwt>
<pdfrwt beam="2">  1       -2 0.74979307E-01 0.23889004E+04</pdfrwt>
<totfact> 0.27798351E+00</totfact>
</mgrwt>
</event>
<event>
 6    1  0.2325157E-005  0.2947805E+04  0.7818608E-02  0.8258795E-01
          2   -1    0    0  501    0  0.00000000000E+00  0.00000000000E+00  0.21793589715E+04  0.21793589715E+04  0.00000000000E+00 0.  1.
         -2   -1    0    0    0  501 -0.00000000000E+00 -0.00000000000E+00 -0.99680149664E+03  0.99680149664E+03  0.00000000000E+00 0. -1.
         23    2    1    2    0    0  0.12061312045E+04  0.48540722672E+03 -0.15303349796E+03  0.13122463325E+04  0.90545720482E+02 0.  0.
         13    1    3    3    0    0  0.91067740025E+03  0.35873658172E+03 -0.76332163957E+02  0.98175957426E+03  0.00000000000E+00 0.  1.
        -13    1    3    3    0    0  0.29545380426E+03  0.12667064500E+03 -0.76701334008E+02  0.33048675828E+03  0.00000000000E+00 0. -1.
         22    1    1    2    0    0 -0.12061312045E+04 -0.48540722672E+03  0.13355909729E+04  0.18639141356E+04  0.00000000000E+00 0.  1.
<mgrwt>
<rscale>  0 0.29478048E+04</rscale>
<asrwt>0</asrwt>
<pdfrwt beam="1">  1        2 0.33528599E+00 0.29478048E+04</pdfrwt>
<pdfrwt beam="2">  1       -2 0.15335408E+00 0.29478048E+04</pdfrwt>
<totfact> 0.12879868E+00</totfact>
</mgrwt>
</event>
<event>
 6    1  0.2325157E-005  0.1260614E+04  0.7818608E-02  0.9061395E-01
          2   -1    0    0  501    0  0.00000000000E+00  0.00000000000E+00  0.23257363876E+04  0.23257363876E+04  0.00000000000E+00 0.  1.
         -2   -1    0    0    0  501 -0.00000000000E+00 -0.00000000000E+00 -0.17082200559E+03  0.17082200559E+03  0.00000000000E+00 0. -1.
         23    2    1    2    0    0  0.80525476939E+02 -0.60094875510E+03  0.13997212459E+04  0.15280851455E+04  0.90558748430E+02 0.  0.
         11    1    3    3    0    0  0.43922661472E+02 -0.52672390014E+03  0.12467644128E+04  0.13541745708E+04  0.00000000000E+00 0.  1.
        -11    1    3    3    0    0  0.36602815467E+02 -0.74224854966E+02  0.15295683309E+03  0.17391057467E+03  0.00000000000E+00 0. -1.
         22    1    1    2    0    0 -0.80525476939E+02  0.60094875510E+03  0.75519313609E+03  0.96847324769E+03  0.00000000000E+00 0. -1.
<mgrwt>
<rscale>  0 0.12606141E+04</rscale>
<asrwt>0</asrwt>
<pdfrwt beam="1">  1        2 0.35780557E+00 0.12606141E+04</pdfrwt>
<pdfrwt beam="2">  1       -2 0.26280310E-01 0.12606141E+04</pdfrwt>
<totfact> 0.56623621E+01</totfact>
</mgrwt>
</event>
<event>
 6    1  0.2325157E-005  0.5326780E+04  0.7818608E-02  0.7779985E-01
         -2   -1    0    0    0  501 -0.00000000000E+00  0.00000000000E+00  0.22769227603E+04  0.22769227603E+04  0.00000000000E+00 0. -1.
          2   -1    0    0  501    0  0.00000000000E+00 -0.00000000000E+00 -0.31154533370E+04  0.31154533370E+04  0.00000000000E+00 0.  1.
         23    2    1    2    0    0 -0.38192966312E+03 -0.12302244443E+04  0.19395175640E+04  0.23302079238E+04  0.93904930894E+02 0.  0.
         11    1    3    3    0    0 -0.14327174481E+03 -0.52842503140E+03  0.74887537400E+03  0.92767134937E+03  0.00000000000E+00 0.  1.
        -11    1    3    3    0    0 -0.23865791831E+03 -0.70179941287E+03  0.11906421900E+04  0.14025365744E+04  0.00000000000E+00 0. -1.
         22    1    1    2    0    0  0.38192966312E+03  0.12302244443E+04 -0.27780481407E+04  0.30621681735E+04  0.00000000000E+00 0.  1.
<mgrwt>
<rscale>  0 0.53267801E+04</rscale>
<asrwt>0</asrwt>
<pdfrwt beam="1">  1        2 0.47930051E+00 0.53267801E+04</pdfrwt>
<pdfrwt beam="2">  1       -2 0.35029581E+00 0.53267801E+04</pdfrwt>
<totfact> 0.16156109E-02</totfact>
</mgrwt>
</event>
<event>
 6    1  0.2325157E-005  0.1127712E+04  0.7818608E-02  0.9178595E-01
          2   -1    0    0  501    0  0.00000000000E+00  0.00000000000E+00  0.90917070343E+03  0.90917070343E+03  0.00000000000E+00 0.  1.
         -2   -1    0    0    0  501 -0.00000000000E+00 -0.00000000000E+00 -0.34969609720E+03  0.34969609720E+03  0.00000000000E+00 0. -1.
         23    2    1    2    0    0  0.31474895322E+03  0.44814890511E+03  0.41186236671E+03  0.69168630207E+03  0.94313236876E+02 0.  0.
         13    1    3    3    0    0  0.56164283900E+02  0.14501383325E+03  0.14080941057E+03  0.20978734167E+03  0.00000000000E+00 0. -1.
        -13    1    3    3    0    0  0.25858466932E+03  0.30313507185E+03  0.27105295614E+03  0.48189896039E+03  0.00000000000E+00 0.  1.
         22    1    1    2    0    0 -0.31474895322E+03 -0.44814890511E+03  0.14761223951E+03  0.56718049857E+03  0.00000000000E+00 0. -1.
<mgrwt>
<rscale>  0 0.11277117E+04</rscale>
<asrwt>0</asrwt>
<pdfrwt beam="1">  1        2 0.13987241E+00 0.11277117E+04</pdfrwt>
<pdfrwt beam="2">  1       -2 0.53799400E-01 0.11277117E+04</pdfrwt>
<totfact> 0.93261334E+01</totfact>
</mgrwt>
</event>
<event>
 6    1  0.2325157E-005  0.1042013E+04  0.7818608E-02  0.9263629E-01
          2   -1    0    0  501    0  0.00000000000E+00  0.00000000000E+00  0.51091307895E+03  0.51091307895E+03  0.00000000000E+00 0.  1.
         -2   -1    0    0    0  501 -0.00000000000E+00 -0.00000000000E+00 -0.53129972852E+03  0.53129972852E+03  0.00000000000E+00 0. -1.
         23    2    1    2    0    0 -0.36797982868E+03 -0.28763500241E+03 -0.23164260202E+03  0.52959976981E+03  0.93137383359E+02 0.  0.
         13    1    3    3    0    0 -0.17275129642E+03 -0.93003699644E+02 -0.61321852254E+02  0.20555551106E+03  0.00000000000E+00 0. -1.
        -13    1    3    3    0    0 -0.19522853226E+03 -0.19463130277E+03 -0.17032074977E+03  0.32404425875E+03  0.00000000000E+00 0.  1.
         22    1    1    2    0    0  0.36797982868E+03  0.28763500241E+03  0.21125595246E+03  0.51261303766E+03  0.00000000000E+00 0.  1.
<mgrwt>
<rscale>  0 0.10420134E+04</rscale>
<asrwt>0</asrwt>
<pdfrwt beam="1">  1        2 0.78602012E-01 0.10420134E+04</pdfrwt>
<pdfrwt beam="2">  1       -2 0.81738420E-01 0.10420134E+04</pdfrwt>
<totfact> 0.78821524E+01</totfact>
</mgrwt>
</event>
<event>
 6    1  0.2325157E-005  0.1635463E+04  0.7818608E-02  0.8799053E-01
          2   -1    0    0  501    0  0.00000000000E+00  0.00000000000E+00  0.12969048856E+04  0.12969048856E+04  0.00000000000E+00 0.  1.
         -2   -1    0    0    0  501 -0.00000000000E+00 -0.00000000000E+00 -0.51560019458E+03  0.51560019458E+03  0.00000000000E+00 0. -1.
         23    2    1    2    0    0 -0.78875424801E+03  0.12285858351E+02  0.17536505613E+03  0.81779555111E+03  0.12550878225E+03 0.  0.
         11    1    3    3    0    0 -0.44947179714E+03  0.44015915350E+02  0.15086130177E+03  0.47615273768E+03  0.00000000000E+00 0. -1.
        -11    1    3    3    0    0 -0.33928245087E+03 -0.31730056999E+02  0.24503754363E+02  0.34164281343E+03  0.00000000000E+00 0.  1.
         22    1    1    2    0    0  0.78875424801E+03 -0.12285858351E+02  0.60593963488E+03  0.99470952905E+03  0.00000000000E+00 0.  1.
<mgrwt>
<rscale>  0 0.16354625E+04</rscale>
<asrwt>0</asrwt>
<pdfrwt beam="1">  1        2 0.19952383E+00 0.16354625E+04</pdfrwt>
<pdfrwt beam="2">  1       -2 0.79323107E-01 0.16354625E+04</pdfrwt>
<totfact> 0.22369651E+01</totfact>
</mgrwt>
</event>
<event>
 6    1  0.2325157E-005  0.1413317E+04  0.7818608E-02  0.8944235E-01
          2   -1    0    0  501    0  0.00000000000E+00  0.00000000000E+00  0.17034597728E+04  0.17034597728E+04  0.00000000000E+00 0.  1.
         -2   -1    0    0    0  501 -0.00000000000E+00 -0.00000000000E+00 -0.29314832962E+03  0.29314832962E+03  0.00000000000E+00 0. -1.
         23    2    1    2    0    0 -0.51440774053E+02  0.60403971439E+03  0.12130115761E+04  0.13590836971E+04  0.90560931337E+02 0.  0.
         11    1    3    3    0    0 -0.36394888849E+02  0.28055414483E+03  0.66270774895E+03  0.72056698275E+03  0.00000000000E+00 0. -1.
        -11    1    3    3    0    0 -0.15045885204E+02  0.32348556956E+03  0.55030382715E+03  0.63851671439E+03  0.00000000000E+00 0.  1.
         22    1    1    2    0    0  0.51440774053E+02 -0.60403971439E+03  0.19729986710E+03  0.63752440530E+03  0.00000000000E+00 0. -1.
<mgrwt>
<rscale>  0 0.14133172E+04</rscale>
<asrwt>0</asrwt>
<pdfrwt beam="1">  1        2 0.26207073E+00 0.14133172E+04</pdfrwt>
<pdfrwt beam="2">  1       -2 0.45099744E-01 0.14133172E+04</pdfrwt>
<totfact> 0.44258966E+01</totfact>
</mgrwt>
</event>
<event>
 6    1  0.2325157E-005  0.5528518E+04  0.7818608E-02  0.7751777E-01
          2   -1    0    0  501    0  0.00000000000E+00  0.00000000000E+00  0.33607924972E+04  0.33607924972E+04  0.00000000000E+00 0.  1.
         -2   -1    0    0    0  501 -0.00000000000E+00 -0.00000000000E+00 -0.22736088749E+04  0.22736088749E+04  0.00000000000E+00 0. -1.
         23    2    1    2    0    0  0.23831923578E+04 -0.92189341057E+03 -0.52856250419E+03  0.26111367757E+04  0.95727039986E+02 0.  0.
         13    1    3    3    0    0  0.98947107578E+03 -0.34486067468E+03 -0.18493319280E+03  0.10640404976E+04  0.00000000000E+00 0.  1.
        -13    1    3    3    0    0  0.13937212820E+04 -0.57703273589E+03 -0.34362931139E+03  0.15470962781E+04  0.00000000000E+00 0. -1.
         22    1    1    2    0    0 -0.23831923578E+04  0.92189341057E+03  0.16157461265E+04  0.30232645964E+04  0.00000000000E+00 0.  1.
<mgrwt>
<rscale>  0 0.55285179E+04</rscale>
<asrwt>0</asrwt>
<pdfrwt beam="1">  1        2 0.51704500E+00 0.55285179E+04</pdfrwt>
<pdfrwt beam="2">  1       -2 0.34978598E+00 0.55285179E+04</pdfrwt>
<totfact> 0.11032300E-02</totfact>
</mgrwt>
</event>
<event>
 6    1  0.2325157E-005  0.2016369E+04  0.7818608E-02  0.8599006E-01
          2   -1    0    0  501    0  0.00000000000E+00  0.00000000000E+00  0.10190184166E+04  0.10190184166E+04  0.00000000000E+00 0.  1.
         -2   -1    0    0    0  501 -0.00000000000E+00 -0.00000000000E+00 -0.99746596020E+03  0.99746596020E+03  0.00000000000E+00 0. -1.
         23    2    1    2    0    0  0.51999728169E+03  0.29672758571E+03 -0.79783180452E+03  0.10016765131E+04  0.91519481969E+02 0.  0.
         11    1    3    3    0    0  0.39214343763E+03  0.22186483610E+03 -0.53029180106E+03  0.69585190626E+03  0.00000000000E+00 0.  1.
        -11    1    3    3    0    0  0.12785384406E+03  0.74862749613E+02 -0.26754000347E+03  0.30582460689E+03  0.00000000000E+00 0. -1.
         22    1    1    2    0    0 -0.51999728169E+03 -0.29672758571E+03  0.81938426091E+03  0.10148078636E+04  0.00000000000E+00 0.  1.
<mgrwt>
<rscale>  0 0.20163692E+04</rscale>
<asrwt>0</asrwt>
<pdfrwt beam="1">  1        2 0.15677206E+00 0.20163692E+04</pdfrwt>
<pdfrwt beam="2">  1       -2 0.15345630E+00 0.20163692E+04</pdfrwt>
<totfact> 0.64070359E+00</totfact>
</mgrwt>
</event>
<event>
 6    1  0.2325157E-005  0.1545717E+04  0.7818608E-02  0.8854608E-01
         -2   -1    0    0    0  501 -0.00000000000E+00  0.00000000000E+00  0.27530576069E+03  0.27530576069E+03  0.00000000000E+00 0. -1.
          2   -1    0    0  501    0  0.00000000000E+00 -0.00000000000E+00 -0.21696248441E+04  0.21696248441E+04  0.00000000000E+00 0.  1.
         23    2    1    2    0    0 -0.52949025119E+03  0.53660862717E+03 -0.70005486104E+03  0.10326360967E+04  0.89172612510E+02 0.  0.
         11    1    3    3    0    0 -0.16856180806E+03  0.22503503205E+03 -0.28732325100E+03  0.40200559617E+03  0.00000000000E+00 0.  1.
        -11    1    3    3    0    0 -0.36092844312E+03  0.31157359512E+03 -0.41273161004E+03  0.63063050049E+03  0.00000000000E+00 0. -1.
         22    1    1    2    0    0  0.52949025119E+03 -0.53660862717E+03 -0.11942642224E+04  0.14122945082E+04  0.00000000000E+00 0. -1.
<mgrwt>
<rscale>  0 0.15457169E+04</rscale>
<asrwt>0</asrwt>
<pdfrwt beam="1">  1        2 0.33378843E+00 0.15457169E+04</pdfrwt>
<pdfrwt beam="2">  1       -2 0.42354733E-01 0.15457169E+04</pdfrwt>
<totfact> 0.27347874E+01</totfact>
</mgrwt>
</event>
<event>
 6    1  0.2325157E-005  0.1782308E+04  0.7818608E-02  0.8715765E-01
          1   -1    0    0  501    0  0.00000000000E+00  0.00000000000E+00  0.11340267403E+04  0.11340267403E+04  0.00000000000E+00 0.  1.
         -1   -1    0    0    0  501 -0.00000000000E+00 -0.00000000000E+00 -0.70029673097E+03  0.70029673097E+03  0.00000000000E+00 0. -1.
         23    2    1    2    0    0  0.44897951227E+03  0.31885891286E+02 -0.57299261590E+03  0.73155887416E+03  0.65257459199E+02 0.  0.
         11    1    3    3    0    0  0.15049791400E+03  0.38311493755E+02 -0.17381568431E+03  0.23308643200E+03  0.00000000000E+00 0.  1.
        -11    1    3    3    0    0  0.29848159827E+03 -0.64256024697E+01 -0.39917693159E+03  0.49847244215E+03  0.00000000000E+00 0. -1.
         22    1    1    2    0    0 -0.44897951227E+03 -0.31885891286E+02  0.10067226252E+04  0.11027645971E+04  0.00000000000E+00 0.  1.
<mgrwt>
<rscale>  0 0.17823077E+04</rscale>
<asrwt>0</asrwt>
<pdfrwt beam="1">  1        1 0.17446565E+00 0.17823077E+04</pdfrwt>
<pdfrwt beam="2">  1       -1 0.10773796E+00 0.17823077E+04</pdfrwt>
<totfact> 0.90570425E+00</totfact>
</mgrwt>
</event>
<event>
 6    1  0.2325157E-005  0.4910651E+04  0.7818608E-02  0.7842440E-01
          2   -1    0    0  501    0  0.00000000000E+00  0.00000000000E+00  0.26353266500E+04  0.26353266500E+04  0.00000000000E+00 0.  1.
         -2   -1    0    0    0  501 -0.00000000000E+00 -0.00000000000E+00 -0.22876190763E+04  0.22876190763E+04  0.00000000000E+00 0. -1.
         23    2    1    2    0    0  0.11383646209E+03  0.16924177253E+04 -0.16045382981E+04  0.23367321928E+04  0.92399641141E+02 0.  0.
         11    1    3    3    0    0  0.92692112503E+02  0.75684987760E+03 -0.69384065851E+03  0.10309357033E+04  0.00000000000E+00 0. -1.
        -11    1    3    3    0    0  0.21144349583E+02  0.93556784770E+03 -0.91069763957E+03  0.13057964895E+04  0.00000000000E+00 0.  1.
         22    1    1    2    0    0 -0.11383646209E+03 -0.16924177253E+04  0.19522458718E+04  0.25862135335E+04  0.00000000000E+00 0.  1.
<mgrwt>
<rscale>  0 0.49106511E+04</rscale>
<asrwt>0</asrwt>
<pdfrwt beam="1">  1        2 0.40543487E+00 0.49106511E+04</pdfrwt>
<pdfrwt beam="2">  1       -2 0.35194139E+00 0.49106511E+04</pdfrwt>
<totfact> 0.32171060E-02</totfact>
</mgrwt>
</event>
<event>
 6    1  0.2325157E-005  0.2027058E+04  0.7818608E-02  0.8594073E-01
          2   -1    0    0  501    0  0.00000000000E+00  0.00000000000E+00  0.11908634970E+04  0.11908634970E+04  0.00000000000E+00 0.  1.
         -2   -1    0    0    0  501 -0.00000000000E+00 -0.00000000000E+00 -0.86260214546E+03  0.86260214546E+03  0.00000000000E+00 0. -1.
         23    2    1    2    0    0 -0.82103884522E+03  0.35808100979E+02 -0.43333401650E+03  0.93301282771E+03  0.85717917355E+02 0.  0.
         13    1    3    3    0    0 -0.16142845742E+03  0.33793026468E+02 -0.63010515264E+02  0.17655435576E+03  0.00000000000E+00 0. -1.
        -13    1    3    3    0    0 -0.65961038780E+03  0.20150745106E+01 -0.37032350124E+03  0.75645847196E+03  0.00000000000E+00 0.  1.
         22    1    1    2    0    0  0.82103884522E+03 -0.35808100979E+02  0.76159536803E+03  0.11204528147E+04  0.00000000000E+00 0.  1.
<mgrwt>
<rscale>  0 0.20270584E+04</rscale>
<asrwt>0</asrwt>
<pdfrwt beam="1">  1        2 0.18320977E+00 0.20270584E+04</pdfrwt>
<pdfrwt beam="2">  1       -2 0.13270802E+00 0.20270584E+04</pdfrwt>
<totfact> 0.73293506E+00</totfact>
</mgrwt>
</event>
<event>
 6    1  0.2325157E-005  0.3674740E+03  0.7818608E-02  0.1055663E+00
         -2   -1    0    0    0  501 -0.00000000000E+00  0.00000000000E+00  0.10104638861E+03  0.10104638861E+03  0.00000000000E+00 0. -1.
          2   -1    0    0  501    0  0.00000000000E+00 -0.00000000000E+00 -0.33409697303E+03  0.33409697303E+03  0.00000000000E+00 0.  1.
         23    2    1    2    0    0  0.66341007379E+02 -0.13218523507E+03 -0.19347900538E+02  0.17525318727E+03  0.92006916926E+02 0.  0.
         13    1    3    3    0    0 -0.14974796330E+02 -0.41387412301E+02 -0.29435606038E+02  0.52949195696E+02  0.00000000000E+00 0. -1.
        -13    1    3    3    0    0  0.81315803709E+02 -0.90797822773E+02  0.10087705500E+02  0.12230399158E+03  0.00000000000E+00 0.  1.
         22    1    1    2    0    0 -0.66341007379E+02  0.13218523507E+03 -0.21370268389E+03  0.25989017436E+03  0.00000000000E+00 0.  1.
<mgrwt>
<rscale>  0 0.36747404E+03</rscale>
<asrwt>0</asrwt>
<pdfrwt beam="1">  1        2 0.51399534E-01 0.36747404E+03</pdfrwt>
<pdfrwt beam="2">  1       -2 0.15545598E-01 0.36747404E+03</pdfrwt>
<totfact> 0.31505941E+03</totfact>
</mgrwt>
</event>
<event>
 6    1  0.2325157E-005  0.1459823E+04  0.7818608E-02  0.8911619E-01
         -2   -1    0    0    0  501 -0.00000000000E+00  0.00000000000E+00  0.79713721589E+03  0.79713721589E+03  0.00000000000E+00 0. -1.
          2   -1    0    0  501    0  0.00000000000E+00 -0.00000000000E+00 -0.66835510344E+03  0.66835510344E+03  0.00000000000E+00 0.  1.
         23    2    1    2    0    0 -0.61646809435E+03 -0.15881527348E+03 -0.28810444709E+03  0.70453922881E+03  0.90089677873E+02 0.  0.
         11    1    3    3    0    0 -0.38653869041E+03 -0.74619235955E+02 -0.13712219793E+03  0.41687250656E+03  0.00000000000E+00 0.  1.
        -11    1    3    3    0    0 -0.22992940394E+03 -0.84196037523E+02 -0.15098224916E+03  0.28766672225E+03  0.00000000000E+00 0. -1.
         22    1    1    2    0    0  0.61646809435E+03  0.15881527348E+03  0.41688655954E+03  0.76095309052E+03  0.00000000000E+00 0. -1.
<mgrwt>
<rscale>  0 0.14598229E+04</rscale>
<asrwt>0</asrwt>
<pdfrwt beam="1">  1        2 0.10282386E+00 0.14598229E+04</pdfrwt>
<pdfrwt beam="2">  1       -2 0.12263649E+00 0.14598229E+04</pdfrwt>
<totfact> 0.21165031E+01</totfact>
</mgrwt>
</event>
<event>
 6    1  0.2325157E-005  0.3212821E+04  0.7818608E-02  0.8185439E-01
          2   -1    0    0  501    0  0.00000000000E+00  0.00000000000E+00  0.15931326302E+04  0.15931326302E+04  0.00000000000E+00 0. -1.
         -2   -1    0    0    0  501 -0.00000000000E+00 -0.00000000000E+00 -0.16197991130E+04  0.16197991130E+04  0.00000000000E+00 0.  1.
         23    2    1    2    0    0 -0.10171574754E+04  0.32363396555E+03 -0.12120607355E+04  0.16177803999E+04  0.93669218751E+02 0.  0.
         11    1    3    3    0    0 -0.11570957738E+03  0.12173932017E+02 -0.10707909554E+03  0.15812287507E+03  0.00000000000E+00 0. -1.
        -11    1    3    3    0    0 -0.90144789804E+03  0.31146003353E+03 -0.11049816399E+04  0.14596575249E+04  0.00000000000E+00 0.  1.
         22    1    1    2    0    0  0.10171574754E+04 -0.32363396555E+03  0.11853942527E+04  0.15951513432E+04  0.00000000000E+00 0. -1.
<mgrwt>
<rscale>  0 0.32128211E+04</rscale>
<asrwt>0</asrwt>
<pdfrwt beam="1">  1        2 0.24509733E+00 0.32128211E+04</pdfrwt>
<pdfrwt beam="2">  1       -2 0.24919986E+00 0.32128211E+04</pdfrwt>
<totfact> 0.61514150E-01</totfact>
</mgrwt>
</event>
<event>
 6    1  0.2325157E-005  0.1512600E+04  0.7818608E-02  0.8876117E-01
          2   -1    0    0  501    0  0.00000000000E+00  0.00000000000E+00  0.10346915238E+04  0.10346915238E+04  0.00000000000E+00 0.  1.
         -2   -1    0    0    0  501 -0.00000000000E+00 -0.00000000000E+00 -0.55281203423E+03  0.55281203423E+03  0.00000000000E+00 0. -1.
         23    2    1    2    0    0  0.11328100780E+03  0.20508667950E+03  0.99330649872E+03  0.10249640319E+04  0.94870087444E+02 0.  0.
         13    1    3    3    0    0 -0.46506605325E+00  0.86230136550E+02  0.40563842708E+03  0.41470276858E+03  0.00000000000E+00 0.  1.
        -13    1    3    3    0    0  0.11374607385E+03  0.11885654295E+03  0.58766807163E+03  0.61026126334E+03  0.00000000000E+00 0. -1.
         22    1    1    2    0    0 -0.11328100780E+03 -0.20508667950E+03 -0.51142700911E+03  0.56253952615E+03  0.00000000000E+00 0. -1.
<mgrwt>
<rscale>  0 0.15126003E+04</rscale>
<asrwt>0</asrwt>
<pdfrwt beam="1">  1        2 0.15918331E+00 0.15126003E+04</pdfrwt>
<pdfrwt beam="2">  1       -2 0.85048005E-01 0.15126003E+04</pdfrwt>
<totfact> 0.27809540E+01</totfact>
</mgrwt>
</event>
<event>
 6    1  0.2325157E-005  0.4294808E+03  0.7818608E-02  0.1034024E+00
          2   -1    0    0  501    0  0.00000000000E+00  0.00000000000E+00  0.75798111353E+03  0.75798111353E+03  0.00000000000E+00 0.  1.
         -2   -1    0    0    0  501 -0.00000000000E+00 -0.00000000000E+00 -0.60837197519E+02  0.60837197519E+02  0.00000000000E+00 0. -1.
         23    2    1    2    0    0 -0.19730369346E+03  0.54958058539E+02  0.40807443179E+03  0.46454397898E+03  0.85599245801E+02 0.  0.
         11    1    3    3    0    0 -0.18130446141E+03  0.51748103102E+02  0.40656466094E+03  0.44815621989E+03  0.00000000000E+00 0. -1.
        -11    1    3    3    0    0 -0.15999232053E+02  0.32099554369E+01  0.15097708483E+01  0.16387759096E+02  0.00000000000E+00 0.  1.
         22    1    1    2    0    0  0.19730369346E+03 -0.54958058539E+02  0.28906948423E+03  0.35427433207E+03  0.00000000000E+00 0.  1.
<mgrwt>
<rscale>  0 0.42948083E+03</rscale>
<asrwt>0</asrwt>
<pdfrwt beam="1">  1        2 0.11661247E+00 0.42948083E+03</pdfrwt>
<pdfrwt beam="2">  1       -2 0.93595694E-02 0.42948083E+03</pdfrwt>
<totfact> 0.28162607E+03</totfact>
</mgrwt>
</event>
<event>
 6    1  0.2325157E-005  0.2476543E+04  0.7818608E-02  0.8411390E-01
          2   -1    0    0  501    0  0.00000000000E+00  0.00000000000E+00  0.19825278002E+04  0.19825278002E+04  0.00000000000E+00 0.  1.
         -2   -1    0    0    0  501 -0.00000000000E+00 -0.00000000000E+00 -0.77341465875E+03  0.77341465875E+03  0.00000000000E+00 0. -1.
         23    2    1    2    0    0 -0.17130593715E+02 -0.12355702818E+04  0.55395659067E+03  0.13573154591E+04  0.92249513576E+02 0.  0.
         11    1    3    3    0    0 -0.21864119880E+02 -0.42224822927E+03  0.14527005708E+03  0.44707381532E+03  0.00000000000E+00 0.  1.
        -11    1    3    3    0    0  0.47335261650E+01 -0.81332205253E+03  0.40868653359E+03  0.91024164382E+03  0.00000000000E+00 0. -1.
         22    1    1    2    0    0  0.17130593715E+02  0.12355702818E+04  0.65515655077E+03  0.13986269998E+04  0.00000000000E+00 0. -1.
<mgrwt>
<rscale>  0 0.24765428E+04</rscale>
<asrwt>0</asrwt>
<pdfrwt beam="1">  1        2 0.30500427E+00 0.24765428E+04</pdfrwt>
<pdfrwt beam="2">  1       -2 0.11898687E+00 0.24765428E+04</pdfrwt>
<totfact> 0.33111042E+00</totfact>
</mgrwt>
</event>
<event>
 6    1  0.2325157E-005  0.2225578E+04  0.7818608E-02  0.8507857E-01
          2   -1    0    0  501    0  0.00000000000E+00  0.00000000000E+00  0.33672930948E+04  0.33672930948E+04  0.00000000000E+00 0.  1.
         -2   -1    0    0    0  501 -0.00000000000E+00 -0.00000000000E+00 -0.36774328114E+03  0.36774328114E+03  0.00000000000E+00 0. -1.
         23    2    1    2    0    0  0.49917070465E+03  0.19418841498E+03 -0.13038395852E+03  0.55960475942E+03  0.96317066123E+02 0.  0.
         13    1    3    3    0    0  0.41338319672E+02 -0.10482749103E+02 -0.12432078012E+02  0.44421855722E+02  0.00000000000E+00 0. -1.
        -13    1    3    3    0    0  0.45783238498E+03  0.20467116408E+03 -0.11795188051E+03  0.51518290370E+03  0.00000000000E+00 0.  1.
         22    1    1    2    0    0 -0.49917070465E+03 -0.19418841498E+03  0.31299337722E+04  0.31754316165E+04  0.00000000000E+00 0.  1.
<mgrwt>
<rscale>  0 0.22255780E+04</rscale>
<asrwt>0</asrwt>
<pdfrwt beam="1">  1        2 0.51804507E+00 0.22255780E+04</pdfrwt>
<pdfrwt beam="2">  1       -2 0.56575892E-01 0.22255780E+04</pdfrwt>
<totfact> 0.26898340E+00</totfact>
</mgrwt>
</event>
<event>
 6    1  0.2325157E-005  0.2097659E+04  0.7818608E-02  0.8562275E-01
         -3   -1    0    0    0  501 -0.00000000000E+00  0.00000000000E+00  0.84970844371E+03  0.84970844371E+03  0.00000000000E+00 0. -1.
          3   -1    0    0  501    0  0.00000000000E+00 -0.00000000000E+00 -0.12946128187E+04  0.12946128187E+04  0.00000000000E+00 0.  1.
         23    2    1    2    0    0  0.36942171076E+03  0.79717453372E+03 -0.80455634213E+03  0.11949482192E+04  0.92901567970E+02 0.  0.
         13    1    3    3    0    0  0.14592092782E+03  0.42282020131E+03 -0.42078488671E+03  0.61410891599E+03  0.00000000000E+00 0.  1.
        -13    1    3    3    0    0  0.22350078294E+03  0.37435433241E+03 -0.38377145542E+03  0.58083930322E+03  0.00000000000E+00 0. -1.
         22    1    1    2    0    0 -0.36942171076E+03 -0.79717453372E+03  0.35965196717E+03  0.94937304316E+03  0.00000000000E+00 0. -1.
<mgrwt>
<rscale>  0 0.20976591E+04</rscale>
<asrwt>0</asrwt>
<pdfrwt beam="1">  1        3 0.19917120E+00 0.20976591E+04</pdfrwt>
<pdfrwt beam="2">  1       -3 0.13072438E+00 0.20976591E+04</pdfrwt>
<totfact> 0.16423719E-01</totfact>
</mgrwt>
</event>
<event>
 6    1  0.2325157E-005  0.2314202E+04  0.7818608E-02  0.8472343E-01
          2   -1    0    0  501    0  0.00000000000E+00  0.00000000000E+00  0.22472801897E+04  0.22472801897E+04  0.00000000000E+00 0.  1.
         -2   -1    0    0    0  501 -0.00000000000E+00 -0.00000000000E+00 -0.59577909341E+03  0.59577909341E+03  0.00000000000E+00 0. -1.
         23    2    1    2    0    0 -0.10422495435E+04 -0.42056241347E+03  0.11543561711E+04  0.16141126076E+04  0.98308117704E+02 0.  0.
         11    1    3    3    0    0 -0.55742778611E+02 -0.28792402268E+01  0.73626727423E+02  0.92392869760E+02  0.00000000000E+00 0.  1.
        -11    1    3    3    0    0 -0.98650676486E+03 -0.41768317324E+03  0.10807294436E+04  0.15217197379E+04  0.00000000000E+00 0. -1.
         22    1    1    2    0    0  0.10422495435E+04  0.42056241347E+03  0.49714492525E+03  0.12289466755E+04  0.00000000000E+00 0.  1.
<mgrwt>
<rscale>  0 0.23142019E+04</rscale>
<asrwt>0</asrwt>
<pdfrwt beam="1">  1        2 0.34573541E+00 0.23142019E+04</pdfrwt>
<pdfrwt beam="2">  1       -2 0.91658323E-01 0.23142019E+04</pdfrwt>
<totfact> 0.44546023E+00</totfact>
</mgrwt>
</event>
<event>
 6    1  0.2325157E-005  0.2287805E+04  0.7818608E-02  0.8482745E-01
          2   -1    0    0  501    0  0.00000000000E+00  0.00000000000E+00  0.36006854061E+04  0.36006854061E+04  0.00000000000E+00 0.  1.
         -2   -1    0    0    0  501 -0.00000000000E+00 -0.00000000000E+00 -0.36340650903E+03  0.36340650903E+03  0.00000000000E+00 0. -1.
         23    2    1    2    0    0  0.45952568899E+03  0.43657895601E+03  0.32673716836E+04  0.33295285853E+04  0.90982625944E+02 0.  0.
         11    1    3    3    0    0  0.11954108787E+02 -0.29823943986E+01  0.88086116723E+02  0.88943573981E+02  0.00000000000E+00 0. -1.
        -11    1    3    3    0    0  0.44757158020E+03  0.43956135041E+03  0.31792855669E+04  0.32405850114E+04  0.00000000000E+00 0.  1.
         22    1    1    2    0    0 -0.45952568899E+03 -0.43657895601E+03 -0.30092786552E+02  0.63456332976E+03  0.00000000000E+00 0. -1.
<mgrwt>
<rscale>  0 0.22878046E+04</rscale>
<asrwt>0</asrwt>
<pdfrwt beam="1">  1        2 0.55395158E+00 0.22878046E+04</pdfrwt>
<pdfrwt beam="2">  1       -2 0.55908696E-01 0.22878046E+04</pdfrwt>
<totfact> 0.18865999E+00</totfact>
</mgrwt>
</event>
<event>
 6    1  0.2325157E-005  0.3738696E+04  0.7818608E-02  0.8059440E-01
         -2   -1    0    0    0  501 -0.00000000000E+00  0.00000000000E+00  0.79705406153E+03  0.79705406153E+03  0.00000000000E+00 0. -1.
          2   -1    0    0  501    0  0.00000000000E+00 -0.00000000000E+00 -0.43842208480E+04  0.43842208480E+04  0.00000000000E+00 0.  1.
         23    2    1    2    0    0 -0.11337280353E+04 -0.72779017681E+03 -0.35884041332E+04  0.38340483768E+04  0.90911675618E+02 0.  0.
         13    1    3    3    0    0 -0.91992383487E+03 -0.61383182123E+03 -0.30220587365E+04  0.32180566144E+04  0.00000000000E+00 0. -1.
        -13    1    3    3    0    0 -0.21380420045E+03 -0.11395835558E+03 -0.56634539675E+03  0.61599176241E+03  0.00000000000E+00 0.  1.
         22    1    1    2    0    0  0.11337280353E+04  0.72779017681E+03  0.12373467327E+01  0.13472265327E+04  0.00000000000E+00 0. -1.
<mgrwt>
<rscale>  0 0.37386955E+04</rscale>
<asrwt>0</asrwt>
<pdfrwt beam="1">  1        2 0.67449552E+00 0.37386955E+04</pdfrwt>
<pdfrwt beam="2">  1       -2 0.12262370E+00 0.37386955E+04</pdfrwt>
<totfact> 0.64036657E-02</totfact>
</mgrwt>
</event>
<event>
 6    1  0.2325157E-005  0.2902345E+04  0.7818608E-02  0.8272180E-01
          2   -1    0    0  501    0  0.00000000000E+00  0.00000000000E+00  0.12093913711E+04  0.12093913711E+04  0.00000000000E+00 0. -1.
         -2   -1    0    0    0  501 -0.00000000000E+00 -0.00000000000E+00 -0.17412910056E+04  0.17412910056E+04  0.00000000000E+00 0.  1.
         23    2    1    2    0    0 -0.67197304188E+03 -0.12834797314E+04 -0.21720389799E+03  0.14681502871E+04  0.97055356434E+02 0.  0.
         11    1    3    3    0    0 -0.43319112675E+03 -0.89809640728E+03 -0.11808535855E+03  0.10040796089E+04  0.00000000000E+00 0.  1.
        -11    1    3    3    0    0 -0.23878191513E+03 -0.38538332416E+03 -0.99118539440E+02  0.46407067823E+03  0.00000000000E+00 0. -1.
         22    1    1    2    0    0  0.67197304188E+03  0.12834797314E+04 -0.31469573653E+03  0.14825320896E+04  0.00000000000E+00 0. -1.
<mgrwt>
<rscale>  0 0.29023455E+04</rscale>
<asrwt>0</asrwt>
<pdfrwt beam="1">  1        2 0.18606021E+00 0.29023455E+04</pdfrwt>
<pdfrwt beam="2">  1       -2 0.26789092E+00 0.29023455E+04</pdfrwt>
<totfact> 0.80550326E-01</totfact>
</mgrwt>
</event>
<event>
 6    1  0.2325157E-005  0.3026108E+04  0.7818608E-02  0.8236315E-01
         -2   -1    0    0    0  501 -0.00000000000E+00  0.00000000000E+00  0.21153556604E+04  0.21153556604E+04  0.00000000000E+00 0. -1.
          2   -1    0    0  501    0  0.00000000000E+00 -0.00000000000E+00 -0.10822449730E+04  0.10822449730E+04  0.00000000000E+00 0.  1.
         23    2    1    2    0    0 -0.95280601881E+02 -0.51030550484E+03  0.20172729152E+04  0.20849167645E+04  0.89430414454E+02 0.  0.
         11    1    3    3    0    0 -0.10990627532E+02 -0.21964221746E+03  0.72152220299E+03  0.75429290530E+03  0.00000000000E+00 0.  1.
        -11    1    3    3    0    0 -0.84289974349E+02 -0.29066328739E+03  0.12957507122E+04  0.13306238592E+04  0.00000000000E+00 0. -1.
         22    1    1    2    0    0  0.95280601881E+02  0.51030550484E+03 -0.98416222785E+03  0.11126838689E+04  0.00000000000E+00 0.  1.
<mgrwt>
<rscale>  0 0.30261084E+04</rscale>
<asrwt>0</asrwt>
<pdfrwt beam="1">  1        2 0.16649923E+00 0.30261084E+04</pdfrwt>
<pdfrwt beam="2">  1       -2 0.32543933E+00 0.30261084E+04</pdfrwt>
<totfact> 0.42285616E-01</totfact>
</mgrwt>
</event>
<event>
 6    1  0.2325157E-005  0.4227369E+04  0.7818608E-02  0.7960187E-01
          2   -1    0    0  501    0  0.00000000000E+00  0.00000000000E+00  0.28007301655E+04  0.28007301655E+04  0.00000000000E+00 0.  1.
         -2   -1    0    0    0  501 -0.00000000000E+00 -0.00000000000E+00 -0.15951773151E+04  0.15951773151E+04  0.00000000000E+00 0. -1.
         23    2    1    2    0    0 -0.11000862257E+04 -0.17831032259E+02  0.24787862446E+04  0.27131624239E+04  0.79758650853E+02 0.  0.
         11    1    3    3    0    0 -0.87372816682E+03 -0.30740821283E+02  0.18974230773E+04  0.20891529963E+04  0.00000000000E+00 0. -1.
        -11    1    3    3    0    0 -0.22635805887E+03  0.12909789024E+02  0.58136316734E+03  0.62400942766E+03  0.00000000000E+00 0.  1.
         22    1    1    2    0    0  0.11000862257E+04  0.17831032259E+02 -0.12732333942E+04  0.16827450567E+04  0.00000000000E+00 0. -1.
<mgrwt>
<rscale>  0 0.42273686E+04</rscale>
<asrwt>0</asrwt>
<pdfrwt beam="1">  1        2 0.43088156E+00 0.42273686E+04</pdfrwt>
<pdfrwt beam="2">  1       -2 0.24541189E+00 0.42273686E+04</pdfrwt>
<totfact> 0.12268538E-01</totfact>
</mgrwt>
</event>
<event>
 6    1  0.2325157E-005  0.2016277E+04  0.7818608E-02  0.8599048E-01
          1   -1    0    0  501    0  0.00000000000E+00  0.00000000000E+00  0.15451009114E+04  0.15451009114E+04  0.00000000000E+00 0. -1.
         -1   -1    0    0    0  501 -0.00000000000E+00 -0.00000000000E+00 -0.65778409246E+03  0.65778409246E+03  0.00000000000E+00 0.  1.
         23    2    1    2    0    0  0.24219130742E+03  0.33704985371E+03  0.14457602048E+04  0.15070989388E+04  0.94156297255E+02 0.  0.
         13    1    3    3    0    0  0.21094842963E+03  0.22960535347E+03  0.99820692382E+03  0.10457700135E+04  0.00000000000E+00 0. -1.
        -13    1    3    3    0    0  0.31242877785E+02  0.10744450024E+03  0.44755328095E+03  0.46132892532E+03  0.00000000000E+00 0.  1.
         22    1    1    2    0    0 -0.24219130742E+03 -0.33704985371E+03 -0.55844338579E+03  0.69578606511E+03  0.00000000000E+00 0.  1.
<mgrwt>
<rscale>  0 0.20162766E+04</rscale>
<asrwt>0</asrwt>
<pdfrwt beam="1">  1        1 0.23770783E+00 0.20162766E+04</pdfrwt>
<pdfrwt beam="2">  1       -1 0.10119755E+00 0.20162766E+04</pdfrwt>
<totfact> 0.52297405E+00</totfact>
</mgrwt>
</event>
<event>
 6    1  0.2325157E-005  0.1958534E+04  0.7818608E-02  0.8626256E-01
         -1   -1    0    0    0  501 -0.00000000000E+00  0.00000000000E+00  0.34710550981E+03  0.34710550981E+03  0.00000000000E+00 0. -1.
          1   -1    0    0  501    0  0.00000000000E+00 -0.00000000000E+00 -0.27627451990E+04  0.27627451990E+04  0.00000000000E+00 0.  1.
         23    2    1    2    0    0 -0.38633084881E+03  0.81713726126E+03 -0.18001620756E+04  0.20163345812E+04  0.89759771471E+02 0.  0.
         11    1    3    3    0    0 -0.35331690013E+03  0.67264977763E+03 -0.14867892342E+04  0.16696804431E+04  0.00000000000E+00 0.  1.
        -11    1    3    3    0    0 -0.33013948680E+02  0.14448748363E+03 -0.31337284139E+03  0.34665413809E+03  0.00000000000E+00 0. -1.
         22    1    1    2    0    0  0.38633084881E+03 -0.81713726126E+03 -0.61547761363E+03  0.10935161276E+04  0.00000000000E+00 0.  1.
<mgrwt>
<rscale>  0 0.19585342E+04</rscale>
<asrwt>0</asrwt>
<pdfrwt beam="1">  1        1 0.42503772E+00 0.19585342E+04</pdfrwt>
<pdfrwt beam="2">  1       -1 0.53400848E-01 0.19585342E+04</pdfrwt>
<totfact> 0.29213167E+00</totfact>
</mgrwt>
</event>
<event>
 6    1  0.2325157E-005  0.1672749E+04  0.7818608E-02  0.8777061E-01
          2   -1    0    0  501    0  0.00000000000E+00  0.00000000000E+00  0.10734283190E+04  0.10734283190E+04  0.00000000000E+00 0.  1.
         -2   -1    0    0    0  501 -0.00000000000E+00 -0.00000000000E+00 -0.65167094968E+03  0.65167094968E+03  0.00000000000E+00 0. -1.
         23    2    1    2    0    0 -0.14562883307E+03  0.80713911625E+03  0.36644273551E+03  0.90306458646E+03  0.92542200670E+02 0.  0.
         11    1    3    3    0    0 -0.59573772248E+02  0.17622740027E+03  0.11346869901E+03  0.21789969390E+03  0.00000000000E+00 0. -1.
        -11    1    3    3    0    0 -0.86055060822E+02  0.63091171598E+03  0.25297403650E+03  0.68516489256E+03  0.00000000000E+00 0.  1.
         22    1    1    2    0    0  0.14562883307E+03 -0.80713911625E+03  0.55314633755E+02  0.82203468218E+03  0.00000000000E+00 0. -1.
<mgrwt>
<rscale>  0 0.16727487E+04</rscale>
<asrwt>0</asrwt>
<pdfrwt beam="1">  1        2 0.16514282E+00 0.16727487E+04</pdfrwt>
<pdfrwt beam="2">  1       -2 0.10025707E+00 0.16727487E+04</pdfrwt>
<totfact> 0.17719586E+01</totfact>
</mgrwt>
</event>
<event>
 6    1  0.2400242E-005  0.3092555E+04  0.7818608E-02  0.8217784E-01
          2   -1    0    0  501    0  0.00000000000E+00  0.00000000000E+00  0.25051654752E+04  0.25051654752E+04  0.00000000000E+00 0.  1.
         -2   -1    0    0    0  501 -0.00000000000E+00 -0.00000000000E+00 -0.95441754232E+03  0.95441754232E+03  0.00000000000E+00 0. -1.
         23    2    1    2    0    0  0.64924263346E+03  0.10231943082E+04 -0.29604322654E+03  0.12507190163E+04  0.90630438195E+02 0.  0.
         11    1    3    3    0    0  0.48104590870E+03  0.68341830081E+03 -0.21665711676E+03  0.86336900940E+03  0.00000000000E+00 0.  1.
        -11    1    3    3    0    0  0.16819672476E+03  0.33977600739E+03 -0.79386109771E+02  0.38735000689E+03  0.00000000000E+00 0. -1.
         22    1    1    2    0    0 -0.64924263346E+03 -0.10231943082E+04  0.18467911594E+04  0.22088640012E+04  0.00000000000E+00 0.  1.
<mgrwt>
<rscale>  0 0.30925549E+04</rscale>
<asrwt>0</asrwt>
<pdfrwt beam="1">  1        2 0.38541007E+00 0.30925549E+04</pdfrwt>
<pdfrwt beam="2">  1       -2 0.14683347E+00 0.30925549E+04</pdfrwt>
<totfact> 0.93087926E-01</totfact>
</mgrwt>
</event>
<event>
 6    1  0.2325157E-005  0.4495627E+04  0.7818608E-02  0.7911403E-01
          1   -1    0    0  501    0  0.00000000000E+00  0.00000000000E+00  0.31575985053E+04  0.31575985053E+04  0.00000000000E+00 0.  1.
         -1   -1    0    0    0  501 -0.00000000000E+00 -0.00000000000E+00 -0.16001606068E+04  0.16001606068E+04  0.00000000000E+00 0. -1.
         23    2    1    2    0    0  0.20176765492E+04 -0.91470793958E+03  0.11758993062E+04  0.25098087192E+04  0.93227446849E+02 0.  0.
         13    1    3    3    0    0  0.17618211491E+04 -0.82693460933E+03  0.10507740294E+04  0.22117777172E+04  0.00000000000E+00 0. -1.
        -13    1    3    3    0    0  0.25585540009E+03 -0.87773330257E+02  0.12512527685E+03  0.29803100202E+03  0.00000000000E+00 0.  1.
         22    1    1    2    0    0 -0.20176765492E+04  0.91470793958E+03  0.38153859225E+03  0.22479503930E+04  0.00000000000E+00 0. -1.
<mgrwt>
<rscale>  0 0.44956266E+04</rscale>
<asrwt>0</asrwt>
<pdfrwt beam="1">  1        1 0.48578438E+00 0.44956266E+04</pdfrwt>
<pdfrwt beam="2">  1       -1 0.24617856E+00 0.44956266E+04</pdfrwt>
<totfact> 0.25373260E-02</totfact>
</mgrwt>
</event>
<event>
 6    1  0.2325157E-005  0.1656561E+04  0.7818608E-02  0.8786535E-01
          2   -1    0    0  501    0  0.00000000000E+00  0.00000000000E+00  0.19401180467E+04  0.19401180467E+04  0.00000000000E+00 0.  1.
         -2   -1    0    0    0  501 -0.00000000000E+00 -0.00000000000E+00 -0.35361172352E+03  0.35361172352E+03  0.00000000000E+00 0. -1.
         23    2    1    2    0    0 -0.40378668314E+03 -0.69939402568E+03  0.55661603378E+03  0.98496329110E+03  0.90197489495E+02 0.  0.
         13    1    3    3    0    0 -0.11961750390E+03 -0.15756565365E+03  0.10092062394E+03  0.22208163991E+03  0.00000000000E+00 0. -1.
        -13    1    3    3    0    0 -0.28416917924E+03 -0.54182837204E+03  0.45569540985E+03  0.76288165120E+03  0.00000000000E+00 0.  1.
         22    1    1    2    0    0  0.40378668314E+03  0.69939402568E+03  0.10298902894E+04  0.13087664791E+04  0.00000000000E+00 0. -1.
<mgrwt>
<rscale>  0 0.16565609E+04</rscale>
<asrwt>0</asrwt>
<pdfrwt beam="1">  1        2 0.29847969E+00 0.16565609E+04</pdfrwt>
<pdfrwt beam="2">  1       -2 0.54401805E-01 0.16565609E+04</pdfrwt>
<totfact> 0.21906653E+01</totfact>
</mgrwt>
</event>
<event>
 6    1  0.2325157E-005  0.2269727E+04  0.7818608E-02  0.8489954E-01
         -2   -1    0    0    0  501 -0.00000000000E+00  0.00000000000E+00  0.67586961174E+03  0.67586961174E+03  0.00000000000E+00 0.  1.
          2   -1    0    0  501    0  0.00000000000E+00 -0.00000000000E+00 -0.19055678125E+04  0.19055678125E+04  0.00000000000E+00 0. -1.
         23    2    1    2    0    0 -0.91272465664E+03  0.17872623898E+03 -0.13517928610E+04  0.16433987932E+04  0.91685806199E+02 0.  0.
         13    1    3    3    0    0 -0.54397473103E+03  0.10087857455E+03 -0.88140931702E+03  0.10406571861E+04  0.00000000000E+00 0. -1.
        -13    1    3    3    0    0 -0.36874992561E+03  0.77847664431E+02 -0.47038354398E+03  0.60274160711E+03  0.00000000000E+00 0.  1.
         22    1    1    2    0    0  0.91272465664E+03 -0.17872623898E+03  0.12209466022E+03  0.93803863108E+03  0.00000000000E+00 0.  1.
<mgrwt>
<rscale>  0 0.22697272E+04</rscale>
<asrwt>0</asrwt>
<pdfrwt beam="1">  1        2 0.29316428E+00 0.22697272E+04</pdfrwt>
<pdfrwt beam="2">  1       -2 0.10397994E+00 0.22697272E+04</pdfrwt>
<totfact> 0.51563948E+00</totfact>
</mgrwt>
</event>
<event>
 6    1  0.2325157E-005  0.2656050E+04  0.7818608E-02  0.8349408E-01
          2   -1    0    0  501    0  0.00000000000E+00  0.00000000000E+00  0.13749087503E+04  0.13749087503E+04  0.00000000000E+00 0.  1.
         -2   -1    0    0    0  501 -0.00000000000E+00 -0.00000000000E+00 -0.12827396870E+04  0.12827396870E+04  0.00000000000E+00 0. -1.
         23    2    1    2    0    0 -0.46339255356E+03  0.58402848437E+03 -0.10516739278E+04  0.12922918107E+04  0.90433093379E+02 0.  0.
         13    1    3    3    0    0 -0.32925692026E+03  0.37774046534E+03 -0.64211902933E+03  0.81450280940E+03  0.00000000000E+00 0.  1.
        -13    1    3    3    0    0 -0.13413563331E+03  0.20628801903E+03 -0.40955489850E+03  0.47778900134E+03  0.00000000000E+00 0. -1.
         22    1    1    2    0    0  0.46339255356E+03 -0.58402848437E+03  0.11438429911E+04  0.13653566265E+04  0.00000000000E+00 0.  1.
<mgrwt>
<rscale>  0 0.26560497E+04</rscale>
<asrwt>0</asrwt>
<pdfrwt beam="1">  1        2 0.21152442E+00 0.26560497E+04</pdfrwt>
<pdfrwt beam="2">  1       -2 0.19734457E+00 0.26560497E+04</pdfrwt>
<totfact> 0.18239197E+00</totfact>
</mgrwt>
</event>
<event>
 6    1  0.2325157E-005  0.2894464E+04  0.7818608E-02  0.8274526E-01
          2   -1    0    0  501    0  0.00000000000E+00  0.00000000000E+00  0.22036657456E+04  0.22036657456E+04  0.00000000000E+00 0.  1.
         -2   -1    0    0    0  501 -0.00000000000E+00 -0.00000000000E+00 -0.95045311450E+03  0.95045311450E+03  0.00000000000E+00 0. -1.
         23    2    1    2    0    0  0.94203979254E+03  0.64503347118E+03  0.15938671756E+04  0.19626690422E+04  0.90277605176E+02 0.  0.
         11    1    3    3    0    0  0.60117251748E+03  0.42819248001E+03  0.10989391481E+04  0.13237916932E+04  0.00000000000E+00 0. -1.
        -11    1    3    3    0    0  0.34086727507E+03  0.21684099117E+03  0.49492802757E+03  0.63887734906E+03  0.00000000000E+00 0.  1.
         22    1    1    2    0    0 -0.94203979254E+03 -0.64503347118E+03 -0.34065454459E+03  0.11914498178E+04  0.00000000000E+00 0. -1.
<mgrwt>
<rscale>  0 0.28944644E+04</rscale>
<asrwt>0</asrwt>
<pdfrwt beam="1">  1        2 0.33902550E+00 0.28944644E+04</pdfrwt>
<pdfrwt beam="2">  1       -2 0.14622356E+00 0.28944644E+04</pdfrwt>
<totfact> 0.14222515E+00</totfact>
</mgrwt>
</event>
<event>
 6    1  0.2325157E-005  0.1479419E+04  0.7818608E-02  0.8898256E-01
         -2   -1    0    0    0  501 -0.00000000000E+00  0.00000000000E+00  0.66547937721E+03  0.66547937721E+03  0.00000000000E+00 0. -1.
          2   -1    0    0  501    0  0.00000000000E+00 -0.00000000000E+00 -0.82221905347E+03  0.82221905347E+03  0.00000000000E+00 0.  1.
         23    2    1    2    0    0  0.16158727389E+03  0.17834334404E+02 -0.80155078443E+03  0.82270980237E+03  0.89102459754E+02 0.  0.
         11    1    3    3    0    0  0.81883201546E+02  0.27579383108E+02 -0.23276764558E+03  0.24828664462E+03  0.00000000000E+00 0. -1.
        -11    1    3    3    0    0  0.79704072340E+02 -0.97450487035E+01 -0.56878313885E+03  0.57442315776E+03  0.00000000000E+00 0.  1.
         22    1    1    2    0    0 -0.16158727389E+03 -0.17834334404E+02  0.64481110816E+03  0.66498862831E+03  0.00000000000E+00 0. -1.
<mgrwt>
<rscale>  0 0.14794186E+04</rscale>
<asrwt>0</asrwt>
<pdfrwt beam="1">  1        2 0.12649524E+00 0.14794186E+04</pdfrwt>
<pdfrwt beam="2">  1       -2 0.10238144E+00 0.14794186E+04</pdfrwt>
<totfact> 0.25097097E+01</totfact>
</mgrwt>
</event>
<event>
 6    1  0.2325157E-005  0.5079215E+04  0.7818608E-02  0.7816402E-01
         -2   -1    0    0    0  501 -0.00000000000E+00  0.00000000000E+00  0.21630082644E+04  0.21630082644E+04  0.00000000000E+00 0. -1.
          2   -1    0    0  501    0  0.00000000000E+00 -0.00000000000E+00 -0.29817758072E+04  0.29817758072E+04  0.00000000000E+00 0.  1.
         23    2    1    2    0    0  0.81887538570E+03 -0.36293123741E+01 -0.28436207992E+04  0.29606135702E+04  0.92105334881E+02 0.  0.
         11    1    3    3    0    0  0.56790072966E+03 -0.34777650055E+02 -0.18662779937E+04  0.19510802837E+04  0.00000000000E+00 0. -1.
        -11    1    3    3    0    0  0.25097465604E+03  0.31148337681E+02 -0.97734280554E+03  0.10095332865E+04  0.00000000000E+00 0.  1.
         22    1    1    2    0    0 -0.81887538570E+03  0.36293123741E+01  0.20248532565E+04  0.21841705014E+04  0.00000000000E+00 0. -1.
<mgrwt>
<rscale>  0 0.50792148E+04</rscale>
<asrwt>0</asrwt>
<pdfrwt beam="1">  1        2 0.45873474E+00 0.50792148E+04</pdfrwt>
<pdfrwt beam="2">  1       -2 0.33277050E+00 0.50792148E+04</pdfrwt>
<totfact> 0.25789458E-02</totfact>
</mgrwt>
</event>
<event>
 6    1  0.2325157E-005  0.1881023E+04  0.7818608E-02  0.8664360E-01
         -2   -1    0    0    0  501 -0.00000000000E+00  0.00000000000E+00  0.31933507956E+03  0.31933507956E+03  0.00000000000E+00 0. -1.
          2   -1    0    0  501    0  0.00000000000E+00 -0.00000000000E+00 -0.27700126081E+04  0.27700126081E+04  0.00000000000E+00 0.  1.
         23    2    1    2    0    0  0.55511180075E+03 -0.18099726221E+03 -0.24343591591E+04  0.25052454624E+04  0.96131116572E+02 0.  0.
         13    1    3    3    0    0  0.12068209817E+03 -0.56621877319E+02 -0.41253664601E+03  0.43353972149E+03  0.00000000000E+00 0.  1.
        -13    1    3    3    0    0  0.43442970259E+03 -0.12437538489E+03 -0.20218225130E+04  0.20717057410E+04  0.00000000000E+00 0. -1.
         22    1    1    2    0    0 -0.55511180075E+03  0.18099726221E+03 -0.16318369440E+02  0.58410222517E+03  0.00000000000E+00 0. -1.
<mgrwt>
<rscale>  0 0.18810233E+04</rscale>
<asrwt>0</asrwt>
<pdfrwt beam="1">  1        2 0.42615578E+00 0.18810233E+04</pdfrwt>
<pdfrwt beam="2">  1       -2 0.49128475E-01 0.18810233E+04</pdfrwt>
<totfact> 0.88876077E+00</totfact>
</mgrwt>
</event>
<event>
 6    1  0.2325157E-005  0.2807092E+04  0.7818608E-02  0.8301070E-01
         -2   -1    0    0    0  501 -0.00000000000E+00  0.00000000000E+00  0.46246769300E+03  0.46246769300E+03  0.00000000000E+00 0. -1.
          2   -1    0    0  501    0  0.00000000000E+00 -0.00000000000E+00 -0.42596295376E+04  0.42596295376E+04  0.00000000000E+00 0.  1.
         23    2    1    2    0    0  0.11531892729E+04 -0.41241103642E+03 -0.30484188062E+04  0.32866375482E+04  0.95920764026E+02 0.  0.
         13    1    3    3    0    0  0.67646967131E+03 -0.29106223946E+03 -0.18495683054E+04  0.19907866184E+04  0.00000000000E+00 0. -1.
        -13    1    3    3    0    0  0.47671960164E+03 -0.12134879695E+03 -0.11988505008E+04  0.12958509299E+04  0.00000000000E+00 0.  1.
         22    1    1    2    0    0 -0.11531892729E+04  0.41241103642E+03 -0.74874303833E+03  0.14354596823E+04  0.00000000000E+00 0. -1.
<mgrwt>
<rscale>  0 0.28070918E+04</rscale>
<asrwt>0</asrwt>
<pdfrwt beam="1">  1        2 0.65532761E+00 0.28070918E+04</pdfrwt>
<pdfrwt beam="2">  1       -2 0.71148877E-01 0.28070918E+04</pdfrwt>
<totfact> 0.32189665E-01</totfact>
</mgrwt>
</event>
<event>
 6    1  0.2325157E-005  0.2050301E+04  0.7818608E-02  0.8583458E-01
         -2   -1    0    0    0  501 -0.00000000000E+00  0.00000000000E+00  0.19593440558E+04  0.19593440558E+04  0.00000000000E+00 0. -1.
          2   -1    0    0  501    0  0.00000000000E+00 -0.00000000000E+00 -0.53637003160E+03  0.53637003160E+03  0.00000000000E+00 0.  1.
         23    2    1    2    0    0  0.20592891668E+03 -0.25980660773E+03  0.18910802747E+04  0.19221030224E+04  0.91592747878E+02 0.  0.
         11    1    3    3    0    0  0.20812795524E+03 -0.23108328250E+03  0.17969678377E+04  0.18236803829E+04  0.00000000000E+00 0.  1.
        -11    1    3    3    0    0 -0.21990385586E+01 -0.28723325229E+02  0.94112436940E+02  0.98422639517E+02  0.00000000000E+00 0. -1.
         22    1    1    2    0    0 -0.20592891668E+03  0.25980660773E+03 -0.46810625046E+03  0.57361106498E+03  0.00000000000E+00 0.  1.
<mgrwt>
<rscale>  0 0.20503009E+04</rscale>
<asrwt>0</asrwt>
<pdfrwt beam="1">  1        2 0.82518468E-01 0.20503009E+04</pdfrwt>
<pdfrwt beam="2">  1       -2 0.30143754E+00 0.20503009E+04</pdfrwt>
<totfact> 0.16359030E+00</totfact>
</mgrwt>
</event>
<event>
 6    1  0.2325157E-005  0.1576797E+04  0.7818608E-02  0.8834931E-01
         -2   -1    0    0    0  501 -0.00000000000E+00  0.00000000000E+00  0.36380627502E+03  0.36380627502E+03  0.00000000000E+00 0. -1.
          2   -1    0    0  501    0  0.00000000000E+00 -0.00000000000E+00 -0.17085255287E+04  0.17085255287E+04  0.00000000000E+00 0.  1.
         23    2    1    2    0    0  0.20274408242E+03 -0.73990203797E+03 -0.89810027069E+03  0.11846219949E+04  0.90470911348E+02 0.  0.
         11    1    3    3    0    0  0.58642378754E+02 -0.38096364586E+03 -0.46357867072E+03  0.60289087901E+03  0.00000000000E+00 0.  1.
        -11    1    3    3    0    0  0.14410170366E+03 -0.35893839211E+03 -0.43452159997E+03  0.58173111587E+03  0.00000000000E+00 0. -1.
         22    1    1    2    0    0 -0.20274408242E+03  0.73990203797E+03 -0.44661898298E+03  0.88770980883E+03  0.00000000000E+00 0.  1.
<mgrwt>
<rscale>  0 0.15767971E+04</rscale>
<asrwt>0</asrwt>
<pdfrwt beam="1">  1        2 0.26285008E+00 0.15767971E+04</pdfrwt>
<pdfrwt beam="2">  1       -2 0.55970196E-01 0.15767971E+04</pdfrwt>
<totfact> 0.27930089E+01</totfact>
</mgrwt>
</event>
<event>
 6    1  0.2325157E-005  0.2141899E+04  0.7818608E-02  0.8543008E-01
         -2   -1    0    0    0  501 -0.00000000000E+00  0.00000000000E+00  0.34997772911E+03  0.34997772911E+03  0.00000000000E+00 0. -1.
          2   -1    0    0  501    0  0.00000000000E+00 -0.00000000000E+00 -0.32771594733E+04  0.32771594733E+04  0.00000000000E+00 0.  1.
         23    2    1    2    0    0  0.62580470120E+03  0.81449915729E+03 -0.19679590864E+04  0.22217374342E+04  0.90630345341E+02 0.  0.
         11    1    3    3    0    0  0.40010133828E+03  0.58108197794E+03 -0.13912073324E+04  0.15598702471E+04  0.00000000000E+00 0.  1.
        -11    1    3    3    0    0  0.22570336291E+03  0.23341717935E+03 -0.57675175400E+03  0.66186718712E+03  0.00000000000E+00 0. -1.
         22    1    1    2    0    0 -0.62580470120E+03 -0.81449915729E+03 -0.95922265775E+03  0.14053997682E+04  0.00000000000E+00 0. -1.
<mgrwt>
<rscale>  0 0.21418990E+04</rscale>
<asrwt>0</asrwt>
<pdfrwt beam="1">  1        2 0.50417838E+00 0.21418990E+04</pdfrwt>
<pdfrwt beam="2">  1       -2 0.53842728E-01 0.21418990E+04</pdfrwt>
<totfact> 0.34521605E+00</totfact>
</mgrwt>
</event>
<event>
 6    1  0.2325157E-005  0.1537341E+04  0.7818608E-02  0.8859994E-01
          2   -1    0    0  501    0  0.00000000000E+00  0.00000000000E+00  0.20357953742E+04  0.20357953742E+04  0.00000000000E+00 0.  1.
         -2   -1    0    0    0  501 -0.00000000000E+00 -0.00000000000E+00 -0.29023260934E+03  0.29023260934E+03  0.00000000000E+00 0. -1.
         23    2    1    2    0    0  0.18171530576E+03  0.60024965253E+03  0.15412677098E+04  0.16664398035E+04  0.90528270918E+02 0.  0.
         11    1    3    3    0    0  0.17348642541E+03  0.50252378020E+03  0.12268531586E+04  0.13370850243E+04  0.00000000000E+00 0.  1.
        -11    1    3    3    0    0  0.82288803577E+01  0.97725872329E+02  0.31441455120E+03  0.32935477923E+03  0.00000000000E+00 0. -1.
         22    1    1    2    0    0 -0.18171530576E+03 -0.60024965253E+03  0.20429505511E+03  0.65958818004E+03  0.00000000000E+00 0. -1.
<mgrwt>
<rscale>  0 0.15373408E+04</rscale>
<asrwt>0</asrwt>
<pdfrwt beam="1">  1        2 0.31319928E+00 0.15373408E+04</pdfrwt>
<pdfrwt beam="2">  1       -2 0.44651172E-01 0.15373408E+04</pdfrwt>
<totfact> 0.29257944E+01</totfact>
</mgrwt>
</event>
<event>
 6    1  0.2325157E-005  0.2306317E+04  0.7818608E-02  0.8475435E-01
          2   -1    0    0  501    0  0.00000000000E+00  0.00000000000E+00  0.12564583693E+04  0.12564583693E+04  0.00000000000E+00 0.  1.
         -2   -1    0    0    0  501 -0.00000000000E+00 -0.00000000000E+00 -0.10583511913E+04  0.10583511913E+04  0.00000000000E+00 0. -1.
         23    2    1    2    0    0  0.11018613209E+04  0.31303733580E+03  0.21632935917E+03  0.11691993336E+04  0.90210564134E+02 0.  0.
         11    1    3    3    0    0  0.30365968641E+03  0.48952577367E+02  0.40211948260E+02  0.31019761566E+03  0.00000000000E+00 0.  1.
        -11    1    3    3    0    0  0.79820163454E+03  0.26408475843E+03  0.17611741091E+03  0.85900171795E+03  0.00000000000E+00 0. -1.
         22    1    1    2    0    0 -0.11018613209E+04 -0.31303733580E+03 -0.18222181131E+02  0.11456102269E+04  0.00000000000E+00 0.  1.
<mgrwt>
<rscale>  0 0.23063167E+04</rscale>
<asrwt>0</asrwt>
<pdfrwt beam="1">  1        2 0.19330129E+00 0.23063167E+04</pdfrwt>
<pdfrwt beam="2">  1       -2 0.16282326E+00 0.23063167E+04</pdfrwt>
<totfact> 0.38153608E+00</totfact>
</mgrwt>
</event>
<event>
 6    1  0.2325157E-005  0.2706301E+04  0.7818608E-02  0.8332964E-01
         -2   -1    0    0    0  501 -0.00000000000E+00  0.00000000000E+00  0.12225388707E+04  0.12225388707E+04  0.00000000000E+00 0. -1.
          2   -1    0    0  501    0  0.00000000000E+00 -0.00000000000E+00 -0.14977158792E+04  0.14977158792E+04  0.00000000000E+00 0.  1.
         23    2    1    2    0    0 -0.64281093986E+03 -0.88789213999E+03 -0.93255824077E+03  0.14420887039E+04  0.91632968580E+02 0.  0.
         13    1    3    3    0    0 -0.15883976128E+03 -0.22226081000E+03 -0.28600969205E+03  0.39551419870E+03  0.00000000000E+00 0.  1.
        -13    1    3    3    0    0 -0.48397117859E+03 -0.66563132999E+03 -0.64654854872E+03  0.10465745052E+04  0.00000000000E+00 0. -1.
         22    1    1    2    0    0  0.64281093986E+03  0.88789213999E+03  0.65738123224E+03  0.12781660460E+04  0.00000000000E+00 0. -1.
<mgrwt>
<rscale>  0 0.27063007E+04</rscale>
<asrwt>0</asrwt>
<pdfrwt beam="1">  1        2 0.23041783E+00 0.27063007E+04</pdfrwt>
<pdfrwt beam="2">  1       -2 0.18808290E+00 0.27063007E+04</pdfrwt>
<totfact> 0.17828153E+00</totfact>
</mgrwt>
</event>
<event>
 6    1  0.2325157E-005  0.1019494E+04  0.7818608E-02  0.9287419E-01
          2   -1    0    0  501    0  0.00000000000E+00  0.00000000000E+00  0.11178134080E+04  0.11178134080E+04  0.00000000000E+00 0.  1.
         -2   -1    0    0    0  501 -0.00000000000E+00 -0.00000000000E+00 -0.23245567666E+03  0.23245567666E+03  0.00000000000E+00 0. -1.
         23    2    1    2    0    0  0.11456477028E+03  0.46426054043E+03  0.66466752872E+03  0.82361255379E+03  0.88835685579E+02 0.  0.
         11    1    3    3    0    0  0.13090817795E+02  0.63459631564E+02  0.45815584779E+02  0.79357180881E+02  0.00000000000E+00 0. -1.
        -11    1    3    3    0    0  0.10147395248E+03  0.40080090887E+03  0.61885194394E+03  0.74425537291E+03  0.00000000000E+00 0.  1.
         22    1    1    2    0    0 -0.11456477028E+03 -0.46426054043E+03  0.22069020264E+03  0.52665653089E+03  0.00000000000E+00 0.  1.
<mgrwt>
<rscale>  0 0.10194941E+04</rscale>
<asrwt>0</asrwt>
<pdfrwt beam="1">  1        2 0.17197129E+00 0.10194941E+04</pdfrwt>
<pdfrwt beam="2">  1       -2 0.35762412E-01 0.10194941E+04</pdfrwt>
<totfact> 0.15554696E+02</totfact>
</mgrwt>
</event>
<event>
 6    1  0.2325157E-005  0.3134490E+04  0.7818608E-02  0.8206336E-01
          2   -1    0    0  501    0  0.00000000000E+00  0.00000000000E+00  0.18053828898E+04  0.18053828898E+04  0.00000000000E+00 0.  1.
         -2   -1    0    0    0  501 -0.00000000000E+00 -0.00000000000E+00 -0.13605186362E+04  0.13605186362E+04  0.00000000000E+00 0. -1.
         23    2    1    2    0    0 -0.37380775122E+03 -0.13086013946E+04  0.10049787959E+04  0.16942024585E+04  0.90386643218E+02 0.  0.
         11    1    3    3    0    0 -0.13038047093E+03 -0.45328518589E+03  0.40240223233E+03  0.61999522863E+03  0.00000000000E+00 0. -1.
        -11    1    3    3    0    0 -0.24342728028E+03 -0.85531620876E+03  0.60257656356E+03  0.10742072299E+04  0.00000000000E+00 0.  1.
         22    1    1    2    0    0  0.37380775122E+03  0.13086013946E+04 -0.56011454230E+03  0.14716990676E+04  0.00000000000E+00 0. -1.
<mgrwt>
<rscale>  0 0.31344901E+04</rscale>
<asrwt>0</asrwt>
<pdfrwt beam="1">  1        2 0.27775121E+00 0.31344901E+04</pdfrwt>
<pdfrwt beam="2">  1       -2 0.20931056E+00 0.31344901E+04</pdfrwt>
<totfact> 0.83940144E-01</totfact>
</mgrwt>
</event>
<event>
 6    1  0.2325157E-005  0.2541122E+04  0.7818608E-02  0.8388480E-01
         -2   -1    0    0    0  501 -0.00000000000E+00  0.00000000000E+00  0.12331622330E+04  0.12331622330E+04  0.00000000000E+00 0.  1.
          2   -1    0    0  501    0  0.00000000000E+00 -0.00000000000E+00 -0.13090943468E+04  0.13090943468E+04  0.00000000000E+00 0. -1.
         23    2    1    2    0    0  0.36603698206E+03  0.98903378770E+03 -0.74412108542E+03  0.12937985681E+04  0.89597095347E+02 0.  0.
         13    1    3    3    0    0  0.92535869242E+02  0.35028863232E+03 -0.28517012374E+03  0.46107159152E+03  0.00000000000E+00 0. -1.
        -13    1    3    3    0    0  0.27350111282E+03  0.63874515538E+03 -0.45895096168E+03  0.83272697654E+03  0.00000000000E+00 0.  1.
         22    1    1    2    0    0 -0.36603698206E+03 -0.98903378770E+03  0.66818897159E+03  0.12484580118E+04  0.00000000000E+00 0.  1.
<mgrwt>
<rscale>  0 0.25411224E+04</rscale>
<asrwt>0</asrwt>
<pdfrwt beam="1">  1        2 0.20139913E+00 0.25411224E+04</pdfrwt>
<pdfrwt beam="2">  1       -2 0.18971727E+00 0.25411224E+04</pdfrwt>
<totfact> 0.22599481E+00</totfact>
</mgrwt>
</event>
<event>
 6    1  0.2325157E-005  0.2935099E+04  0.7818608E-02  0.8262510E-01
          2   -1    0    0  501    0  0.00000000000E+00  0.00000000000E+00  0.26878677201E+04  0.26878677201E+04  0.00000000000E+00 0.  1.
         -2   -1    0    0    0  501 -0.00000000000E+00 -0.00000000000E+00 -0.80126768934E+03  0.80126768934E+03  0.00000000000E+00 0. -1.
         23    2    1    2    0    0  0.10809827917E+04  0.73148352398E+02  0.21184144332E+04  0.23811586973E+04  0.91446997691E+02 0.  0.
         13    1    3    3    0    0  0.82032089295E+03  0.33004381049E+02  0.16712530491E+04  0.18620156848E+04  0.00000000000E+00 0.  1.
        -13    1    3    3    0    0  0.26066189875E+03  0.40143971349E+02  0.44716138417E+03  0.51914301246E+03  0.00000000000E+00 0. -1.
         22    1    1    2    0    0 -0.10809827917E+04 -0.73148352398E+02 -0.23181440249E+03  0.11079767121E+04  0.00000000000E+00 0.  1.
<mgrwt>
<rscale>  0 0.29350990E+04</rscale>
<asrwt>0</asrwt>
<pdfrwt beam="1">  1        2 0.41351811E+00 0.29350990E+04</pdfrwt>
<pdfrwt beam="2">  1       -2 0.12327195E+00 0.29350990E+04</pdfrwt>
<totfact> 0.11533198E+00</totfact>
</mgrwt>
</event>
<event>
 6    1  0.2325157E-005  0.1145852E+04  0.7818608E-02  0.9161619E-01
         -2   -1    0    0    0  501 -0.00000000000E+00  0.00000000000E+00  0.33938361982E+03  0.33938361982E+03  0.00000000000E+00 0. -1.
          2   -1    0    0  501    0  0.00000000000E+00 -0.00000000000E+00 -0.96717752667E+03  0.96717752667E+03  0.00000000000E+00 0.  1.
         23    2    1    2    0    0  0.31676945120E+03 -0.46816189636E+03 -0.39321894013E+03  0.69456125970E+03  0.90971216234E+02 0.  0.
         11    1    3    3    0    0  0.20651884606E+03 -0.35234675291E+03 -0.24339073437E+03  0.47543382046E+03  0.00000000000E+00 0. -1.
        -11    1    3    3    0    0  0.11025060514E+03 -0.11581514346E+03 -0.14982820575E+03  0.21912743924E+03  0.00000000000E+00 0.  1.
         22    1    1    2    0    0 -0.31676945120E+03  0.46816189636E+03 -0.23457496672E+03  0.61199988679E+03  0.00000000000E+00 0. -1.
<mgrwt>
<rscale>  0 0.11458520E+04</rscale>
<asrwt>0</asrwt>
<pdfrwt beam="1">  1        2 0.14879654E+00 0.11458520E+04</pdfrwt>
<pdfrwt beam="2">  1       -2 0.52212866E-01 0.11458520E+04</pdfrwt>
<totfact> 0.90685471E+01</totfact>
</mgrwt>
</event>
<event>
 6    1  0.2325157E-005  0.1495951E+04  0.7818608E-02  0.8887150E-01
          2   -1    0    0  501    0  0.00000000000E+00  0.00000000000E+00  0.55358968793E+03  0.55358968793E+03  0.00000000000E+00 0.  1.
         -2   -1    0    0    0  501 -0.00000000000E+00 -0.00000000000E+00 -0.10106179694E+04  0.10106179694E+04  0.00000000000E+00 0. -1.
         23    2    1    2    0    0 -0.40793601591E+03  0.52962500942E+03  0.11518712241E+03  0.68423895783E+03  0.89445148354E+02 0.  0.
         11    1    3    3    0    0 -0.18476835003E+03  0.30120158351E+03  0.35744087602E+02  0.35516105766E+03  0.00000000000E+00 0.  1.
        -11    1    3    3    0    0 -0.22316766589E+03  0.22842342591E+03  0.79443034805E+02  0.32907790017E+03  0.00000000000E+00 0. -1.
         22    1    1    2    0    0  0.40793601591E+03 -0.52962500942E+03 -0.57221540391E+03  0.87996869953E+03  0.00000000000E+00 0. -1.
<mgrwt>
<rscale>  0 0.14959515E+04</rscale>
<asrwt>0</asrwt>
<pdfrwt beam="1">  1        2 0.85167644E-01 0.14959515E+04</pdfrwt>
<pdfrwt beam="2">  1       -2 0.15547969E+00 0.14959515E+04</pdfrwt>
<totfact> 0.14361380E+01</totfact>
</mgrwt>
</event>
<event>
 6    1  0.2325157E-005  0.3550454E+04  0.7818608E-02  0.8101936E-01
         -2   -1    0    0    0  501 -0.00000000000E+00  0.00000000000E+00  0.25949044803E+04  0.25949044803E+04  0.00000000000E+00 0. -1.
          2   -1    0    0  501    0  0.00000000000E+00 -0.00000000000E+00 -0.12144689538E+04  0.12144689538E+04  0.00000000000E+00 0.  1.
         23    2    1    2    0    0 -0.16893976862E+04  0.54130726832E+03  0.70423869024E+03  0.19108686904E+04  0.91591038513E+02 0.  0.
         13    1    3    3    0    0 -0.25295931475E+03  0.68699415847E+02  0.13723784769E+03  0.29587539860E+03  0.00000000000E+00 0. -1.
        -13    1    3    3    0    0 -0.14364383714E+04  0.47260785247E+03  0.56700084255E+03  0.16149932918E+04  0.00000000000E+00 0.  1.
         22    1    1    2    0    0  0.16893976862E+04 -0.54130726832E+03  0.67619683625E+03  0.18985047438E+04  0.00000000000E+00 0. -1.
<mgrwt>
<rscale>  0 0.35504540E+04</rscale>
<asrwt>0</asrwt>
<pdfrwt beam="1">  1        2 0.18684138E+00 0.35504540E+04</pdfrwt>
<pdfrwt beam="2">  1       -2 0.39921607E+00 0.35504540E+04</pdfrwt>
<totfact> 0.11402411E-01</totfact>
</mgrwt>
</event>
<event>
 6    1  0.2325157E-005  0.1778125E+04  0.7818608E-02  0.8718020E-01
          2   -1    0    0  501    0  0.00000000000E+00  0.00000000000E+00  0.20294241357E+04  0.20294241357E+04  0.00000000000E+00 0.  1.
         -2   -1    0    0    0  501 -0.00000000000E+00 -0.00000000000E+00 -0.38948586034E+03  0.38948586034E+03  0.00000000000E+00 0. -1.
         23    2    1    2    0    0 -0.32270624876E+03 -0.37232487620E+03  0.18250722891E+04  0.18925643496E+04  0.90254199975E+02 0.  0.
         13    1    3    3    0    0 -0.12104992965E+03 -0.19107362118E+03  0.71877554770E+03  0.75352538256E+03  0.00000000000E+00 0.  1.
        -13    1    3    3    0    0 -0.20165631912E+03 -0.18125125502E+03  0.11062967414E+04  0.11390389671E+04  0.00000000000E+00 0. -1.
         22    1    1    2    0    0  0.32270624876E+03  0.37232487620E+03 -0.18513401376E+03  0.52634564640E+03  0.00000000000E+00 0. -1.
<mgrwt>
<rscale>  0 0.17781249E+04</rscale>
<asrwt>0</asrwt>
<pdfrwt beam="1">  1        2 0.31221909E+00 0.17781249E+04</pdfrwt>
<pdfrwt beam="2">  1       -2 0.59920903E-01 0.17781249E+04</pdfrwt>
<totfact> 0.15803485E+01</totfact>
</mgrwt>
</event>
<event>
 6    1  0.2325157E-005  0.1087446E+04  0.7818608E-02  0.9217514E-01
         -2   -1    0    0    0  501 -0.00000000000E+00  0.00000000000E+00  0.15805102427E+03  0.15805102427E+03  0.00000000000E+00 0. -1.
          2   -1    0    0  501    0  0.00000000000E+00 -0.00000000000E+00 -0.18705032066E+04  0.18705032066E+04  0.00000000000E+00 0.  1.
         23    2    1    2    0    0 -0.71948805755E+02  0.17162643835E+03 -0.18076016239E+04  0.18195430321E+04  0.93171617030E+02 0.  0.
         13    1    3    3    0    0 -0.67314961056E+02  0.70219691517E+02 -0.11555395556E+04  0.11596265665E+04  0.00000000000E+00 0.  1.
        -13    1    3    3    0    0 -0.46338446990E+01  0.10140674683E+03 -0.65206206824E+03  0.65991646567E+03  0.00000000000E+00 0. -1.
         22    1    1    2    0    0  0.71948805755E+02 -0.17162643835E+03  0.95149441497E+02  0.20901119876E+03  0.00000000000E+00 0. -1.
<mgrwt>
<rscale>  0 0.10874465E+04</rscale>
<asrwt>0</asrwt>
<pdfrwt beam="1">  1        2 0.28776972E+00 0.10874465E+04</pdfrwt>
<pdfrwt beam="2">  1       -2 0.24315542E-01 0.10874465E+04</pdfrwt>
<totfact> 0.11833268E+02</totfact>
</mgrwt>
</event>
<event>
 6    1  0.2325157E-005  0.2711572E+04  0.7818608E-02  0.8331260E-01
         -2   -1    0    0    0  501 -0.00000000000E+00  0.00000000000E+00  0.55736823801E+03  0.55736823801E+03  0.00000000000E+00 0. -1.
          2   -1    0    0  501    0  0.00000000000E+00 -0.00000000000E+00 -0.32979186666E+04  0.32979186666E+04  0.00000000000E+00 0.  1.
         23    2    1    2    0    0  0.61136685432E+03 -0.20974506965E+03 -0.30638331761E+04  0.31326015237E+04  0.91411983439E+02 0.  0.
         11    1    3    3    0    0  0.33037029233E+03 -0.16126045881E+03 -0.17293239844E+04  0.17679680168E+04  0.00000000000E+00 0.  1.
        -11    1    3    3    0    0  0.28099656199E+03 -0.48484610841E+02 -0.13345091917E+04  0.13646335069E+04  0.00000000000E+00 0. -1.
         22    1    1    2    0    0 -0.61136685432E+03  0.20974506965E+03  0.32328274755E+03  0.72268538084E+03  0.00000000000E+00 0. -1.
<mgrwt>
<rscale>  0 0.27115716E+04</rscale>
<asrwt>0</asrwt>
<pdfrwt beam="1">  1        2 0.50737209E+00 0.27115716E+04</pdfrwt>
<pdfrwt beam="2">  1       -2 0.85748962E-01 0.27115716E+04</pdfrwt>
<totfact> 0.11565650E+00</totfact>
</mgrwt>
</event>
<event>
 6    1  0.2325157E-005  0.2063790E+04  0.7818608E-02  0.8577364E-01
          2   -1    0    0  501    0  0.00000000000E+00  0.00000000000E+00  0.95506114934E+03  0.95506114934E+03  0.00000000000E+00 0.  1.
         -2   -1    0    0    0  501 -0.00000000000E+00 -0.00000000000E+00 -0.11149096442E+04  0.11149096442E+04  0.00000000000E+00 0. -1.
         23    2    1    2    0    0  0.55236087328E+03  0.73649603681E+03  0.38305605569E+03  0.10011984616E+04  0.90207932549E+02 0.  0.
         11    1    3    3    0    0  0.39772794772E+03  0.46257526532E+03  0.23844395389E+03  0.65499535542E+03  0.00000000000E+00 0. -1.
        -11    1    3    3    0    0  0.15463292556E+03  0.27392077149E+03  0.14461210179E+03  0.34620310615E+03  0.00000000000E+00 0.  1.
         22    1    1    2    0    0 -0.55236087328E+03 -0.73649603681E+03 -0.54290455054E+03  0.10687723320E+04  0.00000000000E+00 0. -1.
<mgrwt>
<rscale>  0 0.20637896E+04</rscale>
<asrwt>0</asrwt>
<pdfrwt beam="1">  1        2 0.14693249E+00 0.20637896E+04</pdfrwt>
<pdfrwt beam="2">  1       -2 0.17152456E+00 0.20637896E+04</pdfrwt>
<totfact> 0.51754620E+00</totfact>
</mgrwt>
</event>
<event>
 6    1  0.2325157E-005  0.1681802E+04  0.7818608E-02  0.8771812E-01
          2   -1    0    0  501    0  0.00000000000E+00  0.00000000000E+00  0.10427592947E+04  0.10427592947E+04  0.00000000000E+00 0.  1.
         -2   -1    0    0    0  501 -0.00000000000E+00 -0.00000000000E+00 -0.67811827704E+03  0.67811827704E+03  0.00000000000E+00 0. -1.
         23    2    1    2    0    0  0.77362036630E+03  0.23428255930E+03  0.40869739441E+03  0.91136058421E+03  0.10083533864E+03 0.  0.
         13    1    3    3    0    0  0.58247029725E+03  0.13027165757E+03  0.30598893176E+03  0.67072466654E+03  0.00000000000E+00 0.  1.
        -13    1    3    3    0    0  0.19115006905E+03  0.10401090173E+03  0.10270846266E+03  0.24063591768E+03  0.00000000000E+00 0. -1.
         22    1    1    2    0    0 -0.77362036630E+03 -0.23428255930E+03 -0.44056376761E+02  0.80951698751E+03  0.00000000000E+00 0. -1.
<mgrwt>
<rscale>  0 0.16818016E+04</rscale>
<asrwt>0</asrwt>
<pdfrwt beam="1">  1        2 0.16042451E+00 0.16818016E+04</pdfrwt>
<pdfrwt beam="2">  1       -2 0.10432589E+00 0.16818016E+04</pdfrwt>
<totfact> 0.16831172E+01</totfact>
</mgrwt>
</event>
<event>
 6    1  0.2325157E-005  0.3473403E+04  0.7818608E-02  0.8120122E-01
         -2   -1    0    0    0  501 -0.00000000000E+00  0.00000000000E+00  0.20087845925E+04  0.20087845925E+04  0.00000000000E+00 0. -1.
          2   -1    0    0  501    0  0.00000000000E+00 -0.00000000000E+00 -0.15014711268E+04  0.15014711268E+04  0.00000000000E+00 0.  1.
         23    2    1    2    0    0  0.80910751449E+03  0.30658855132E+03  0.17742128080E+04  0.19760831561E+04  0.91771683358E+02 0.  0.
         11    1    3    3    0    0  0.55679779202E+03  0.24280332407E+03  0.11726110173E+04  0.13206035867E+04  0.00000000000E+00 0. -1.
        -11    1    3    3    0    0  0.25230972247E+03  0.63785227253E+02  0.60160179071E+03  0.65547956936E+03  0.00000000000E+00 0.  1.
         22    1    1    2    0    0 -0.80910751449E+03 -0.30658855132E+03 -0.12668993423E+04  0.15341725631E+04  0.00000000000E+00 0.  1.
<mgrwt>
<rscale>  0 0.34734030E+04</rscale>
<asrwt>0</asrwt>
<pdfrwt beam="1">  1        2 0.23099556E+00 0.34734030E+04</pdfrwt>
<pdfrwt beam="2">  1       -2 0.30904379E+00 0.34734030E+04</pdfrwt>
<totfact> 0.29179061E-01</totfact>
</mgrwt>
</event>
<event>
 6    1  0.2325157E-005  0.6950184E+03  0.7818608E-02  0.9725789E-01
          2   -1    0    0  501    0  0.00000000000E+00  0.00000000000E+00  0.13068134255E+04  0.13068134255E+04  0.00000000000E+00 0.  1.
         -2   -1    0    0    0  501 -0.00000000000E+00 -0.00000000000E+00 -0.92410021173E+02  0.92410021173E+02  0.00000000000E+00 0. -1.
         23    2    1    2    0    0  0.28594634069E+03  0.31114532310E+02  0.98795792823E+03  0.10331483485E+04  0.92742752455E+02 0.  0.
         13    1    3    3    0    0  0.26953703151E+03  0.46635036598E+02  0.83842501562E+03  0.88191923940E+03  0.00000000000E+00 0.  1.
        -13    1    3    3    0    0  0.16409309188E+02 -0.15520504289E+02  0.14953291261E+03  0.15122910909E+03  0.00000000000E+00 0. -1.
         22    1    1    2    0    0 -0.28594634069E+03 -0.31114532310E+02  0.22644547611E+03  0.36607509821E+03  0.00000000000E+00 0. -1.
<mgrwt>
<rscale>  0 0.69501844E+03</rscale>
<asrwt>0</asrwt>
<pdfrwt beam="1">  1        2 0.20104821E+00 0.69501844E+03</pdfrwt>
<pdfrwt beam="2">  1       -2 0.14216927E-01 0.69501844E+03</pdfrwt>
<totfact> 0.63543567E+02</totfact>
</mgrwt>
</event>
<event>
 6    1  0.2325157E-005  0.1279917E+04  0.7818608E-02  0.9045644E-01
         -2   -1    0    0    0  501 -0.00000000000E+00  0.00000000000E+00  0.44413824272E+03  0.44413824272E+03  0.00000000000E+00 0. -1.
          2   -1    0    0  501    0  0.00000000000E+00 -0.00000000000E+00 -0.92211641719E+03  0.92211641719E+03  0.00000000000E+00 0.  1.
         23    2    1    2    0    0  0.46767064280E+03  0.34796240043E+03  0.32868808963E+02  0.59116866292E+03  0.92770508029E+02 0.  0.
         11    1    3    3    0    0  0.19911981167E+03  0.12795980490E+03  0.56043733749E+02  0.24323509443E+03  0.00000000000E+00 0. -1.
        -11    1    3    3    0    0  0.26855083114E+03  0.22000259553E+03 -0.23174924786E+02  0.34793356849E+03  0.00000000000E+00 0.  1.
         22    1    1    2    0    0 -0.46767064280E+03 -0.34796240043E+03 -0.51084698343E+03  0.77508599699E+03  0.00000000000E+00 0.  1.
<mgrwt>
<rscale>  0 0.12799174E+04</rscale>
<asrwt>0</asrwt>
<pdfrwt beam="1">  1        2 0.14186406E+00 0.12799174E+04</pdfrwt>
<pdfrwt beam="2">  1       -2 0.68328960E-01 0.12799174E+04</pdfrwt>
<totfact> 0.54508947E+01</totfact>
</mgrwt>
</event>
<event>
 6    1  0.2325157E-005  0.1436640E+04  0.7818608E-02  0.8927715E-01
         -2   -1    0    0    0  501 -0.00000000000E+00  0.00000000000E+00  0.14183567257E+04  0.14183567257E+04  0.00000000000E+00 0. -1.
          2   -1    0    0  501    0  0.00000000000E+00 -0.00000000000E+00 -0.36378986071E+03  0.36378986071E+03  0.00000000000E+00 0.  1.
         23    2    1    2    0    0  0.47577230095E+03  0.51357612023E+03  0.34190209890E+03  0.78314169031E+03  0.79335668117E+02 0.  0.
         11    1    3    3    0    0  0.11863704003E+03  0.12370488690E+03  0.12265756737E+03  0.21076651808E+03  0.00000000000E+00 0.  1.
        -11    1    3    3    0    0  0.35713526092E+03  0.38987123333E+03  0.21924453152E+03  0.57237517222E+03  0.00000000000E+00 0. -1.
         22    1    1    2    0    0 -0.47577230095E+03 -0.51357612023E+03  0.71266476610E+03  0.99900489612E+03  0.00000000000E+00 0. -1.
<mgrwt>
<rscale>  0 0.14366402E+04</rscale>
<asrwt>0</asrwt>
<pdfrwt beam="1">  1        2 0.55967672E-01 0.14366402E+04</pdfrwt>
<pdfrwt beam="2">  1       -2 0.21820872E+00 0.14366402E+04</pdfrwt>
<totfact> 0.87102630E+00</totfact>
</mgrwt>
</event>
<event>
 6    1  0.2325157E-005  0.4577796E+04  0.7818608E-02  0.7897157E-01
          2   -1    0    0  501    0  0.00000000000E+00  0.00000000000E+00  0.24680915400E+04  0.24680915400E+04  0.00000000000E+00 0.  1.
         -2   -1    0    0    0  501 -0.00000000000E+00 -0.00000000000E+00 -0.21227144291E+04  0.21227144291E+04  0.00000000000E+00 0. -1.
         23    2    1    2    0    0  0.13165524508E+04 -0.12668548117E+04 -0.12082279744E+04  0.21924898451E+04  0.94685865543E+02 0.  0.
         11    1    3    3    0    0  0.75990158537E+03 -0.78276061921E+03 -0.68726881296E+03  0.12893808699E+04  0.00000000000E+00 0.  1.
        -11    1    3    3    0    0  0.55665086542E+03 -0.48409419252E+03 -0.52095916140E+03  0.90310897518E+03  0.00000000000E+00 0. -1.
         22    1    1    2    0    0 -0.13165524508E+04  0.12668548117E+04  0.15536050853E+04  0.23983161240E+04  0.00000000000E+00 0.  1.
<mgrwt>
<rscale>  0 0.45777958E+04</rscale>
<asrwt>0</asrwt>
<pdfrwt beam="1">  1        2 0.37970639E+00 0.45777958E+04</pdfrwt>
<pdfrwt beam="2">  1       -2 0.32657145E+00 0.45777958E+04</pdfrwt>
<totfact> 0.59630652E-02</totfact>
</mgrwt>
</event>
<event>
 6    1  0.2325157E-005  0.2225722E+04  0.7818608E-02  0.8507798E-01
         -2   -1    0    0    0  501 -0.00000000000E+00  0.00000000000E+00  0.86622949238E+03  0.86622949238E+03  0.00000000000E+00 0. -1.
          2   -1    0    0  501    0  0.00000000000E+00 -0.00000000000E+00 -0.14297134439E+04  0.14297134439E+04  0.00000000000E+00 0.  1.
         23    2    1    2    0    0  0.78966419261E+03 -0.32639356894E+03  0.45022671768E+03  0.97015576640E+03  0.91628679183E+02 0.  0.
         11    1    3    3    0    0  0.53743608582E+03 -0.25925850439E+03  0.34052130875E+03  0.68702785981E+03  0.00000000000E+00 0.  1.
        -11    1    3    3    0    0  0.25222810679E+03 -0.67135064542E+02  0.10970540893E+03  0.28312790659E+03  0.00000000000E+00 0. -1.
         22    1    1    2    0    0 -0.78966419261E+03  0.32639356894E+03 -0.10137106692E+04  0.13257871698E+04  0.00000000000E+00 0.  1.
<mgrwt>
<rscale>  0 0.22257223E+04</rscale>
<asrwt>0</asrwt>
<pdfrwt beam="1">  1        2 0.21995591E+00 0.22257223E+04</pdfrwt>
<pdfrwt beam="2">  1       -2 0.13326608E+00 0.22257223E+04</pdfrwt>
<totfact> 0.51763761E+00</totfact>
</mgrwt>
</event>
<event>
 6    1  0.2325157E-005  0.2602471E+04  0.7818608E-02  0.8367362E-01
         -2   -1    0    0    0  501 -0.00000000000E+00  0.00000000000E+00  0.59988607725E+03  0.59988607725E+03  0.00000000000E+00 0. -1.
          2   -1    0    0  501    0  0.00000000000E+00 -0.00000000000E+00 -0.28225594237E+04  0.28225594237E+04  0.00000000000E+00 0.  1.
         23    2    1    2    0    0 -0.67262338391E+03  0.78822178663E+03 -0.21443284974E+04  0.23832853993E+04  0.90491922336E+02 0.  0.
         13    1    3    3    0    0 -0.42549135689E+03  0.51863040587E+03 -0.14801160547E+04  0.16250427465E+04  0.00000000000E+00 0.  1.
        -13    1    3    3    0    0 -0.24713202702E+03  0.26959138076E+03 -0.66421244271E+03  0.75824265272E+03  0.00000000000E+00 0. -1.
         22    1    1    2    0    0  0.67262338391E+03 -0.78822178663E+03 -0.78344848993E+02  0.10391601017E+04  0.00000000000E+00 0. -1.
<mgrwt>
<rscale>  0 0.26024712E+04</rscale>
<asrwt>0</asrwt>
<pdfrwt beam="1">  1        2 0.43423991E+00 0.26024712E+04</pdfrwt>
<pdfrwt beam="2">  1       -2 0.92290166E-01 0.26024712E+04</pdfrwt>
<totfact> 0.19753789E+00</totfact>
</mgrwt>
</event>
<event>
 6    1  0.2325157E-005  0.1278394E+04  0.7818608E-02  0.9046876E-01
         -2   -1    0    0    0  501 -0.00000000000E+00  0.00000000000E+00  0.27458660556E+03  0.27458660556E+03  0.00000000000E+00 0. -1.
          2   -1    0    0  501    0  0.00000000000E+00 -0.00000000000E+00 -0.14879568242E+04  0.14879568242E+04  0.00000000000E+00 0.  1.
         23    2    1    2    0    0  0.39418403092E+03  0.91614860057E+02  0.66717844548E+02  0.42000859509E+03  0.90452287709E+02 0.  0.
         11    1    3    3    0    0  0.61771845289E+02 -0.43914895932E+01  0.38368542373E+02  0.72850470795E+02  0.00000000000E+00 0. -1.
        -11    1    3    3    0    0  0.33241218563E+03  0.96006349650E+02  0.28349302175E+02  0.34715812429E+03  0.00000000000E+00 0.  1.
         22    1    1    2    0    0 -0.39418403092E+03 -0.91614860057E+02 -0.12800880632E+04  0.13425348347E+04  0.00000000000E+00 0.  1.
<mgrwt>
<rscale>  0 0.12783943E+04</rscale>
<asrwt>0</asrwt>
<pdfrwt beam="1">  1        2 0.22891643E+00 0.12783943E+04</pdfrwt>
<pdfrwt beam="2">  1       -2 0.42244093E-01 0.12783943E+04</pdfrwt>
<totfact> 0.67198762E+01</totfact>
</mgrwt>
</event>
<event>
 6    1  0.2325157E-005  0.1790345E+04  0.7818608E-02  0.8711451E-01
          2   -1    0    0  501    0  0.00000000000E+00  0.00000000000E+00  0.10207632264E+04  0.10207632264E+04  0.00000000000E+00 0.  1.
         -2   -1    0    0    0  501 -0.00000000000E+00 -0.00000000000E+00 -0.78503365161E+03  0.78503365161E+03  0.00000000000E+00 0. -1.
         23    2    1    2    0    0  0.15338304853E+03  0.51576519648E+03 -0.60045683018E+03  0.81143889351E+03  0.91348648142E+02 0.  0.
         11    1    3    3    0    0  0.71498326968E+02  0.12219791653E+03 -0.18964690989E+03  0.23666493613E+03  0.00000000000E+00 0. -1.
        -11    1    3    3    0    0  0.81884721566E+02  0.39356727995E+03 -0.41080992028E+03  0.57477395738E+03  0.00000000000E+00 0.  1.
         22    1    1    2    0    0 -0.15338304853E+03 -0.51576519648E+03  0.83618640500E+03  0.99435798453E+03  0.00000000000E+00 0.  1.
<mgrwt>
<rscale>  0 0.17903446E+04</rscale>
<asrwt>0</asrwt>
<pdfrwt beam="1">  1        2 0.15704050E+00 0.17903446E+04</pdfrwt>
<pdfrwt beam="2">  1       -2 0.12077441E+00 0.17903446E+04</pdfrwt>
<totfact> 0.12061723E+01</totfact>
</mgrwt>
</event>
<event>
 6    1  0.2325157E-005  0.4296655E+04  0.7818608E-02  0.7947237E-01
          2   -1    0    0  501    0  0.00000000000E+00  0.00000000000E+00  0.31440415797E+04  0.31440415797E+04  0.00000000000E+00 0.  1.
         -2   -1    0    0    0  501 -0.00000000000E+00 -0.00000000000E+00 -0.14679551482E+04  0.14679551482E+04  0.00000000000E+00 0. -1.
         23    2    1    2    0    0 -0.49223267684E+03 -0.72566981111E+03 -0.12654881713E+04  0.15425096654E+04  0.94794901436E+02 0.  0.
         11    1    3    3    0    0 -0.65797764433E+02 -0.16290743542E+03 -0.26543533067E+03  0.31831445630E+03  0.00000000000E+00 0. -1.
        -11    1    3    3    0    0 -0.42643491241E+03 -0.56276237569E+03 -0.10000528406E+04  0.12241952091E+04  0.00000000000E+00 0.  1.
         22    1    1    2    0    0  0.49223267684E+03  0.72566981111E+03  0.29415746028E+04  0.30694870625E+04  0.00000000000E+00 0.  1.
<mgrwt>
<rscale>  0 0.42966555E+04</rscale>
<asrwt>0</asrwt>
<pdfrwt beam="1">  1        2 0.48369870E+00 0.42966555E+04</pdfrwt>
<pdfrwt beam="2">  1       -2 0.22583925E+00 0.42966555E+04</pdfrwt>
<totfact> 0.98515377E-02</totfact>
</mgrwt>
</event>
<event>
 6    1  0.2325157E-005  0.3603136E+04  0.7818608E-02  0.8089774E-01
          2   -1    0    0  501    0  0.00000000000E+00  0.00000000000E+00  0.14521606784E+04  0.14521606784E+04  0.00000000000E+00 0.  1.
         -2   -1    0    0    0  501 -0.00000000000E+00 -0.00000000000E+00 -0.22350464013E+04  0.22350464013E+04  0.00000000000E+00 0. -1.
         23    2    1    2    0    0 -0.39095384895E+03 -0.14191447226E+04 -0.14525014394E+04  0.20700485026E+04  0.92323973673E+02 0.  0.
         11    1    3    3    0    0 -0.33029230377E+03 -0.11343152730E+04 -0.11182410682E+04  0.16267228501E+04  0.00000000000E+00 0. -1.
        -11    1    3    3    0    0 -0.60661545187E+02 -0.28482944962E+03 -0.33426037126E+03  0.44332565258E+03  0.00000000000E+00 0.  1.
         22    1    1    2    0    0  0.39095384895E+03  0.14191447226E+04  0.66961571651E+03  0.16171585771E+04  0.00000000000E+00 0.  1.
<mgrwt>
<rscale>  0 0.36031356E+04</rscale>
<asrwt>0</asrwt>
<pdfrwt beam="1">  1        2 0.22340934E+00 0.36031356E+04</pdfrwt>
<pdfrwt beam="2">  1       -2 0.34385329E+00 0.36031356E+04</pdfrwt>
<totfact> 0.18718224E-01</totfact>
</mgrwt>
</event>
<event>
 6    1  0.2325157E-005  0.9028388E+03  0.7818608E-02  0.9422040E-01
          2   -1    0    0  501    0  0.00000000000E+00  0.00000000000E+00  0.10146338615E+04  0.10146338615E+04  0.00000000000E+00 0.  1.
         -2   -1    0    0    0  501 -0.00000000000E+00 -0.00000000000E+00 -0.20084041896E+03  0.20084041896E+03  0.00000000000E+00 0. -1.
         23    2    1    2    0    0 -0.38686970292E+03 -0.19479548751E+03  0.26247467450E+03  0.51435672043E+03  0.89757629798E+02 0.  0.
         13    1    3    3    0    0 -0.24682452859E+03 -0.76709022006E+02  0.13938611920E+03  0.29365815534E+03  0.00000000000E+00 0. -1.
        -13    1    3    3    0    0 -0.14004517433E+03 -0.11808646550E+03  0.12308855530E+03  0.22069856509E+03  0.00000000000E+00 0.  1.
         22    1    1    2    0    0  0.38686970292E+03  0.19479548751E+03  0.55131876805E+03  0.70111756004E+03  0.00000000000E+00 0.  1.
<mgrwt>
<rscale>  0 0.90283883E+03</rscale>
<asrwt>0</asrwt>
<pdfrwt beam="1">  1        2 0.15609751E+00 0.90283883E+03</pdfrwt>
<pdfrwt beam="2">  1       -2 0.30898527E-01 0.90283883E+03</pdfrwt>
<totfact> 0.23943773E+02</totfact>
</mgrwt>
</event>
<event>
 6    1  0.2325157E-005  0.3222715E+04  0.7818608E-02  0.8182844E-01
         -2   -1    0    0    0  501 -0.00000000000E+00  0.00000000000E+00  0.10713768419E+04  0.10713768419E+04  0.00000000000E+00 0. -1.
          2   -1    0    0  501    0  0.00000000000E+00 -0.00000000000E+00 -0.24234922137E+04  0.24234922137E+04  0.00000000000E+00 0.  1.
         23    2    1    2    0    0  0.77566925011E+03  0.13751540959E+04 -0.34191202759E+03  0.16205098665E+04  0.12820616229E+03 0.  0.
         13    1    3    3    0    0  0.36307194740E+03  0.51636945861E+03 -0.13094775618E+03  0.64467508997E+03  0.00000000000E+00 0. -1.
        -13    1    3    3    0    0  0.41259730271E+03  0.85878463725E+03 -0.21096427140E+03  0.97583477658E+03  0.00000000000E+00 0.  1.
         22    1    1    2    0    0 -0.77566925011E+03 -0.13751540959E+04 -0.10102033442E+04  0.18743591891E+04  0.00000000000E+00 0. -1.
<mgrwt>
<rscale>  0 0.32227153E+04</rscale>
<asrwt>0</asrwt>
<pdfrwt beam="1">  1        2 0.37284495E+00 0.32227153E+04</pdfrwt>
<pdfrwt beam="2">  1       -2 0.16482721E+00 0.32227153E+04</pdfrwt>
<totfact> 0.75199487E-01</totfact>
</mgrwt>
</event>
<event>
 6    1  0.2325157E-005  0.1164721E+04  0.7818608E-02  0.9144310E-01
         -2   -1    0    0    0  501 -0.00000000000E+00  0.00000000000E+00  0.23967660989E+03  0.23967660989E+03  0.00000000000E+00 0. -1.
          2   -1    0    0  501    0  0.00000000000E+00 -0.00000000000E+00 -0.14150046533E+04  0.14150046533E+04  0.00000000000E+00 0.  1.
         23    2    1    2    0    0  0.52731148268E+03 -0.14892701165E+03 -0.85548059783E+03  0.10202216167E+04  0.93639945354E+02 0.  0.
         13    1    3    3    0    0  0.30316281802E+03 -0.12995660788E+03 -0.47695026940E+03  0.57989479532E+03  0.00000000000E+00 0.  1.
        -13    1    3    3    0    0  0.22414866466E+03 -0.18970403766E+02 -0.37853032843E+03  0.44032682138E+03  0.00000000000E+00 0. -1.
         22    1    1    2    0    0 -0.52731148268E+03  0.14892701165E+03 -0.31984744555E+03  0.63445964646E+03  0.00000000000E+00 0. -1.
<mgrwt>
<rscale>  0 0.11647206E+04</rscale>
<asrwt>0</asrwt>
<pdfrwt beam="1">  1        2 0.21769303E+00 0.11647206E+04</pdfrwt>
<pdfrwt beam="2">  1       -2 0.36873324E-01 0.11647206E+04</pdfrwt>
<totfact> 0.97156807E+01</totfact>
</mgrwt>
</event>
<event>
 6    1  0.2325157E-005  0.1285487E+04  0.7818608E-02  0.9041154E-01
          2   -1    0    0  501    0  0.00000000000E+00  0.00000000000E+00  0.12849855130E+04  0.12849855130E+04  0.00000000000E+00 0.  1.
         -2   -1    0    0    0  501 -0.00000000000E+00 -0.00000000000E+00 -0.32149726606E+03  0.32149726606E+03  0.00000000000E+00 0. -1.
         23    2    1    2    0    0  0.43236047582E+03  0.42477387777E+03  0.22980490795E+03  0.65482124773E+03  0.92801629726E+02 0.  0.
         13    1    3    3    0    0  0.20074611390E+03  0.19130914596E+03  0.15452236589E+03  0.31745133979E+03  0.00000000000E+00 0. -1.
        -13    1    3    3    0    0  0.23161436192E+03  0.23346473181E+03  0.75282542052E+02  0.33736990794E+03  0.00000000000E+00 0.  1.
         22    1    1    2    0    0 -0.43236047582E+03 -0.42477387777E+03  0.73368333901E+03  0.95166153134E+03  0.00000000000E+00 0.  1.
<mgrwt>
<rscale>  0 0.12854872E+04</rscale>
<asrwt>0</asrwt>
<pdfrwt beam="1">  1        2 0.19769008E+00 0.12854872E+04</pdfrwt>
<pdfrwt beam="2">  1       -2 0.49461119E-01 0.12854872E+04</pdfrwt>
<totfact> 0.64015732E+01</totfact>
</mgrwt>
</event>
<event>
 6    1  0.2325157E-005  0.2414601E+04  0.7818608E-02  0.8434057E-01
         -2   -1    0    0    0  501 -0.00000000000E+00  0.00000000000E+00  0.12802908016E+04  0.12802908016E+04  0.00000000000E+00 0. -1.
          2   -1    0    0  501    0  0.00000000000E+00 -0.00000000000E+00 -0.11384712873E+04  0.11384712873E+04  0.00000000000E+00 0.  1.
         23    2    1    2    0    0  0.12475522099E+03 -0.42594389422E+03  0.11940708172E+04  0.12767354383E+04  0.85183313519E+02 0.  0.
         11    1    3    3    0    0  0.11540284967E+03 -0.24741338814E+03  0.73803301821E+03  0.78690783343E+03  0.00000000000E+00 0. -1.
        -11    1    3    3    0    0  0.93523713147E+01 -0.17853050607E+03  0.45603779897E+03  0.48982760491E+03  0.00000000000E+00 0.  1.
         22    1    1    2    0    0 -0.12475522099E+03  0.42594389422E+03 -0.10522513029E+04  0.11420266506E+04  0.00000000000E+00 0.  1.
<mgrwt>
<rscale>  0 0.24146009E+04</rscale>
<asrwt>0</asrwt>
<pdfrwt beam="1">  1        2 0.17514943E+00 0.24146009E+04</pdfrwt>
<pdfrwt beam="2">  1       -2 0.19696781E+00 0.24146009E+04</pdfrwt>
<totfact> 0.25806704E+00</totfact>
</mgrwt>
</event>
<event>
 6    1  0.2325157E-005  0.2076779E+04  0.7818608E-02  0.8571542E-01
         -2   -1    0    0    0  501 -0.00000000000E+00  0.00000000000E+00  0.81969166995E+03  0.81969166995E+03  0.00000000000E+00 0. -1.
          2   -1    0    0  501    0  0.00000000000E+00 -0.00000000000E+00 -0.13154372143E+04  0.13154372143E+04  0.00000000000E+00 0.  1.
         23    2    1    2    0    0  0.27648268847E+02  0.92356337144E+03  0.23424622858E+03  0.95757985496E+03  0.91401067761E+02 0.  0.
         13    1    3    3    0    0  0.44615423206E+02  0.85985093308E+03  0.20298524219E+03  0.88461131106E+03  0.00000000000E+00 0. -1.
        -13    1    3    3    0    0 -0.16967154359E+02  0.63712438356E+02  0.31260986400E+02  0.72968543901E+02  0.00000000000E+00 0.  1.
         22    1    1    2    0    0 -0.27648268847E+02 -0.92356337144E+03 -0.72999177292E+03  0.11775490293E+04  0.00000000000E+00 0. -1.
<mgrwt>
<rscale>  0 0.20767792E+04</rscale>
<asrwt>0</asrwt>
<pdfrwt beam="1">  1        2 0.20237496E+00 0.20767792E+04</pdfrwt>
<pdfrwt beam="2">  1       -2 0.12610641E+00 0.20767792E+04</pdfrwt>
<totfact> 0.70125328E+00</totfact>
</mgrwt>
</event>
<event>
 6    1  0.2325157E-005  0.1255191E+04  0.7818608E-02  0.9065874E-01
         -2   -1    0    0    0  501 -0.00000000000E+00  0.00000000000E+00  0.31787375682E+03  0.31787375682E+03  0.00000000000E+00 0. -1.
          2   -1    0    0  501    0  0.00000000000E+00 -0.00000000000E+00 -0.12390955144E+04  0.12390955144E+04  0.00000000000E+00 0.  1.
         23    2    1    2    0    0  0.37489833906E+03 -0.94668534764E+02 -0.10709644370E+04  0.11423203038E+04  0.91760312811E+02 0.  0.
         13    1    3    3    0    0  0.97194509517E+02 -0.44208356793E+02 -0.40869575878E+03  0.42241374828E+03  0.00000000000E+00 0. -1.
        -13    1    3    3    0    0  0.27770382954E+03 -0.50460177971E+02 -0.66226867824E+03  0.71990655552E+03  0.00000000000E+00 0.  1.
         22    1    1    2    0    0 -0.37489833906E+03  0.94668534764E+02  0.14974267947E+03  0.41464896739E+03  0.00000000000E+00 0. -1.
<mgrwt>
<rscale>  0 0.12551907E+04</rscale>
<asrwt>0</asrwt>
<pdfrwt beam="1">  1        2 0.19063008E+00 0.12551907E+04</pdfrwt>
<pdfrwt beam="2">  1       -2 0.48903655E-01 0.12551907E+04</pdfrwt>
<totfact> 0.69859124E+01</totfact>
</mgrwt>
</event>
<event>
 6    1  0.2325157E-005  0.2502331E+04  0.7818608E-02  0.8402156E-01
         -2   -1    0    0    0  501 -0.00000000000E+00  0.00000000000E+00  0.48975597798E+03  0.48975597798E+03  0.00000000000E+00 0. -1.
          2   -1    0    0  501    0  0.00000000000E+00 -0.00000000000E+00 -0.31963159924E+04  0.31963159924E+04  0.00000000000E+00 0.  1.
         23    2    1    2    0    0  0.87554478939E+03  0.44387533073E+03 -0.21608662821E+03  0.10091219008E+04  0.89607992859E+02 0.  0.
         11    1    3    3    0    0  0.63023437703E+03  0.35830481929E+03 -0.13955068008E+03  0.73827644269E+03  0.00000000000E+00 0. -1.
        -11    1    3    3    0    0  0.24531041236E+03  0.85570511442E+02 -0.76535948127E+02  0.27084545814E+03  0.00000000000E+00 0.  1.
         22    1    1    2    0    0 -0.87554478939E+03 -0.44387533073E+03 -0.24904733862E+04  0.26769500695E+04  0.00000000000E+00 0.  1.
<mgrwt>
<rscale>  0 0.25023308E+04</rscale>
<asrwt>0</asrwt>
<pdfrwt beam="1">  1        2 0.49174090E+00 0.25023308E+04</pdfrwt>
<pdfrwt beam="2">  1       -2 0.75347077E-01 0.25023308E+04</pdfrwt>
<totfact> 0.18386746E+00</totfact>
</mgrwt>
</event>
<event>
 6    1  0.2325157E-005  0.3781163E+04  0.7818608E-02  0.8050209E-01
          2   -1    0    0  501    0  0.00000000000E+00  0.00000000000E+00  0.25029438510E+04  0.25029438510E+04  0.00000000000E+00 0.  1.
         -2   -1    0    0    0  501 -0.00000000000E+00 -0.00000000000E+00 -0.14280378203E+04  0.14280378203E+04  0.00000000000E+00 0. -1.
         23    2    1    2    0    0 -0.11806560515E+04  0.10296333054E+04  0.16360791601E+04  0.22669477964E+04  0.90575041290E+02 0.  0.
         13    1    3    3    0    0 -0.42850454307E+03  0.43013454310E+03  0.65002545241E+03  0.88947454004E+03  0.00000000000E+00 0. -1.
        -13    1    3    3    0    0 -0.75215150838E+03  0.59949876234E+03  0.98605370771E+03  0.13774732564E+04  0.00000000000E+00 0.  1.
         22    1    1    2    0    0  0.11806560515E+04 -0.10296333054E+04 -0.56117312937E+03  0.16640338748E+04  0.00000000000E+00 0. -1.
<mgrwt>
<rscale>  0 0.37811630E+04</rscale>
<asrwt>0</asrwt>
<pdfrwt beam="1">  1        2 0.38506828E+00 0.37811630E+04</pdfrwt>
<pdfrwt beam="2">  1       -2 0.21969813E+00 0.37811630E+04</pdfrwt>
<totfact> 0.27641465E-01</totfact>
</mgrwt>
</event>
<event>
 6    1  0.2325157E-005  0.1948308E+04  0.7818608E-02  0.8631177E-01
          2   -1    0    0  501    0  0.00000000000E+00  0.00000000000E+00  0.54436735147E+03  0.54436735147E+03  0.00000000000E+00 0.  1.
         -2   -1    0    0    0  501 -0.00000000000E+00 -0.00000000000E+00 -0.17432641428E+04  0.17432641428E+04  0.00000000000E+00 0. -1.
         23    2    1    2    0    0 -0.30418598405E+03 -0.65139582713E+02 -0.16819548439E+04  0.17130730897E+04  0.94207407852E+02 0.  0.
         11    1    3    3    0    0 -0.63954962244E+02  0.20942145591E+02 -0.44602133126E+03  0.45106966047E+03  0.00000000000E+00 0. -1.
        -11    1    3    3    0    0 -0.24023102181E+03 -0.86081728304E+02 -0.12359335127E+04  0.12620034293E+04  0.00000000000E+00 0.  1.
         22    1    1    2    0    0  0.30418598405E+03  0.65139582713E+02  0.48305805254E+03  0.57455840457E+03  0.00000000000E+00 0.  1.
<mgrwt>
<rscale>  0 0.19483081E+04</rscale>
<asrwt>0</asrwt>
<pdfrwt beam="1">  1        2 0.83748824E-01 0.19483081E+04</pdfrwt>
<pdfrwt beam="2">  1       -2 0.26819448E+00 0.19483081E+04</pdfrwt>
<totfact> 0.25853106E+00</totfact>
</mgrwt>
</event>
<event>
 6    1  0.2325157E-005  0.1177691E+04  0.7818608E-02  0.9132611E-01
          2   -1    0    0  501    0  0.00000000000E+00  0.00000000000E+00  0.18354258822E+04  0.18354258822E+04  0.00000000000E+00 0.  1.
         -2   -1    0    0    0  501 -0.00000000000E+00 -0.00000000000E+00 -0.18891470717E+03  0.18891470717E+03  0.00000000000E+00 0. -1.
         23    2    1    2    0    0 -0.13480888968E+03  0.53530965215E+03  0.49239071577E+03  0.74499548546E+03  0.88542622212E+02 0.  0.
         11    1    3    3    0    0 -0.12478362917E+03  0.31901715316E+03  0.30240794715E+03  0.45693923515E+03  0.00000000000E+00 0.  1.
        -11    1    3    3    0    0 -0.10025260515E+02  0.21629249899E+03  0.18998276862E+03  0.28805625031E+03  0.00000000000E+00 0. -1.
         22    1    1    2    0    0  0.13480888968E+03 -0.53530965215E+03  0.11541204593E+04  0.12793451039E+04  0.00000000000E+00 0.  1.
<mgrwt>
<rscale>  0 0.11776909E+04</rscale>
<asrwt>0</asrwt>
<pdfrwt beam="1">  1        2 0.28237320E+00 0.11776909E+04</pdfrwt>
<pdfrwt beam="2">  1       -2 0.29063802E-01 0.11776909E+04</pdfrwt>
<totfact> 0.88691502E+01</totfact>
</mgrwt>
</event>
<event>
 6    1  0.2325157E-005  0.2207123E+04  0.7818608E-02  0.8515469E-01
         -2   -1    0    0    0  501 -0.00000000000E+00  0.00000000000E+00  0.11558064098E+04  0.11558064098E+04  0.00000000000E+00 0. -1.
          2   -1    0    0  501    0  0.00000000000E+00 -0.00000000000E+00 -0.10536784236E+04  0.10536784236E+04  0.00000000000E+00 0.  1.
         23    2    1    2    0    0  0.73762796692E+03 -0.12920320280E+03  0.86075257073E+03  0.11435112195E+04  0.77035290437E+02 0.  0.
         13    1    3    3    0    0  0.65738427743E+03 -0.10050879976E+03  0.73062687812E+03  0.98796343154E+03  0.00000000000E+00 0.  1.
        -13    1    3    3    0    0  0.80243689491E+02 -0.28694403041E+02  0.13012569261E+03  0.15554778799E+03  0.00000000000E+00 0. -1.
         22    1    1    2    0    0 -0.73762796692E+03  0.12920320280E+03 -0.75862458453E+03  0.10659736139E+04  0.00000000000E+00 0.  1.
<mgrwt>
<rscale>  0 0.22071233E+04</rscale>
<asrwt>0</asrwt>
<pdfrwt beam="1">  1        2 0.16210437E+00 0.22071233E+04</pdfrwt>
<pdfrwt beam="2">  1       -2 0.17781637E+00 0.22071233E+04</pdfrwt>
<totfact> 0.39932446E+00</totfact>
</mgrwt>
</event>
<event>
 6    1  0.2325157E-005  0.4555382E+04  0.7818608E-02  0.7901012E-01
          2   -1    0    0  501    0  0.00000000000E+00  0.00000000000E+00  0.16333459895E+04  0.16333459895E+04  0.00000000000E+00 0.  1.
         -2   -1    0    0    0  501 -0.00000000000E+00 -0.00000000000E+00 -0.31762265638E+04  0.31762265638E+04  0.00000000000E+00 0. -1.
         23    2    1    2    0    0 -0.66348396374E+03  0.96760303611E+03 -0.28318925631E+04  0.30665812989E+04  0.88536820099E+02 0.  0.
         13    1    3    3    0    0 -0.93333720398E+02  0.14668571404E+03 -0.34435109157E+03  0.38575323243E+03  0.00000000000E+00 0.  1.
        -13    1    3    3    0    0 -0.57015024334E+03  0.82091732207E+03 -0.24875414715E+04  0.26808280665E+04  0.00000000000E+00 0. -1.
         22    1    1    2    0    0  0.66348396374E+03 -0.96760303611E+03  0.12890119887E+04  0.17429912543E+04  0.00000000000E+00 0.  1.
<mgrwt>
<rscale>  0 0.45553823E+04</rscale>
<asrwt>0</asrwt>
<pdfrwt beam="1">  1        2 0.25128400E+00 0.45553823E+04</pdfrwt>
<pdfrwt beam="2">  1       -2 0.48865024E+00 0.45553823E+04</pdfrwt>
<totfact> 0.15721175E-02</totfact>
</mgrwt>
</event>
<event>
 6    1  0.2325157E-005  0.6764076E+03  0.7818608E-02  0.9758451E-01
         -2   -1    0    0    0  501 -0.00000000000E+00  0.00000000000E+00  0.91247582334E+02  0.91247582334E+02  0.00000000000E+00 0. -1.
          2   -1    0    0  501    0  0.00000000000E+00 -0.00000000000E+00 -0.12535323741E+04  0.12535323741E+04  0.00000000000E+00 0.  1.
         23    2    1    2    0    0  0.17758890877E+03  0.94049566981E+02 -0.66250324149E+02  0.23047537699E+03  0.91360015212E+02 0.  0.
         11    1    3    3    0    0  0.55485497059E+02  0.73241679846E+02 -0.52563112266E+02  0.10585775749E+03  0.00000000000E+00 0. -1.
        -11    1    3    3    0    0  0.12210341171E+03  0.20807887135E+02 -0.13687211883E+02  0.12461761949E+03  0.00000000000E+00 0.  1.
         22    1    1    2    0    0 -0.17758890877E+03 -0.94049566981E+02 -0.10960344676E+04  0.11143045795E+04  0.00000000000E+00 0.  1.
<mgrwt>
<rscale>  0 0.67640757E+03</rscale>
<asrwt>0</asrwt>
<pdfrwt beam="1">  1        2 0.19285111E+00 0.67640757E+03</pdfrwt>
<pdfrwt beam="2">  1       -2 0.14038091E-01 0.67640757E+03</pdfrwt>
<totfact> 0.69732596E+02</totfact>
</mgrwt>
</event>
<event>
 6    1  0.2325157E-005  0.2278023E+04  0.7818608E-02  0.8486637E-01
         -2   -1    0    0    0  501 -0.00000000000E+00  0.00000000000E+00  0.56699040840E+03  0.56699040840E+03  0.00000000000E+00 0. -1.
          2   -1    0    0  501    0  0.00000000000E+00 -0.00000000000E+00 -0.22881287065E+04  0.22881287065E+04  0.00000000000E+00 0.  1.
         23    2    1    2    0    0  0.73505251479E+03  0.86223028542E+03 -0.73485857474E+03  0.13529570207E+04  0.82050657440E+02 0.  0.
         13    1    3    3    0    0  0.29873085804E+03  0.29638768818E+03 -0.25047394275E+03  0.48971724826E+03  0.00000000000E+00 0. -1.
        -13    1    3    3    0    0  0.43632165675E+03  0.56584259724E+03 -0.48438463199E+03  0.86323977243E+03  0.00000000000E+00 0.  1.
         22    1    1    2    0    0 -0.73505251479E+03 -0.86223028542E+03 -0.98627972339E+03  0.15021620942E+04  0.00000000000E+00 0. -1.
<mgrwt>
<rscale>  0 0.22780229E+04</rscale>
<asrwt>0</asrwt>
<pdfrwt beam="1">  1        2 0.35201980E+00 0.22780229E+04</pdfrwt>
<pdfrwt beam="2">  1       -2 0.87229293E-01 0.22780229E+04</pdfrwt>
<totfact> 0.47487113E+00</totfact>
</mgrwt>
</event>
<event>
 6    1  0.2325157E-005  0.1518995E+04  0.7818608E-02  0.8871919E-01
         -2   -1    0    0    0  501 -0.00000000000E+00  0.00000000000E+00  0.19926352198E+03  0.19926352198E+03  0.00000000000E+00 0. -1.
          2   -1    0    0  501    0  0.00000000000E+00 -0.00000000000E+00 -0.28948438189E+04  0.28948438189E+04  0.00000000000E+00 0.  1.
         23    2    1    2    0    0  0.74940011416E+03 -0.40286056332E+01 -0.15664195716E+04  0.17388875416E+04  0.91884967665E+02 0.  0.
         11    1    3    3    0    0  0.59635029222E+03 -0.22409388779E+02 -0.11665362191E+04  0.13103215644E+04  0.00000000000E+00 0.  1.
        -11    1    3    3    0    0  0.15304982194E+03  0.18380783146E+02 -0.39988335246E+03  0.42856597714E+03  0.00000000000E+00 0. -1.
         22    1    1    2    0    0 -0.74940011416E+03  0.40286056332E+01 -0.11291607253E+04  0.13552197993E+04  0.00000000000E+00 0. -1.
<mgrwt>
<rscale>  0 0.15189954E+04</rscale>
<asrwt>0</asrwt>
<pdfrwt beam="1">  1        2 0.44536060E+00 0.15189954E+04</pdfrwt>
<pdfrwt beam="2">  1       -2 0.30655926E-01 0.15189954E+04</pdfrwt>
<totfact> 0.19343112E+01</totfact>
</mgrwt>
</event>
<event>
 6    1  0.2325157E-005  0.1569747E+04  0.7818608E-02  0.8839352E-01
         -2   -1    0    0    0  501 -0.00000000000E+00  0.00000000000E+00  0.28826240410E+03  0.28826240410E+03  0.00000000000E+00 0. -1.
          2   -1    0    0  501    0  0.00000000000E+00 -0.00000000000E+00 -0.21370340931E+04  0.21370340931E+04  0.00000000000E+00 0.  1.
         23    2    1    2    0    0  0.18312666690E+03 -0.50746095403E+03 -0.18026670835E+04  0.18838376985E+04  0.90464713977E+02 0.  0.
         11    1    3    3    0    0 -0.61876276343E+01 -0.70210899250E+02 -0.24237926385E+03  0.25241942210E+03  0.00000000000E+00 0. -1.
        -11    1    3    3    0    0  0.18931429454E+03 -0.43725005478E+03 -0.15602878196E+04  0.16314182764E+04  0.00000000000E+00 0.  1.
         22    1    1    2    0    0 -0.18312666690E+03  0.50746095403E+03 -0.46104605486E+02  0.54145879866E+03  0.00000000000E+00 0. -1.
<mgrwt>
<rscale>  0 0.15697472E+04</rscale>
<asrwt>0</asrwt>
<pdfrwt beam="1">  1        2 0.32877446E+00 0.15697472E+04</pdfrwt>
<pdfrwt beam="2">  1       -2 0.44348064E-01 0.15697472E+04</pdfrwt>
<totfact> 0.25978857E+01</totfact>
</mgrwt>
</event>
<event>
 6    1  0.2325157E-005  0.3512827E+04  0.7818608E-02  0.8110757E-01
          2   -1    0    0  501    0  0.00000000000E+00  0.00000000000E+00  0.21386483390E+04  0.21386483390E+04  0.00000000000E+00 0.  1.
         -2   -1    0    0    0  501 -0.00000000000E+00 -0.00000000000E+00 -0.14424943576E+04  0.14424943576E+04  0.00000000000E+00 0. -1.
         23    2    1    2    0    0 -0.11548472051E+04  0.11734999139E+04 -0.27164069260E+03  0.16713257824E+04  0.93632740274E+02 0.  0.
         11    1    3    3    0    0 -0.10499426286E+04  0.10262317895E+04 -0.23557354608E+03  0.14869519511E+04  0.00000000000E+00 0. -1.
        -11    1    3    3    0    0 -0.10490457648E+03  0.14726812435E+03 -0.36067146523E+02  0.18437383132E+03  0.00000000000E+00 0.  1.
         22    1    1    2    0    0  0.11548472051E+04 -0.11734999139E+04  0.96779467402E+03  0.19098169143E+04  0.00000000000E+00 0.  1.
<mgrwt>
<rscale>  0 0.35128269E+04</rscale>
<asrwt>0</asrwt>
<pdfrwt beam="1">  1        2 0.32902282E+00 0.35128269E+04</pdfrwt>
<pdfrwt beam="2">  1       -2 0.22192221E+00 0.35128269E+04</pdfrwt>
<totfact> 0.44102609E-01</totfact>
</mgrwt>
</event>
<event>
 6    1  0.2325157E-005  0.1367688E+04  0.7818608E-02  0.8977546E-01
          2   -1    0    0  501    0  0.00000000000E+00  0.00000000000E+00  0.12247544326E+04  0.12247544326E+04  0.00000000000E+00 0.  1.
         -2   -1    0    0    0  501 -0.00000000000E+00 -0.00000000000E+00 -0.38182560448E+03  0.38182560448E+03  0.00000000000E+00 0. -1.
         23    2    1    2    0    0 -0.28105730301E+03 -0.37204161771E+03  0.10061457591E+04  0.11125679528E+04  0.89833113223E+02 0.  0.
         13    1    3    3    0    0 -0.22597092673E+03 -0.29737709938E+03  0.71025323824E+03  0.80246848000E+03  0.00000000000E+00 0. -1.
        -13    1    3    3    0    0 -0.55086376278E+02 -0.74664518322E+02  0.29589252087E+03  0.31009947284E+03  0.00000000000E+00 0.  1.
         22    1    1    2    0    0  0.28105730301E+03  0.37204161771E+03 -0.16321693095E+03  0.49401208429E+03  0.00000000000E+00 0. -1.
<mgrwt>
<rscale>  0 0.13676880E+04</rscale>
<asrwt>0</asrwt>
<pdfrwt beam="1">  1        2 0.18842376E+00 0.13676880E+04</pdfrwt>
<pdfrwt beam="2">  1       -2 0.58742401E-01 0.13676880E+04</pdfrwt>
<totfact> 0.48371487E+01</totfact>
</mgrwt>
</event>
<event>
 6    1  0.2325157E-005  0.4075699E+04  0.7818608E-02  0.7989447E-01
          2   -1    0    0  501    0  0.00000000000E+00  0.00000000000E+00  0.16727987662E+04  0.16727987662E+04  0.00000000000E+00 0.  1.
         -2   -1    0    0    0  501 -0.00000000000E+00 -0.00000000000E+00 -0.24825647563E+04  0.24825647563E+04  0.00000000000E+00 0. -1.
         23    2    1    2    0    0  0.13034772356E+04  0.90538826100E+03  0.89661054580E+03  0.18250198378E+04  0.89476983969E+02 0.  0.
         13    1    3    3    0    0  0.89834642893E+03  0.57465126028E+03  0.58870988499E+03  0.12181254886E+04  0.00000000000E+00 0. -1.
        -13    1    3    3    0    0  0.40513080663E+03  0.33073700072E+03  0.30790066081E+03  0.60689434917E+03  0.00000000000E+00 0.  1.
         22    1    1    2    0    0 -0.13034772356E+04 -0.90538826100E+03 -0.17063765359E+04  0.23303436848E+04  0.00000000000E+00 0. -1.
<mgrwt>
<rscale>  0 0.40756993E+04</rscale>
<asrwt>0</asrwt>
<pdfrwt beam="1">  1        2 0.25735366E+00 0.40756993E+04</pdfrwt>
<pdfrwt beam="2">  1       -2 0.38193304E+00 0.40756993E+04</pdfrwt>
<totfact> 0.77433415E-02</totfact>
</mgrwt>
</event>
<event>
 6    1  0.2325157E-005  0.1670477E+04  0.7818608E-02  0.8778384E-01
          2   -1    0    0  501    0  0.00000000000E+00  0.00000000000E+00  0.26150696749E+04  0.26150696749E+04  0.00000000000E+00 0. -1.
         -2   -1    0    0    0  501 -0.00000000000E+00 -0.00000000000E+00 -0.26677030595E+03  0.26677030595E+03  0.00000000000E+00 0.  1.
         23    2    1    2    0    0 -0.44411851930E+02 -0.82776085788E+03  0.13151334726E+04  0.15572297665E+04  0.90708570220E+02 0.  0.
         13    1    3    3    0    0 -0.35343868869E+02 -0.60977963664E+03  0.10399043726E+04  0.12060188633E+04  0.00000000000E+00 0.  1.
        -13    1    3    3    0    0 -0.90679830606E+01 -0.21798122124E+03  0.27522909990E+03  0.35121090325E+03  0.00000000000E+00 0. -1.
         22    1    1    2    0    0  0.44411851930E+02  0.82776085788E+03  0.10331658964E+04  0.13246102144E+04  0.00000000000E+00 0.  1.
<mgrwt>
<rscale>  0 0.16704765E+04</rscale>
<asrwt>0</asrwt>
<pdfrwt beam="1">  1        2 0.40231839E+00 0.16704765E+04</pdfrwt>
<pdfrwt beam="2">  1       -2 0.41041587E-01 0.16704765E+04</pdfrwt>
<totfact> 0.16028943E+01</totfact>
</mgrwt>
</event>
<event>
 6    1  0.2325157E-005  0.4260027E+04  0.7818608E-02  0.7954051E-01
         -2   -1    0    0    0  501 -0.00000000000E+00  0.00000000000E+00  0.12350165971E+04  0.12350165971E+04  0.00000000000E+00 0. -1.
          2   -1    0    0  501    0  0.00000000000E+00 -0.00000000000E+00 -0.36736010166E+04  0.36736010166E+04  0.00000000000E+00 0.  1.
         23    2    1    2    0    0  0.89965961911E+03 -0.17587837961E+04 -0.30529734761E+03  0.20011063751E+04  0.92262573759E+02 0.  0.
         11    1    3    3    0    0  0.48889880638E+03 -0.87702834888E+03 -0.18442345476E+03  0.10208882301E+04  0.00000000000E+00 0.  1.
        -11    1    3    3    0    0  0.41076081273E+03 -0.88175544721E+03 -0.12087389285E+03  0.98021814507E+03  0.00000000000E+00 0. -1.
         22    1    1    2    0    0 -0.89965961911E+03  0.17587837961E+04 -0.21332870718E+04  0.29075112386E+04  0.00000000000E+00 0.  1.
<mgrwt>
<rscale>  0 0.42600273E+04</rscale>
<asrwt>0</asrwt>
<pdfrwt beam="1">  1        2 0.56516938E+00 0.42600273E+04</pdfrwt>
<pdfrwt beam="2">  1       -2 0.19000255E+00 0.42600273E+04</pdfrwt>
<totfact> 0.72908208E-02</totfact>
</mgrwt>
</event>
<event>
 6    1  0.2325157E-005  0.3708925E+04  0.7818608E-02  0.8065987E-01
         -2   -1    0    0    0  501 -0.00000000000E+00  0.00000000000E+00  0.11323708821E+04  0.11323708821E+04  0.00000000000E+00 0. -1.
          2   -1    0    0  501    0  0.00000000000E+00 -0.00000000000E+00 -0.30370175681E+04  0.30370175681E+04  0.00000000000E+00 0.  1.
         23    2    1    2    0    0  0.43642687548E+03 -0.15796985051E+04 -0.19255479043E+04  0.25303787962E+04  0.95740984342E+02 0.  0.
         13    1    3    3    0    0  0.18305175990E+03 -0.50194416564E+03 -0.64765586988E+03  0.83959157810E+03  0.00000000000E+00 0. -1.
        -13    1    3    3    0    0  0.25337511558E+03 -0.10777543395E+04 -0.12778920344E+04  0.16907872181E+04  0.00000000000E+00 0.  1.
         22    1    1    2    0    0 -0.43642687548E+03  0.15796985051E+04  0.20901218311E+02  0.16390096539E+04  0.00000000000E+00 0. -1.
<mgrwt>
<rscale>  0 0.37089245E+04</rscale>
<asrwt>0</asrwt>
<pdfrwt beam="1">  1        2 0.46723346E+00 0.37089245E+04</pdfrwt>
<pdfrwt beam="2">  1       -2 0.17421091E+00 0.37089245E+04</pdfrwt>
<totfact> 0.26508825E-01</totfact>
</mgrwt>
</event>
<event>
 6    1  0.2325157E-005  0.1461030E+04  0.7818608E-02  0.8910789E-01
         -2   -1    0    0    0  501 -0.00000000000E+00  0.00000000000E+00  0.33281680300E+03  0.33281680300E+03  0.00000000000E+00 0. -1.
          2   -1    0    0  501    0  0.00000000000E+00 -0.00000000000E+00 -0.16034415457E+04  0.16034415457E+04  0.00000000000E+00 0.  1.
         23    2    1    2    0    0 -0.26117118795E+03  0.47381063263E+03 -0.12822266895E+04  0.13951100232E+04  0.97569404724E+02 0.  0.
         13    1    3    3    0    0 -0.38675708550E+02  0.15805713339E+03 -0.34724741815E+03  0.38348225155E+03  0.00000000000E+00 0.  1.
        -13    1    3    3    0    0 -0.22249547940E+03  0.31575349924E+03 -0.93497927132E+03  0.10116277717E+04  0.00000000000E+00 0. -1.
         22    1    1    2    0    0  0.26117118795E+03 -0.47381063263E+03  0.11601946742E+02  0.54114832548E+03  0.00000000000E+00 0. -1.
<mgrwt>
<rscale>  0 0.14610302E+04</rscale>
<asrwt>0</asrwt>
<pdfrwt beam="1">  1        2 0.24668332E+00 0.14610302E+04</pdfrwt>
<pdfrwt beam="2">  1       -2 0.51202584E-01 0.14610302E+04</pdfrwt>
<totfact> 0.38771032E+01</totfact>
</mgrwt>
</event>
<event>
 6    1  0.2325157E-005  0.3473964E+04  0.7818608E-02  0.8119988E-01
         -2   -1    0    0    0  501 -0.00000000000E+00  0.00000000000E+00  0.16188160806E+04  0.16188160806E+04  0.00000000000E+00 0. -1.
          2   -1    0    0  501    0  0.00000000000E+00 -0.00000000000E+00 -0.18637736581E+04  0.18637736581E+04  0.00000000000E+00 0.  1.
         23    2    1    2    0    0  0.15776245583E+04 -0.16231214977E+03 -0.82975363589E+03  0.17922551828E+04  0.91886142809E+02 0.  0.
         11    1    3    3    0    0  0.10048933724E+04 -0.12228219030E+03 -0.57423560316E+03  0.11638342459E+04  0.00000000000E+00 0. -1.
        -11    1    3    3    0    0  0.57273118588E+03 -0.40029959466E+02 -0.25551803273E+03  0.62842093694E+03  0.00000000000E+00 0.  1.
         22    1    1    2    0    0 -0.15776245583E+04  0.16231214977E+03  0.58479605840E+03  0.16903345559E+04  0.00000000000E+00 0. -1.
<mgrwt>
<rscale>  0 0.34739642E+04</rscale>
<asrwt>0</asrwt>
<pdfrwt beam="1">  1        2 0.28673441E+00 0.34739642E+04</pdfrwt>
<pdfrwt beam="2">  1       -2 0.24904863E+00 0.34739642E+04</pdfrwt>
<totfact> 0.42660577E-01</totfact>
</mgrwt>
</event>
<event>
 6    1  0.2325157E-005  0.2501291E+04  0.7818608E-02  0.8402526E-01
         -2   -1    0    0    0  501 -0.00000000000E+00  0.00000000000E+00  0.62984793749E+03  0.62984793749E+03  0.00000000000E+00 0.  1.
          2   -1    0    0  501    0  0.00000000000E+00 -0.00000000000E+00 -0.24833209968E+04  0.24833209968E+04  0.00000000000E+00 0. -1.
         23    2    1    2    0    0 -0.12545617404E+02 -0.12165928089E+04 -0.57833557177E+03  0.13507186322E+04  0.98556251306E+02 0.  0.
         13    1    3    3    0    0  0.35225950769E+02 -0.77907336066E+03 -0.39083714232E+03  0.87232438961E+03  0.00000000000E+00 0. -1.
        -13    1    3    3    0    0 -0.47771568173E+02 -0.43751944823E+03 -0.18749842944E+03  0.47839424259E+03  0.00000000000E+00 0.  1.
         22    1    1    2    0    0  0.12545617404E+02  0.12165928089E+04 -0.12751374875E+04  0.17624503020E+04  0.00000000000E+00 0. -1.
<mgrwt>
<rscale>  0 0.25012914E+04</rscale>
<asrwt>0</asrwt>
<pdfrwt beam="1">  1        2 0.38204938E+00 0.25012914E+04</pdfrwt>
<pdfrwt beam="2">  1       -2 0.96899684E-01 0.25012914E+04</pdfrwt>
<totfact> 0.28237578E+00</totfact>
</mgrwt>
</event>
<event>
 6    1  0.2325157E-005  0.2207898E+04  0.7818608E-02  0.8515148E-01
          2   -1    0    0  501    0  0.00000000000E+00  0.00000000000E+00  0.28648415305E+04  0.28648415305E+04  0.00000000000E+00 0.  1.
         -2   -1    0    0    0  501 -0.00000000000E+00 -0.00000000000E+00 -0.42539980160E+03  0.42539980160E+03  0.00000000000E+00 0. -1.
         23    2    1    2    0    0 -0.80314809565E+03 -0.69177754829E+03  0.16713214471E+04  0.19811913685E+04  0.90558374904E+02 0.  0.
         11    1    3    3    0    0 -0.75661185684E+03 -0.67376203136E+03  0.16083675294E+04  0.19008584604E+04  0.00000000000E+00 0. -1.
        -11    1    3    3    0    0 -0.46536238818E+02 -0.18015516934E+02  0.62953917665E+02  0.80332908096E+02  0.00000000000E+00 0.  1.
         22    1    1    2    0    0  0.80314809565E+03  0.69177754829E+03  0.76812028184E+03  0.13090499636E+04  0.00000000000E+00 0. -1.
<mgrwt>
<rscale>  0 0.22078977E+04</rscale>
<asrwt>0</asrwt>
<pdfrwt beam="1">  1        2 0.44074484E+00 0.22078977E+04</pdfrwt>
<pdfrwt beam="2">  1       -2 0.65446125E-01 0.22078977E+04</pdfrwt>
<totfact> 0.41523739E+00</totfact>
</mgrwt>
</event>
<event>
 6    1  0.2325157E-005  0.5957951E+03  0.7818608E-02  0.9914168E-01
          2   -1    0    0  501    0  0.00000000000E+00  0.00000000000E+00  0.18162796785E+04  0.18162796785E+04  0.00000000000E+00 0.  1.
         -2   -1    0    0    0  501 -0.00000000000E+00 -0.00000000000E+00 -0.48859745165E+02  0.48859745165E+02  0.00000000000E+00 0. -1.
         23    2    1    2    0    0 -0.25996797736E+03  0.13082765382E+03  0.88191742877E+03  0.93303754626E+03  0.89897092923E+02 0.  0.
         13    1    3    3    0    0 -0.10672245092E+03  0.74064262130E+02  0.51922025605E+03  0.53522413132E+03  0.00000000000E+00 0. -1.
        -13    1    3    3    0    0 -0.15324552645E+03  0.56763391686E+02  0.36269717271E+03  0.39781341494E+03  0.00000000000E+00 0.  1.
         22    1    1    2    0    0  0.25996797736E+03 -0.13082765382E+03  0.88550250453E+03  0.93210187737E+03  0.00000000000E+00 0.  1.
<mgrwt>
<rscale>  0 0.59579514E+03</rscale>
<asrwt>0</asrwt>
<pdfrwt beam="1">  1        2 0.27942759E+00 0.59579514E+03</pdfrwt>
<pdfrwt beam="2">  1       -2 0.75168853E-02 0.59579514E+03</pdfrwt>
<totfact> 0.94391142E+02</totfact>
</mgrwt>
</event>
<event>
 6    1  0.2325157E-005  0.1163531E+04  0.7818608E-02  0.9145390E-01
          1   -1    0    0  501    0  0.00000000000E+00  0.00000000000E+00  0.82051780573E+03  0.82051780573E+03  0.00000000000E+00 0.  1.
         -1   -1    0    0    0  501 -0.00000000000E+00 -0.00000000000E+00 -0.41248496542E+03  0.41248496542E+03  0.00000000000E+00 0. -1.
         23    2    1    2    0    0 -0.34109797953E+03  0.35472420940E+03  0.52686727835E+03  0.72674323293E+03  0.91594220545E+02 0.  0.
         13    1    3    3    0    0 -0.71314836583E+02  0.71732977320E+02  0.16762822098E+03  0.19578214020E+03  0.00000000000E+00 0. -1.
        -13    1    3    3    0    0 -0.26978314295E+03  0.28299123208E+03  0.35923905737E+03  0.53096109273E+03  0.00000000000E+00 0.  1.
         22    1    1    2    0    0  0.34109797953E+03 -0.35472420940E+03 -0.11883443804E+03  0.50625953822E+03  0.00000000000E+00 0. -1.
<mgrwt>
<rscale>  0 0.11635313E+04</rscale>
<asrwt>0</asrwt>
<pdfrwt beam="1">  1        1 0.12623351E+00 0.11635313E+04</pdfrwt>
<pdfrwt beam="2">  1       -1 0.63459226E-01 0.11635313E+04</pdfrwt>
<totfact> 0.53041335E+01</totfact>
</mgrwt>
</event>
<event>
 6    1  0.2325157E-005  0.5393020E+03  0.7818608E-02  0.1004001E+00
          2   -1    0    0  501    0  0.00000000000E+00  0.00000000000E+00  0.62310732896E+03  0.62310732896E+03  0.00000000000E+00 0.  1.
         -2   -1    0    0    0  501 -0.00000000000E+00 -0.00000000000E+00 -0.11669204827E+03  0.11669204827E+03  0.00000000000E+00 0. -1.
         23    2    1    2    0    0 -0.22306576410E+03 -0.94913350444E+02  0.39458992921E+03  0.47283161057E+03  0.95402518389E+02 0.  0.
         13    1    3    3    0    0 -0.96187610319E+02 -0.27408042608E+02  0.84034561018E+02  0.13063332126E+03  0.00000000000E+00 0. -1.
        -13    1    3    3    0    0 -0.12687815378E+03 -0.67505307836E+02  0.31055536819E+03  0.34219828930E+03  0.00000000000E+00 0.  1.
         22    1    1    2    0    0  0.22306576410E+03  0.94913350444E+02  0.11182535149E+03  0.26696776667E+03  0.00000000000E+00 0. -1.
<mgrwt>
<rscale>  0 0.53930203E+03</rscale>
<asrwt>0</asrwt>
<pdfrwt beam="1">  1        2 0.95862664E-01 0.53930203E+03</pdfrwt>
<pdfrwt beam="2">  1       -2 0.17952623E-01 0.53930203E+03</pdfrwt>
<totfact> 0.12228491E+03</totfact>
</mgrwt>
</event>
<event>
 6    1  0.2325157E-005  0.1252403E+04  0.7818608E-02  0.9068186E-01
         -2   -1    0    0    0  501 -0.00000000000E+00  0.00000000000E+00  0.14459801762E+04  0.14459801762E+04  0.00000000000E+00 0. -1.
          2   -1    0    0  501    0  0.00000000000E+00 -0.00000000000E+00 -0.27118493319E+03  0.27118493319E+03  0.00000000000E+00 0.  1.
         23    2    1    2    0    0 -0.34604931722E+03 -0.38064393395E+03  0.10719670216E+04  0.11925570866E+04  0.91864982816E+02 0.  0.
         13    1    3    3    0    0 -0.13678377150E+03 -0.21710699156E+03  0.50405774859E+03  0.56561423236E+03  0.00000000000E+00 0. -1.
        -13    1    3    3    0    0 -0.20926554572E+03 -0.16353694239E+03  0.56790927303E+03  0.62694285429E+03  0.00000000000E+00 0.  1.
         22    1    1    2    0    0  0.34604931722E+03  0.38064393395E+03  0.10282822137E+03  0.52460802273E+03  0.00000000000E+00 0.  1.
<mgrwt>
<rscale>  0 0.12524026E+04</rscale>
<asrwt>0</asrwt>
<pdfrwt beam="1">  1        2 0.41720760E-01 0.12524026E+04</pdfrwt>
<pdfrwt beam="2">  1       -2 0.22245848E+00 0.12524026E+04</pdfrwt>
<totfact> 0.11526592E+01</totfact>
</mgrwt>
</event>
<event>
 6    1  0.2325157E-005  0.2683108E+04  0.7818608E-02  0.8340507E-01
         -2   -1    0    0    0  501 -0.00000000000E+00  0.00000000000E+00  0.55560514530E+03  0.55560514530E+03  0.00000000000E+00 0. -1.
          2   -1    0    0  501    0  0.00000000000E+00 -0.00000000000E+00 -0.32392928425E+04  0.32392928425E+04  0.00000000000E+00 0.  1.
         23    2    1    2    0    0  0.78297184988E+03 -0.65311742034E+03 -0.25737721940E+04  0.27693792409E+04  0.74503630348E+02 0.  0.
         11    1    3    3    0    0  0.54392538945E+03 -0.40952022721E+03 -0.16897073839E+04  0.18217224511E+04  0.00000000000E+00 0.  1.
        -11    1    3    3    0    0  0.23904646043E+03 -0.24359719313E+03 -0.88406481011E+03  0.94765678979E+03  0.00000000000E+00 0. -1.
         22    1    1    2    0    0 -0.78297184988E+03  0.65311742034E+03 -0.10991550325E+03  0.10255187469E+04  0.00000000000E+00 0. -1.
<mgrwt>
<rscale>  0 0.26831085E+04</rscale>
<asrwt>0</asrwt>
<pdfrwt beam="1">  1        2 0.49835276E+00 0.26831085E+04</pdfrwt>
<pdfrwt beam="2">  1       -2 0.85477713E-01 0.26831085E+04</pdfrwt>
<totfact> 0.12770220E+00</totfact>
</mgrwt>
</event>
<event>
 6    1  0.2325157E-005  0.7329184E+04  0.7818608E-02  0.7544408E-01
         -2   -1    0    0    0  501 -0.00000000000E+00  0.00000000000E+00  0.28870634166E+04  0.28870634166E+04  0.00000000000E+00 0. -1.
          2   -1    0    0  501    0  0.00000000000E+00 -0.00000000000E+00 -0.46515199706E+04  0.46515199706E+04  0.00000000000E+00 0.  1.
         23    2    1    2    0    0  0.11580252817E+03  0.16372882643E+04  0.24870495122E+04  0.29812347153E+04  0.90675608741E+02 0.  0.
         13    1    3    3    0    0  0.66407191616E+02  0.90002328845E+03  0.12853948103E+04  0.15705704866E+04  0.00000000000E+00 0. -1.
        -13    1    3    3    0    0  0.49395336553E+02  0.73726497584E+03  0.12016547018E+04  0.14106642287E+04  0.00000000000E+00 0.  1.
         22    1    1    2    0    0 -0.11580252817E+03 -0.16372882643E+04 -0.42515060662E+04  0.45573486718E+04  0.00000000000E+00 0.  1.
<mgrwt>
<rscale>  0 0.73291836E+04</rscale>
<asrwt>0</asrwt>
<pdfrwt beam="1">  1        2 0.71561846E+00 0.73291836E+04</pdfrwt>
<pdfrwt beam="2">  1       -2 0.44416360E+00 0.73291836E+04</pdfrwt>
<totfact> 0.19731108E-04</totfact>
</mgrwt>
</event>
<event>
 6    1  0.2325157E-005  0.2693129E+04  0.7818608E-02  0.8337238E-01
          2   -1    0    0  501    0  0.00000000000E+00  0.00000000000E+00  0.37413545943E+04  0.37413545943E+04  0.00000000000E+00 0.  1.
         -2   -1    0    0    0  501 -0.00000000000E+00 -0.00000000000E+00 -0.48464708818E+03  0.48464708818E+03  0.00000000000E+00 0. -1.
         23    2    1    2    0    0  0.10853150265E+04  0.47848692377E+03  0.63448485214E+03  0.13479971498E+04  0.87560523959E+02 0.  0.
         13    1    3    3    0    0  0.74349910165E+03  0.36818162235E+03  0.46058620008E+03  0.94894060346E+03  0.00000000000E+00 0. -1.
        -13    1    3    3    0    0  0.34181592486E+03  0.11030530142E+03  0.17389865206E+03  0.39905654637E+03  0.00000000000E+00 0.  1.
         22    1    1    2    0    0 -0.10853150265E+04 -0.47848692377E+03  0.26222226539E+04  0.28780045326E+04  0.00000000000E+00 0.  1.
<mgrwt>
<rscale>  0 0.26931295E+04</rscale>
<asrwt>0</asrwt>
<pdfrwt beam="1">  1        2 0.57559300E+00 0.26931295E+04</pdfrwt>
<pdfrwt beam="2">  1       -2 0.74561093E-01 0.26931295E+04</pdfrwt>
<totfact> 0.77279304E-01</totfact>
</mgrwt>
</event>
<event>
 6    1  0.2325157E-005  0.1055415E+04  0.7818608E-02  0.9249771E-01
          2   -1    0    0  501    0  0.00000000000E+00  0.00000000000E+00  0.14385929562E+04  0.14385929562E+04  0.00000000000E+00 0.  1.
         -2   -1    0    0    0  501 -0.00000000000E+00 -0.00000000000E+00 -0.19357463281E+03  0.19357463281E+03  0.00000000000E+00 0. -1.
         23    2    1    2    0    0 -0.28001866424E+03  0.17454373072E+02  0.13110875438E+04  0.13439311421E+04  0.92115469356E+02 0.  0.
         11    1    3    3    0    0 -0.17233353146E+03  0.50644078085E+02  0.89557021678E+03  0.91340554077E+03  0.00000000000E+00 0. -1.
        -11    1    3    3    0    0 -0.10768513278E+03 -0.33189705013E+02  0.41551732703E+03  0.43052560133E+03  0.00000000000E+00 0.  1.
         22    1    1    2    0    0  0.28001866424E+03 -0.17454373072E+02 -0.66069220387E+02  0.28823644694E+03  0.00000000000E+00 0. -1.
<mgrwt>
<rscale>  0 0.10554148E+04</rscale>
<asrwt>0</asrwt>
<pdfrwt beam="1">  1        2 0.22132199E+00 0.10554148E+04</pdfrwt>
<pdfrwt beam="2">  1       -2 0.29780714E-01 0.10554148E+04</pdfrwt>
<totfact> 0.14218945E+02</totfact>
</mgrwt>
</event>
<event>
 6    1  0.2325157E-005  0.1057252E+04  0.7818608E-02  0.9247889E-01
         -2   -1    0    0    0  501 -0.00000000000E+00  0.00000000000E+00  0.43521510221E+03  0.43521510221E+03  0.00000000000E+00 0. -1.
          2   -1    0    0  501    0  0.00000000000E+00 -0.00000000000E+00 -0.64208563580E+03  0.64208563580E+03  0.00000000000E+00 0.  1.
         23    2    1    2    0    0  0.44876932469E+01 -0.91734483524E+02 -0.63062854871E+03  0.64370390888E+03  0.90702816960E+02 0.  0.
         11    1    3    3    0    0 -0.26224398281E+02 -0.94665708597E+02 -0.48034028874E+03  0.49028166234E+03  0.00000000000E+00 0. -1.
        -11    1    3    3    0    0  0.30712091528E+02  0.29312250728E+01 -0.15028825998E+03  0.15342224654E+03  0.00000000000E+00 0.  1.
         22    1    1    2    0    0 -0.44876932469E+01  0.91734483524E+02  0.42375801511E+03  0.43359682913E+03  0.00000000000E+00 0. -1.
<mgrwt>
<rscale>  0 0.10572518E+04</rscale>
<asrwt>0</asrwt>
<pdfrwt beam="1">  1        2 0.98782405E-01 0.10572518E+04</pdfrwt>
<pdfrwt beam="2">  1       -2 0.66956170E-01 0.10572518E+04</pdfrwt>
<totfact> 0.93100465E+01</totfact>
</mgrwt>
</event>
<event>
 6    1  0.2325157E-005  0.3222557E+04  0.7818608E-02  0.8182885E-01
          2   -1    0    0  501    0  0.00000000000E+00  0.00000000000E+00  0.81482489088E+03  0.81482489088E+03  0.00000000000E+00 0.  1.
         -2   -1    0    0    0  501 -0.00000000000E+00 -0.00000000000E+00 -0.31862278946E+04  0.31862278946E+04  0.00000000000E+00 0. -1.
         23    2    1    2    0    0 -0.10711713060E+04  0.25807342208E+03  0.27089287835E+03  0.11382329542E+04  0.90451360433E+02 0.  0.
         13    1    3    3    0    0 -0.99638320365E+03  0.21581498978E+03  0.24498979924E+03  0.10485111349E+04  0.00000000000E+00 0. -1.
        -13    1    3    3    0    0 -0.74788102307E+02  0.42258432304E+02  0.25903079109E+02  0.89721819279E+02  0.00000000000E+00 0.  1.
         22    1    1    2    0    0  0.10711713060E+04 -0.25807342208E+03 -0.26422958821E+04  0.28628198313E+04  0.00000000000E+00 0. -1.
<mgrwt>
<rscale>  0 0.32225566E+04</rscale>
<asrwt>0</asrwt>
<pdfrwt beam="1">  1        2 0.12535768E+00 0.32225566E+04</pdfrwt>
<pdfrwt beam="2">  1       -2 0.49018890E+00 0.32225566E+04</pdfrwt>
<totfact> 0.53574825E-02</totfact>
</mgrwt>
</event>
<event>
 6    1  0.3618416E-005  0.4293720E+04  0.7818608E-02  0.7947780E-01
         -2   -1    0    0    0  501 -0.00000000000E+00  0.00000000000E+00  0.15201089725E+04  0.15201089725E+04  0.00000000000E+00 0.  1.
          2   -1    0    0  501    0  0.00000000000E+00 -0.00000000000E+00 -0.30320240733E+04  0.30320240733E+04  0.00000000000E+00 0. -1.
         23    2    1    2    0    0 -0.18968126898E+04 -0.73044373956E+03 -0.14857664808E+04  0.25193688718E+04  0.90945258062E+02 0.  0.
         11    1    3    3    0    0 -0.10261171063E+04 -0.43638248624E+03 -0.78493683533E+03  0.13636245178E+04  0.00000000000E+00 0. -1.
        -11    1    3    3    0    0 -0.87069558352E+03 -0.29406125332E+03 -0.70082964546E+03  0.11557443540E+04  0.00000000000E+00 0.  1.
         22    1    1    2    0    0  0.18968126898E+04  0.73044373956E+03 -0.26148619923E+02  0.20327641740E+04  0.00000000000E+00 0. -1.
<mgrwt>
<rscale>  0 0.42937196E+04</rscale>
<asrwt>0</asrwt>
<pdfrwt beam="1">  1        2 0.46646524E+00 0.42937196E+04</pdfrwt>
<pdfrwt beam="2">  1       -2 0.23386292E+00 0.42937196E+04</pdfrwt>
<totfact> 0.10350564E-01</totfact>
</mgrwt>
</event>
<event>
 6    1  0.2325157E-005  0.1353507E+04  0.7818608E-02  0.8988178E-01
         -2   -1    0    0    0  501 -0.00000000000E+00  0.00000000000E+00  0.12386897878E+03  0.12386897878E+03  0.00000000000E+00 0. -1.
          2   -1    0    0  501    0  0.00000000000E+00 -0.00000000000E+00 -0.36974159467E+04  0.36974159467E+04  0.00000000000E+00 0.  1.
         23    2    1    2    0    0 -0.20916269256E+02  0.53083766615E+03 -0.29644374245E+04  0.30130519430E+04  0.91469389634E+02 0.  0.
         13    1    3    3    0    0  0.31820513765E+02  0.31184535733E+03 -0.17780954244E+04  0.18055147217E+04  0.00000000000E+00 0. -1.
        -13    1    3    3    0    0 -0.52736783021E+02  0.21899230882E+03 -0.11863420001E+04  0.12075372213E+04  0.00000000000E+00 0.  1.
         22    1    1    2    0    0  0.20916269256E+02 -0.53083766615E+03 -0.60910954343E+03  0.80823298251E+03  0.00000000000E+00 0. -1.
<mgrwt>
<rscale>  0 0.13535068E+04</rscale>
<asrwt>0</asrwt>
<pdfrwt beam="1">  1        2 0.56883322E+00 0.13535068E+04</pdfrwt>
<pdfrwt beam="2">  1       -2 0.19056766E-01 0.13535068E+04</pdfrwt>
<totfact> 0.13630449E+01</totfact>
</mgrwt>
</event>
<event>
 6    1  0.2325157E-005  0.2656829E+04  0.7818608E-02  0.8349150E-01
          2   -1    0    0  501    0  0.00000000000E+00  0.00000000000E+00  0.34516920614E+04  0.34516920614E+04  0.00000000000E+00 0. -1.
         -2   -1    0    0    0  501 -0.00000000000E+00 -0.00000000000E+00 -0.51125214548E+03  0.51125214548E+03  0.00000000000E+00 0.  1.
         23    2    1    2    0    0  0.25593617257E+03  0.12134736637E+04  0.21740937232E+04  0.25051005445E+04  0.10403635722E+03 0.  0.
         11    1    3    3    0    0  0.14935829333E+03  0.50967661962E+03  0.99212361647E+03  0.11253388053E+04  0.00000000000E+00 0. -1.
        -11    1    3    3    0    0  0.10657787924E+03  0.70379704408E+03  0.11819701068E+04  0.13797617392E+04  0.00000000000E+00 0.  1.
         22    1    1    2    0    0 -0.25593617257E+03 -0.12134736637E+04  0.76634619268E+03  0.14578436624E+04  0.00000000000E+00 0.  1.
<mgrwt>
<rscale>  0 0.26568289E+04</rscale>
<asrwt>0</asrwt>
<pdfrwt beam="1">  1        2 0.53102953E+00 0.26568289E+04</pdfrwt>
<pdfrwt beam="2">  1       -2 0.78654178E-01 0.26568289E+04</pdfrwt>
<totfact> 0.11109792E+00</totfact>
</mgrwt>
</event>
<event>
 6    1  0.2325157E-005  0.5083134E+04  0.7818608E-02  0.7815809E-01
          2   -1    0    0  501    0  0.00000000000E+00  0.00000000000E+00  0.28299812211E+04  0.28299812211E+04  0.00000000000E+00 0.  1.
         -2   -1    0    0    0  501 -0.00000000000E+00 -0.00000000000E+00 -0.22825459426E+04  0.22825459426E+04  0.00000000000E+00 0. -1.
         23    2    1    2    0    0 -0.83772179466E+03 -0.23983371810E+04  0.23232572891E+03  0.25526261758E+04  0.90144938980E+02 0.  0.
         11    1    3    3    0    0 -0.54023533481E+03 -0.15720672654E+04  0.10974973493E+03  0.16659215793E+04  0.00000000000E+00 0. -1.
        -11    1    3    3    0    0 -0.29748645986E+03 -0.82626991562E+03  0.12257599398E+03  0.88670459656E+03  0.00000000000E+00 0.  1.
         22    1    1    2    0    0  0.83772179466E+03  0.23983371810E+04  0.31510954956E+03  0.25599009878E+04  0.00000000000E+00 0.  1.
<mgrwt>
<rscale>  0 0.50831337E+04</rscale>
<asrwt>0</asrwt>
<pdfrwt beam="1">  1        2 0.43538173E+00 0.50831337E+04</pdfrwt>
<pdfrwt beam="2">  1       -2 0.35116091E+00 0.50831337E+04</pdfrwt>
<totfact> 0.24532050E-02</totfact>
</mgrwt>
</event>
<event>
 6    1  0.2325157E-005  0.3210850E+04  0.7818608E-02  0.8185958E-01
          2   -1    0    0  501    0  0.00000000000E+00  0.00000000000E+00  0.25117459593E+04  0.25117459593E+04  0.00000000000E+00 0.  1.
         -2   -1    0    0    0  501 -0.00000000000E+00 -0.00000000000E+00 -0.10261344776E+04  0.10261344776E+04  0.00000000000E+00 0. -1.
         23    2    1    2    0    0 -0.15928668357E+04  0.96608943493E+02  0.92387823520E+03  0.18461055451E+04  0.89423966955E+02 0.  0.
         11    1    3    3    0    0 -0.47976797117E+03  0.67828635902E+02  0.29629491796E+03  0.56795132575E+03  0.00000000000E+00 0. -1.
        -11    1    3    3    0    0 -0.11130988645E+04  0.28780307591E+02  0.62758331724E+03  0.12781542193E+04  0.00000000000E+00 0.  1.
         22    1    1    2    0    0  0.15928668357E+04 -0.96608943493E+02  0.56173324654E+03  0.16917748918E+04  0.00000000000E+00 0. -1.
<mgrwt>
<rscale>  0 0.32108498E+04</rscale>
<asrwt>0</asrwt>
<pdfrwt beam="1">  1        2 0.38642245E+00 0.32108498E+04</pdfrwt>
<pdfrwt beam="2">  1       -2 0.15786684E+00 0.32108498E+04</pdfrwt>
<totfact> 0.75306704E-01</totfact>
</mgrwt>
</event>
<event>
 6    1  0.2325157E-005  0.5262051E+03  0.7818608E-02  0.1007157E+00
          2   -1    0    0  501    0  0.00000000000E+00  0.00000000000E+00  0.13173085572E+04  0.13173085572E+04  0.00000000000E+00 0.  1.
         -2   -1    0    0    0  501 -0.00000000000E+00 -0.00000000000E+00 -0.52548771363E+02  0.52548771363E+02  0.00000000000E+00 0. -1.
         23    2    1    2    0    0 -0.25363237930E+03  0.19498042532E+02  0.60274498360E+03  0.66065132472E+03  0.91918986686E+02 0.  0.
         13    1    3    3    0    0 -0.13803860449E+03  0.49467956587E+02  0.27197867688E+03  0.30898889257E+03  0.00000000000E+00 0.  1.
        -13    1    3    3    0    0 -0.11559377482E+03 -0.29969914055E+02  0.33076630672E+03  0.35166243215E+03  0.00000000000E+00 0. -1.
         22    1    1    2    0    0  0.25363237930E+03 -0.19498042532E+02  0.66201480220E+03  0.70920600380E+03  0.00000000000E+00 0.  1.
<mgrwt>
<rscale>  0 0.52620508E+03</rscale>
<asrwt>0</asrwt>
<pdfrwt beam="1">  1        2 0.20266283E+00 0.52620508E+03</pdfrwt>
<pdfrwt beam="2">  1       -2 0.80844273E-02 0.52620508E+03</pdfrwt>
<totfact> 0.15855655E+03</totfact>
</mgrwt>
</event>
<event>
 6    1  0.2325157E-005  0.1656214E+04  0.7818608E-02  0.8786739E-01
         -2   -1    0    0    0  501 -0.00000000000E+00  0.00000000000E+00  0.17917692981E+04  0.17917692981E+04  0.00000000000E+00 0. -1.
          2   -1    0    0  501    0  0.00000000000E+00 -0.00000000000E+00 -0.38272852559E+03  0.38272852559E+03  0.00000000000E+00 0.  1.
         23    2    1    2    0    0 -0.79506494539E+03  0.13971822338E+03  0.93425022363E+03  0.12379747248E+04  0.90047152549E+02 0.  0.
         11    1    3    3    0    0 -0.29664196435E+03  0.82526091328E+02  0.40459550144E+03  0.50843340818E+03  0.00000000000E+00 0. -1.
        -11    1    3    3    0    0 -0.49842298104E+03  0.57192132049E+02  0.52965472219E+03  0.72954131667E+03  0.00000000000E+00 0.  1.
         22    1    1    2    0    0  0.79506494539E+03 -0.13971822338E+03  0.47479054883E+03  0.93652309880E+03  0.00000000000E+00 0.  1.
<mgrwt>
<rscale>  0 0.16562140E+04</rscale>
<asrwt>0</asrwt>
<pdfrwt beam="1">  1        2 0.58881312E-01 0.16562140E+04</pdfrwt>
<pdfrwt beam="2">  1       -2 0.27565681E+00 0.16562140E+04</pdfrwt>
<totfact> 0.35765495E+00</totfact>
</mgrwt>
</event>
<event>
 6    1  0.2325157E-005  0.3891034E+04  0.7818608E-02  0.8026897E-01
          2   -1    0    0  501    0  0.00000000000E+00  0.00000000000E+00  0.15263909991E+04  0.15263909991E+04  0.00000000000E+00 0.  1.
         -2   -1    0    0    0  501 -0.00000000000E+00 -0.00000000000E+00 -0.24797286747E+04  0.24797286747E+04  0.00000000000E+00 0. -1.
         23    2    1    2    0    0 -0.82390275545E+03 -0.42556771750E+03  0.12827063274E+04  0.15854139056E+04  0.90984047430E+02 0.  0.
         11    1    3    3    0    0 -0.19568014001E+03 -0.13281695923E+03  0.37517698625E+03  0.44349614752E+03  0.00000000000E+00 0. -1.
        -11    1    3    3    0    0 -0.62822261544E+03 -0.29275075827E+03  0.90752934120E+03  0.11419177580E+04  0.00000000000E+00 0.  1.
         22    1    1    2    0    0  0.82390275545E+03  0.42556771750E+03 -0.22360440030E+04  0.24207057682E+04  0.00000000000E+00 0. -1.
<mgrwt>
<rscale>  0 0.38910336E+04</rscale>
<asrwt>0</asrwt>
<pdfrwt beam="1">  1        2 0.23482939E+00 0.38910336E+04</pdfrwt>
<pdfrwt beam="2">  1       -2 0.38149671E+00 0.38910336E+04</pdfrwt>
<totfact> 0.95536770E-02</totfact>
</mgrwt>
</event>
<event>
 6    1  0.2325157E-005  0.2905707E+04  0.7818608E-02  0.8271181E-01
         -2   -1    0    0    0  501 -0.00000000000E+00  0.00000000000E+00  0.14454933628E+04  0.14454933628E+04  0.00000000000E+00 0. -1.
          2   -1    0    0  501    0  0.00000000000E+00 -0.00000000000E+00 -0.14602514879E+04  0.14602514879E+04  0.00000000000E+00 0.  1.
         23    2    1    2    0    0  0.63839876342E+03 -0.64457812711E+03 -0.11405228838E+04  0.14599301201E+04  0.87003241432E+02 0.  0.
         11    1    3    3    0    0  0.52042289084E+03 -0.48000728701E+03 -0.85930169143E+03  0.11133940802E+04  0.00000000000E+00 0.  1.
        -11    1    3    3    0    0  0.11797587258E+03 -0.16457084010E+03 -0.28122119242E+03  0.34653603995E+03  0.00000000000E+00 0. -1.
         22    1    1    2    0    0 -0.63839876342E+03  0.64457812711E+03  0.11257647587E+04  0.14458147306E+04  0.00000000000E+00 0. -1.
<mgrwt>
<rscale>  0 0.29057074E+04</rscale>
<asrwt>0</asrwt>
<pdfrwt beam="1">  1        2 0.22465407E+00 0.29057074E+04</pdfrwt>
<pdfrwt beam="2">  1       -2 0.22238360E+00 0.29057074E+04</pdfrwt>
<totfact> 0.11010573E+00</totfact>
</mgrwt>
</event>
<event>
 6    1  0.2325157E-005  0.8016670E+03  0.7818608E-02  0.9557607E-01
          2   -1    0    0  501    0  0.00000000000E+00  0.00000000000E+00  0.14200534654E+04  0.14200534654E+04  0.00000000000E+00 0.  1.
         -2   -1    0    0    0  501 -0.00000000000E+00 -0.00000000000E+00 -0.11314187175E+03  0.11314187175E+03  0.00000000000E+00 0. -1.
         23    2    1    2    0    0  0.16612969002E+03 -0.29498368805E+03  0.10539783422E+04  0.11105966152E+04  0.89106933718E+02 0.  0.
         11    1    3    3    0    0  0.14703884326E+03 -0.22101772236E+03  0.70419230552E+03  0.75256631480E+03  0.00000000000E+00 0. -1.
        -11    1    3    3    0    0  0.19090846769E+02 -0.73965965690E+02  0.34978603670E+03  0.35803030036E+03  0.00000000000E+00 0.  1.
         22    1    1    2    0    0 -0.16612969002E+03  0.29498368805E+03  0.25293325141E+03  0.42259872195E+03  0.00000000000E+00 0. -1.
<mgrwt>
<rscale>  0 0.80166703E+03</rscale>
<asrwt>0</asrwt>
<pdfrwt beam="1">  1        2 0.21846975E+00 0.80166703E+03</pdfrwt>
<pdfrwt beam="2">  1       -2 0.17406443E-01 0.80166703E+03</pdfrwt>
<totfact> 0.38618296E+02</totfact>
</mgrwt>
</event>
<event>
 6    1  0.2325157E-005  0.1107266E+04  0.7818608E-02  0.9198139E-01
          2   -1    0    0  501    0  0.00000000000E+00  0.00000000000E+00  0.28514020399E+04  0.28514020399E+04  0.00000000000E+00 0.  1.
         -2   -1    0    0    0  501 -0.00000000000E+00 -0.00000000000E+00 -0.10749430954E+03  0.10749430954E+03  0.00000000000E+00 0. -1.
         23    2    1    2    0    0  0.48765889027E+03  0.18581462859E+03  0.91734126055E+03  0.10592428710E+04  0.90234151099E+02 0.  0.
         13    1    3    3    0    0  0.23554836234E+03  0.10131879545E+03  0.53816904222E+03  0.59613291078E+03  0.00000000000E+00 0.  1.
        -13    1    3    3    0    0  0.25211052793E+03  0.84495833136E+02  0.37917221833E+03  0.46310996023E+03  0.00000000000E+00 0. -1.
         22    1    1    2    0    0 -0.48765889027E+03 -0.18581462859E+03  0.18265664698E+04  0.18996534785E+04  0.00000000000E+00 0.  1.
<mgrwt>
<rscale>  0 0.11072660E+04</rscale>
<asrwt>0</asrwt>
<pdfrwt beam="1">  1        2 0.43867718E+00 0.11072660E+04</pdfrwt>
<pdfrwt beam="2">  1       -2 0.16537588E-01 0.11072660E+04</pdfrwt>
<totfact> 0.64468748E+01</totfact>
</mgrwt>
</event>
<event>
 6    1  0.2325157E-005  0.1142644E+04  0.7818608E-02  0.9164596E-01
         -2   -1    0    0    0  501 -0.00000000000E+00  0.00000000000E+00  0.89711476501E+03  0.89711476501E+03  0.00000000000E+00 0. -1.
          2   -1    0    0  501    0  0.00000000000E+00 -0.00000000000E+00 -0.36384308954E+03  0.36384308954E+03  0.00000000000E+00 0.  1.
         23    2    1    2    0    0 -0.30036231934E+03 -0.42381435043E+03  0.52425204088E+03  0.74142202295E+03  0.70924517835E+02 0.  0.
         11    1    3    3    0    0 -0.30416524531E+03 -0.42056157724E+03  0.52124011596E+03  0.73558126348E+03  0.00000000000E+00 0. -1.
        -11    1    3    3    0    0  0.38029259679E+01 -0.32527731950E+01  0.30119249213E+01  0.58407594632E+01  0.00000000000E+00 0.  1.
         22    1    1    2    0    0  0.30036231934E+03  0.42381435043E+03  0.90196345864E+01  0.51953583160E+03  0.00000000000E+00 0. -1.
<mgrwt>
<rscale>  0 0.11426443E+04</rscale>
<asrwt>0</asrwt>
<pdfrwt beam="1">  1        2 0.55975860E-01 0.11426443E+04</pdfrwt>
<pdfrwt beam="2">  1       -2 0.13801766E+00 0.11426443E+04</pdfrwt>
<totfact> 0.32626282E+01</totfact>
</mgrwt>
</event>
<event>
 6    1  0.2325157E-005  0.1966643E+04  0.7818608E-02  0.8622377E-01
         -2   -1    0    0    0  501 -0.00000000000E+00  0.00000000000E+00  0.81135865476E+03  0.81135865476E+03  0.00000000000E+00 0. -1.
          2   -1    0    0  501    0  0.00000000000E+00 -0.00000000000E+00 -0.11917304528E+04  0.11917304528E+04  0.00000000000E+00 0.  1.
         23    2    1    2    0    0 -0.44479634528E+03 -0.57623150105E+03 -0.86067174616E+03  0.11309798416E+04  0.92048986389E+02 0.  0.
         13    1    3    3    0    0 -0.36016386272E+02 -0.34018677184E+02 -0.98073477862E+02  0.10987655590E+03  0.00000000000E+00 0. -1.
        -13    1    3    3    0    0 -0.40877995901E+03 -0.54221282387E+03 -0.76259826829E+03  0.10211032857E+04  0.00000000000E+00 0.  1.
         22    1    1    2    0    0  0.44479634528E+03  0.57623150105E+03  0.48029994813E+03  0.87210926595E+03  0.00000000000E+00 0. -1.
<mgrwt>
<rscale>  0 0.19666426E+04</rscale>
<asrwt>0</asrwt>
<pdfrwt beam="1">  1        2 0.18334314E+00 0.19666426E+04</pdfrwt>
<pdfrwt beam="2">  1       -2 0.12482441E+00 0.19666426E+04</pdfrwt>
<totfact> 0.85888928E+00</totfact>
</mgrwt>
</event>
<event>
 6    1  0.2325157E-005  0.5259437E+04  0.7818608E-02  0.7789687E-01
         -2   -1    0    0    0  501 -0.00000000000E+00  0.00000000000E+00  0.30836747920E+04  0.30836747920E+04  0.00000000000E+00 0. -1.
          2   -1    0    0  501    0  0.00000000000E+00 -0.00000000000E+00 -0.22425902326E+04  0.22425902326E+04  0.00000000000E+00 0.  1.
         23    2    1    2    0    0  0.21776383175E+04  0.14655638824E+04  0.56880836679E+03  0.26873030203E+04  0.89824437107E+02 0.  0.
         11    1    3    3    0    0  0.12648332782E+04  0.90425239159E+03  0.34063538896E+03  0.15916997448E+04  0.00000000000E+00 0. -1.
        -11    1    3    3    0    0  0.91280503931E+03  0.56131149078E+03  0.22817297783E+03  0.10956032755E+04  0.00000000000E+00 0.  1.
         22    1    1    2    0    0 -0.21776383175E+04 -0.14655638824E+04  0.27227619256E+03  0.26389620043E+04  0.00000000000E+00 0. -1.
<mgrwt>
<rscale>  0 0.52594368E+04</rscale>
<asrwt>0</asrwt>
<pdfrwt beam="1">  1        2 0.34501388E+00 0.52594368E+04</pdfrwt>
<pdfrwt beam="2">  1       -2 0.47441151E+00 0.52594368E+04</pdfrwt>
<totfact> 0.84094473E-03</totfact>
</mgrwt>
</event>
<event>
 6    1  0.2325157E-005  0.2038006E+04  0.7818608E-02  0.8589055E-01
          2   -1    0    0  501    0  0.00000000000E+00  0.00000000000E+00  0.10913666793E+04  0.10913666793E+04  0.00000000000E+00 0.  1.
         -2   -1    0    0    0  501 -0.00000000000E+00 -0.00000000000E+00 -0.95143707388E+03  0.95143707388E+03  0.00000000000E+00 0. -1.
         23    2    1    2    0    0  0.30349183964E+03 -0.94277009143E+03  0.30244497711E+03  0.10391434580E+04  0.86159272313E+02 0.  0.
         11    1    3    3    0    0  0.18315312660E+03 -0.43277498657E+03  0.13208071823E+03  0.48814400837E+03  0.00000000000E+00 0. -1.
        -11    1    3    3    0    0  0.12033871303E+03 -0.50999510486E+03  0.17036425888E+03  0.55099944967E+03  0.00000000000E+00 0.  1.
         22    1    1    2    0    0 -0.30349183964E+03  0.94277009143E+03 -0.16251537167E+03  0.10036602951E+04  0.00000000000E+00 0. -1.
<mgrwt>
<rscale>  0 0.20380056E+04</rscale>
<asrwt>0</asrwt>
<pdfrwt beam="1">  1        2 0.16790257E+00 0.20380056E+04</pdfrwt>
<pdfrwt beam="2">  1       -2 0.14637493E+00 0.20380056E+04</pdfrwt>
<totfact> 0.65297531E+00</totfact>
</mgrwt>
</event>
<event>
 6    1  0.2325157E-005  0.6230502E+03  0.7818608E-02  0.9858705E-01
          2   -1    0    0  501    0  0.00000000000E+00  0.00000000000E+00  0.13552389181E+04  0.13552389181E+04  0.00000000000E+00 0.  1.
         -2   -1    0    0    0  501 -0.00000000000E+00 -0.00000000000E+00 -0.71609441096E+02  0.71609441096E+02  0.00000000000E+00 0. -1.
         23    2    1    2    0    0 -0.25725340354E+03  0.29244617852E+02  0.10234548940E+04  0.10597988054E+04  0.93161293242E+02 0.  0.
         11    1    3    3    0    0 -0.14324122441E+03  0.23591418474E+02  0.74214722963E+03  0.75621234706E+03  0.00000000000E+00 0. -1.
        -11    1    3    3    0    0 -0.11401217913E+03  0.56531993781E+01  0.28130766441E+03  0.30358645838E+03  0.00000000000E+00 0.  1.
         22    1    1    2    0    0  0.25725340354E+03 -0.29244617852E+02  0.26017458301E+03  0.36704955380E+03  0.00000000000E+00 0. -1.
<mgrwt>
<rscale>  0 0.62305024E+03</rscale>
<asrwt>0</asrwt>
<pdfrwt beam="1">  1        2 0.20849828E+00 0.62305024E+03</pdfrwt>
<pdfrwt beam="2">  1       -2 0.11016838E-01 0.62305024E+03</pdfrwt>
<totfact> 0.91281146E+02</totfact>
</mgrwt>
</event>
<event>
 6    1  0.2325157E-005  0.1108649E+04  0.7818608E-02  0.9196803E-01
          1   -1    0    0  501    0  0.00000000000E+00  0.00000000000E+00  0.12124010667E+04  0.12124010667E+04  0.00000000000E+00 0.  1.
         -1   -1    0    0    0  501 -0.00000000000E+00 -0.00000000000E+00 -0.25344371284E+03  0.25344371284E+03  0.00000000000E+00 0. -1.
         23    2    1    2    0    0  0.36727593156E+03 -0.21337633164E+03  0.23187557277E+02  0.43818424172E+03  0.10510327339E+03 0.  0.
         11    1    3    3    0    0  0.27481821054E+03 -0.12179621383E+03 -0.19488762288E+02  0.30122944478E+03  0.00000000000E+00 0.  1.
        -11    1    3    3    0    0  0.92457721021E+02 -0.91580117813E+02  0.42676319564E+02  0.13695479695E+03  0.00000000000E+00 0. -1.
         22    1    1    2    0    0 -0.36727593156E+03  0.21337633164E+03  0.93576979657E+03  0.10276605378E+04  0.00000000000E+00 0.  1.
<mgrwt>
<rscale>  0 0.11086486E+04</rscale>
<asrwt>0</asrwt>
<pdfrwt beam="1">  1        1 0.18652324E+00 0.11086486E+04</pdfrwt>
<pdfrwt beam="2">  1       -1 0.38991341E-01 0.11086486E+04</pdfrwt>
<totfact> 0.66470733E+01</totfact>
</mgrwt>
</event>
<event>
 6    1  0.2325157E-005  0.3102802E+04  0.7818608E-02  0.8214969E-01
          2   -1    0    0  501    0  0.00000000000E+00  0.00000000000E+00  0.27380656665E+04  0.27380656665E+04  0.00000000000E+00 0.  1.
         -2   -1    0    0    0  501 -0.00000000000E+00 -0.00000000000E+00 -0.87903110804E+03  0.87903110804E+03  0.00000000000E+00 0. -1.
         23    2    1    2    0    0  0.97033012466E+03  0.75481338583E+02  0.23363704076E+04  0.25330822469E+04  0.10315524567E+03 0.  0.
         13    1    3    3    0    0  0.25286116129E+03  0.44044575602E+02  0.71898829528E+03  0.76342835962E+03  0.00000000000E+00 0. -1.
        -13    1    3    3    0    0  0.71746896338E+03  0.31436762981E+02  0.16173821123E+04  0.17696538873E+04  0.00000000000E+00 0.  1.
         22    1    1    2    0    0 -0.97033012466E+03 -0.75481338583E+02 -0.47733584914E+03  0.10840145277E+04  0.00000000000E+00 0. -1.
<mgrwt>
<rscale>  0 0.31028019E+04</rscale>
<asrwt>0</asrwt>
<pdfrwt beam="1">  1        2 0.42124087E+00 0.31028019E+04</pdfrwt>
<pdfrwt beam="2">  1       -2 0.13523556E+00 0.31028019E+04</pdfrwt>
<totfact> 0.83975323E-01</totfact>
</mgrwt>
</event>
<event>
 6    1  0.2325157E-005  0.2411160E+04  0.7818608E-02  0.8435337E-01
         -2   -1    0    0    0  501 -0.00000000000E+00  0.00000000000E+00  0.84544716383E+03  0.84544716383E+03  0.00000000000E+00 0. -1.
          2   -1    0    0  501    0  0.00000000000E+00 -0.00000000000E+00 -0.17191174808E+04  0.17191174808E+04  0.00000000000E+00 0.  1.
         23    2    1    2    0    0  0.47120624719E+03 -0.58600870106E+03  0.56285444511E+03  0.94313166199E+03  0.85150926898E+02 0.  0.
         11    1    3    3    0    0  0.24501623615E+03 -0.37003253413E+03  0.31885648423E+03  0.54646728157E+03  0.00000000000E+00 0.  1.
        -11    1    3    3    0    0  0.22619001104E+03 -0.21597616693E+03  0.24399796088E+03  0.39666438042E+03  0.00000000000E+00 0. -1.
         22    1    1    2    0    0 -0.47120624719E+03  0.58600870106E+03 -0.14365247621E+04  0.16214329826E+04  0.00000000000E+00 0.  1.
<mgrwt>
<rscale>  0 0.24111599E+04</rscale>
<asrwt>0</asrwt>
<pdfrwt beam="1">  1        2 0.26447961E+00 0.24111599E+04</pdfrwt>
<pdfrwt beam="2">  1       -2 0.13006880E+00 0.24111599E+04</pdfrwt>
<totfact> 0.37293458E+00</totfact>
</mgrwt>
</event>
<event>
 6    1  0.2325157E-005  0.3326416E+04  0.7818608E-02  0.8156206E-01
          2   -1    0    0  501    0  0.00000000000E+00  0.00000000000E+00  0.32918918478E+04  0.32918918478E+04  0.00000000000E+00 0.  1.
         -2   -1    0    0    0  501 -0.00000000000E+00 -0.00000000000E+00 -0.84032534606E+03  0.84032534606E+03  0.00000000000E+00 0. -1.
         23    2    1    2    0    0  0.22714532245E+01 -0.16391423306E+04  0.15671757750E+04  0.22697082148E+04  0.93502572973E+02 0.  0.
         11    1    3    3    0    0 -0.35065761654E+02 -0.12657031392E+04  0.11899178382E+04  0.17375668349E+04  0.00000000000E+00 0.  1.
        -11    1    3    3    0    0  0.37337214879E+02 -0.37343919143E+03  0.37725793677E+03  0.53214137986E+03  0.00000000000E+00 0. -1.
         22    1    1    2    0    0 -0.22714532245E+01  0.16391423306E+04  0.88439072681E+03  0.18625089791E+04  0.00000000000E+00 0. -1.
<mgrwt>
<rscale>  0 0.33264156E+04</rscale>
<asrwt>0</asrwt>
<pdfrwt beam="1">  1        2 0.50644489E+00 0.33264156E+04</pdfrwt>
<pdfrwt beam="2">  1       -2 0.12928082E+00 0.33264156E+04</pdfrwt>
<totfact> 0.41351834E-01</totfact>
</mgrwt>
</event>
<event>
 6    1  0.2325157E-005  0.1630359E+04  0.7818608E-02  0.8802111E-01
          2   -1    0    0  501    0  0.00000000000E+00  0.00000000000E+00  0.24938387545E+04  0.24938387545E+04  0.00000000000E+00 0.  1.
         -2   -1    0    0    0  501 -0.00000000000E+00 -0.00000000000E+00 -0.26646379722E+03  0.26646379722E+03  0.00000000000E+00 0. -1.
         23    2    1    2    0    0  0.11345659333E+03  0.69776120776E+03  0.43930422248E+03  0.83755970508E+03  0.93674746179E+02 0.  0.
         11    1    3    3    0    0  0.12975633275E+03  0.59245671181E+03  0.37022530072E+03  0.71056909203E+03  0.00000000000E+00 0.  1.
        -11    1    3    3    0    0 -0.16299739423E+02  0.10530449595E+03  0.69078921752E+02  0.12699061305E+03  0.00000000000E+00 0. -1.
         22    1    1    2    0    0 -0.11345659333E+03 -0.69776120776E+03  0.17880707348E+04  0.19227428467E+04  0.00000000000E+00 0.  1.
<mgrwt>
<rscale>  0 0.16303592E+04</rscale>
<asrwt>0</asrwt>
<pdfrwt beam="1">  1        2 0.38366749E+00 0.16303592E+04</pdfrwt>
<pdfrwt beam="2">  1       -2 0.40994432E-01 0.16303592E+04</pdfrwt>
<totfact> 0.18961094E+01</totfact>
</mgrwt>
</event>
<event>
 6    1  0.2325157E-005  0.3659131E+04  0.7818608E-02  0.8077080E-01
          2   -1    0    0  501    0  0.00000000000E+00  0.00000000000E+00  0.21637853553E+04  0.21637853553E+04  0.00000000000E+00 0.  1.
         -2   -1    0    0    0  501 -0.00000000000E+00 -0.00000000000E+00 -0.15469698473E+04  0.15469698473E+04  0.00000000000E+00 0. -1.
         23    2    1    2    0    0 -0.21156761795E+03 -0.18138915997E+04  0.39961651824E+03  0.18716959339E+04  0.92675319570E+02 0.  0.
         11    1    3    3    0    0 -0.15560540716E+03 -0.12244404554E+04  0.22743610303E+03  0.12550675888E+04  0.00000000000E+00 0. -1.
        -11    1    3    3    0    0 -0.55962210785E+02 -0.58945114430E+03  0.17218041521E+03  0.61662834506E+03  0.00000000000E+00 0.  1.
         22    1    1    2    0    0  0.21156761795E+03  0.18138915997E+04  0.21719898978E+03  0.18390592687E+04  0.00000000000E+00 0.  1.
<mgrwt>
<rscale>  0 0.36591314E+04</rscale>
<asrwt>0</asrwt>
<pdfrwt beam="1">  1        2 0.33289006E+00 0.36591314E+04</pdfrwt>
<pdfrwt beam="2">  1       -2 0.23799536E+00 0.36591314E+04</pdfrwt>
<totfact> 0.33461181E-01</totfact>
</mgrwt>
</event>
<event>
 6    1  0.2325157E-005  0.2533896E+04  0.7818608E-02  0.8391008E-01
         -2   -1    0    0    0  501 -0.00000000000E+00  0.00000000000E+00  0.11103257636E+04  0.11103257636E+04  0.00000000000E+00 0. -1.
          2   -1    0    0  501    0  0.00000000000E+00 -0.00000000000E+00 -0.14456635042E+04  0.14456635042E+04  0.00000000000E+00 0.  1.
         23    2    1    2    0    0 -0.73609973639E+03  0.93765592962E+03 -0.59582496551E+03  0.13357863919E+04  0.90974891551E+02 0.  0.
         11    1    3    3    0    0 -0.23697379971E+03  0.33574510446E+03 -0.16339527502E+03  0.44224356730E+03  0.00000000000E+00 0.  1.
        -11    1    3    3    0    0 -0.49912593668E+03  0.60191082516E+03 -0.43242969049E+03  0.89354282456E+03  0.00000000000E+00 0. -1.
         22    1    1    2    0    0  0.73609973639E+03 -0.93765592962E+03  0.26048722492E+03  0.12202028760E+04  0.00000000000E+00 0. -1.
<mgrwt>
<rscale>  0 0.25338962E+04</rscale>
<asrwt>0</asrwt>
<pdfrwt beam="1">  1        2 0.22240977E+00 0.25338962E+04</pdfrwt>
<pdfrwt beam="2">  1       -2 0.17081935E+00 0.25338962E+04</pdfrwt>
<totfact> 0.25491210E+00</totfact>
</mgrwt>
</event>
<event>
 6    1  0.2325157E-005  0.3893050E+04  0.7818608E-02  0.8026476E-01
          2   -1    0    0  501    0  0.00000000000E+00  0.00000000000E+00  0.14353794727E+04  0.14353794727E+04  0.00000000000E+00 0.  1.
         -2   -1    0    0    0  501 -0.00000000000E+00 -0.00000000000E+00 -0.26396916945E+04  0.26396916945E+04  0.00000000000E+00 0. -1.
         23    2    1    2    0    0 -0.13744595481E+04 -0.36546902168E+02 -0.20432008433E+04  0.24644163795E+04  0.90574168148E+02 0.  0.
         13    1    3    3    0    0 -0.61483290060E+03 -0.61374167803E+02 -0.91937116485E+03  0.11077136917E+04  0.00000000000E+00 0.  1.
        -13    1    3    3    0    0 -0.75962664751E+03  0.24827265634E+02 -0.11238296785E+04  0.13567026878E+04  0.00000000000E+00 0. -1.
         22    1    1    2    0    0  0.13744595481E+04  0.36546902168E+02  0.83888862159E+03  0.16106547876E+04  0.00000000000E+00 0.  1.
<mgrwt>
<rscale>  0 0.38930498E+04</rscale>
<asrwt>0</asrwt>
<pdfrwt beam="1">  1        2 0.22082761E+00 0.38930498E+04</pdfrwt>
<pdfrwt beam="2">  1       -2 0.40610641E+00 0.38930498E+04</pdfrwt>
<totfact> 0.74352916E-02</totfact>
</mgrwt>
</event>
<event>
 6    1  0.2325157E-005  0.1412754E+04  0.7818608E-02  0.8944638E-01
         -2   -1    0    0    0  501 -0.00000000000E+00  0.00000000000E+00  0.31433552595E+03  0.31433552595E+03  0.00000000000E+00 0. -1.
          2   -1    0    0  501    0  0.00000000000E+00 -0.00000000000E+00 -0.15873761626E+04  0.15873761626E+04  0.00000000000E+00 0.  1.
         23    2    1    2    0    0  0.54606886144E+03  0.72265238474E+02 -0.50262105368E+02  0.56059245348E+03  0.91236799257E+02 0.  0.
         11    1    3    3    0    0  0.73225220447E+02 -0.20217397686E+02  0.17883876497E+01  0.75986014562E+02  0.00000000000E+00 0.  1.
        -11    1    3    3    0    0  0.47284364099E+03  0.92482636160E+02 -0.52050493017E+02  0.48460643892E+03  0.00000000000E+00 0. -1.
         22    1    1    2    0    0 -0.54606886144E+03 -0.72265238474E+02 -0.12227785313E+04  0.13411192351E+04  0.00000000000E+00 0.  1.
<mgrwt>
<rscale>  0 0.14127544E+04</rscale>
<asrwt>0</asrwt>
<pdfrwt beam="1">  1        2 0.24421172E+00 0.14127544E+04</pdfrwt>
<pdfrwt beam="2">  1       -2 0.48359311E-01 0.14127544E+04</pdfrwt>
<totfact> 0.44634747E+01</totfact>
</mgrwt>
</event>
<event>
 6    1  0.2325157E-005  0.2748889E+04  0.7818608E-02  0.8319314E-01
          2   -1    0    0  501    0  0.00000000000E+00  0.00000000000E+00  0.28717669564E+04  0.28717669564E+04  0.00000000000E+00 0.  1.
         -2   -1    0    0    0  501 -0.00000000000E+00 -0.00000000000E+00 -0.65781696489E+03  0.65781696489E+03  0.00000000000E+00 0. -1.
         23    2    1    2    0    0 -0.51830376896E+02  0.73912252857E+03  0.25922846842E+04  0.26976430341E+04  0.91375901580E+02 0.  0.
         13    1    3    3    0    0 -0.61295687512E+02  0.48581937044E+03  0.18263200823E+04  0.18908259214E+04  0.00000000000E+00 0. -1.
        -13    1    3    3    0    0  0.94653106161E+01  0.25330315812E+03  0.76596460184E+03  0.80681711267E+03  0.00000000000E+00 0.  1.
         22    1    1    2    0    0  0.51830376896E+02 -0.73912252857E+03 -0.37833469263E+03  0.83194088723E+03  0.00000000000E+00 0. -1.
<mgrwt>
<rscale>  0 0.27488885E+04</rscale>
<asrwt>0</asrwt>
<pdfrwt beam="1">  1        2 0.44181029E+00 0.27488885E+04</pdfrwt>
<pdfrwt beam="2">  1       -2 0.10120261E+00 0.27488885E+04</pdfrwt>
<totfact> 0.14663202E+00</totfact>
</mgrwt>
</event>
<event>
 6    1  0.2325157E-005  0.2141367E+04  0.7818608E-02  0.8543237E-01
          2   -1    0    0  501    0  0.00000000000E+00  0.00000000000E+00  0.72320112199E+03  0.72320112199E+03  0.00000000000E+00 0.  1.
         -2   -1    0    0    0  501 -0.00000000000E+00 -0.00000000000E+00 -0.15851236535E+04  0.15851236535E+04  0.00000000000E+00 0. -1.
         23    2    1    2    0    0  0.89092467849E+03 -0.16441077984E+03  0.17964528023E+03  0.92787514087E+03  0.88894111530E+02 0.  0.
         13    1    3    3    0    0  0.47039606717E+03 -0.11616140254E+03  0.61535680190E+02  0.48841843883E+03  0.00000000000E+00 0. -1.
        -13    1    3    3    0    0  0.42052861131E+03 -0.48249377296E+02  0.11810960004E+03  0.43945670204E+03  0.00000000000E+00 0.  1.
         22    1    1    2    0    0 -0.89092467849E+03  0.16441077984E+03 -0.10415678118E+04  0.13804496346E+04  0.00000000000E+00 0. -1.
<mgrwt>
<rscale>  0 0.21413670E+04</rscale>
<asrwt>0</asrwt>
<pdfrwt beam="1">  1        2 0.11126171E+00 0.21413670E+04</pdfrwt>
<pdfrwt beam="2">  1       -2 0.24386518E+00 0.21413670E+04</pdfrwt>
<totfact> 0.25300973E+00</totfact>
</mgrwt>
</event>
<event>
 6    1  0.2325157E-005  0.2959519E+04  0.7818608E-02  0.8255386E-01
          2   -1    0    0  501    0  0.00000000000E+00  0.00000000000E+00  0.26604590868E+04  0.26604590868E+04  0.00000000000E+00 0.  1.
         -2   -1    0    0    0  501 -0.00000000000E+00 -0.00000000000E+00 -0.82304873249E+03  0.82304873249E+03  0.00000000000E+00 0. -1.
         23    2    1    2    0    0  0.10769902830E+04  0.87503418967E+03  0.31937708888E+03  0.14268070881E+04  0.90464572515E+02 0.  0.
         11    1    3    3    0    0  0.73539761147E+03  0.54549690089E+03  0.22520896983E+03  0.94291865817E+03  0.00000000000E+00 0. -1.
        -11    1    3    3    0    0  0.34159267156E+03  0.32953728878E+03  0.94168119049E+02  0.48388842991E+03  0.00000000000E+00 0.  1.
         22    1    1    2    0    0 -0.10769902830E+04 -0.87503418967E+03  0.15180332655E+04  0.20567007312E+04  0.00000000000E+00 0.  1.
<mgrwt>
<rscale>  0 0.29595185E+04</rscale>
<asrwt>0</asrwt>
<pdfrwt beam="1">  1        2 0.40930139E+00 0.29595185E+04</pdfrwt>
<pdfrwt beam="2">  1       -2 0.12662288E+00 0.29595185E+04</pdfrwt>
<totfact> 0.11171431E+00</totfact>
</mgrwt>
</event>
<event>
 6    1  0.2325157E-005  0.2821775E+04  0.7818608E-02  0.8296540E-01
          2   -1    0    0  501    0  0.00000000000E+00  0.00000000000E+00  0.43608050027E+04  0.43608050027E+04  0.00000000000E+00 0.  1.
         -2   -1    0    0    0  501 -0.00000000000E+00 -0.00000000000E+00 -0.45647610521E+03  0.45647610521E+03  0.00000000000E+00 0. -1.
         23    2    1    2    0    0  0.16168312602E+03 -0.80963316821E+03  0.39042445655E+04  0.39916617601E+04  0.92685920968E+02 0.  0.
         11    1    3    3    0    0  0.87526090949E+02 -0.37861170362E+03  0.20532925988E+04  0.20897411646E+04  0.00000000000E+00 0. -1.
        -11    1    3    3    0    0  0.74157035066E+02 -0.43102146459E+03  0.18509519667E+04  0.19019205956E+04  0.00000000000E+00 0.  1.
         22    1    1    2    0    0 -0.16168312602E+03  0.80963316821E+03  0.84332021956E-01  0.82561934778E+03  0.00000000000E+00 0. -1.
<mgrwt>
<rscale>  0 0.28217748E+04</rscale>
<asrwt>0</asrwt>
<pdfrwt beam="1">  1        2 0.67089305E+00 0.28217748E+04</pdfrwt>
<pdfrwt beam="2">  1       -2 0.70227096E-01 0.28217748E+04</pdfrwt>
<totfact> 0.26791704E-01</totfact>
</mgrwt>
</event>
<event>
 6    1  0.2325157E-005  0.4684274E+04  0.7818608E-02  0.7879147E-01
         -2   -1    0    0    0  501 -0.00000000000E+00  0.00000000000E+00  0.24308811760E+04  0.24308811760E+04  0.00000000000E+00 0. -1.
          2   -1    0    0  501    0  0.00000000000E+00 -0.00000000000E+00 -0.22566330169E+04  0.22566330169E+04  0.00000000000E+00 0.  1.
         23    2    1    2    0    0  0.20985174970E+04  0.10334910847E+04  0.18522695533E+03  0.23482835413E+04  0.90813313815E+02 0.  0.
         13    1    3    3    0    0  0.16520726099E+04  0.77656000149E+03  0.12680031374E+03  0.18298818716E+04  0.00000000000E+00 0. -1.
        -13    1    3    3    0    0  0.44644488709E+03  0.25693108320E+03  0.58426641594E+02  0.51840166973E+03  0.00000000000E+00 0.  1.
         22    1    1    2    0    0 -0.20985174970E+04 -0.10334910847E+04 -0.10978796283E+02  0.23392306516E+04  0.00000000000E+00 0. -1.
<mgrwt>
<rscale>  0 0.46842744E+04</rscale>
<asrwt>0</asrwt>
<pdfrwt beam="1">  1        2 0.34717431E+00 0.46842744E+04</pdfrwt>
<pdfrwt beam="2">  1       -2 0.37398172E+00 0.46842744E+04</pdfrwt>
<totfact> 0.39210391E-02</totfact>
</mgrwt>
</event>
<event>
 6    1  0.2325157E-005  0.2100117E+04  0.7818608E-02  0.8561192E-01
         -2   -1    0    0    0  501 -0.00000000000E+00  0.00000000000E+00  0.97251052705E+03  0.97251052705E+03  0.00000000000E+00 0.  1.
          2   -1    0    0  501    0  0.00000000000E+00 -0.00000000000E+00 -0.11337898929E+04  0.11337898929E+04  0.00000000000E+00 0. -1.
         23    2    1    2    0    0 -0.78818388888E+03  0.68061923258E+03 -0.19974639222E+03  0.10642082482E+04  0.90355917461E+02 0.  0.
         11    1    3    3    0    0 -0.55965875198E+03  0.44818434752E+03 -0.10417865239E+03  0.72452765278E+03  0.00000000000E+00 0. -1.
        -11    1    3    3    0    0 -0.22852513690E+03  0.23243488506E+03 -0.95567739831E+02  0.33968059539E+03  0.00000000000E+00 0.  1.
         22    1    1    2    0    0  0.78818388888E+03 -0.68061923258E+03  0.38467026339E+02  0.10420921718E+04  0.00000000000E+00 0. -1.
<mgrwt>
<rscale>  0 0.21001168E+04</rscale>
<asrwt>0</asrwt>
<pdfrwt beam="1">  1        2 0.17442921E+00 0.21001168E+04</pdfrwt>
<pdfrwt beam="2">  1       -2 0.14961700E+00 0.21001168E+04</pdfrwt>
<totfact> 0.57738312E+00</totfact>
</mgrwt>
</event>
<event>
 6    1  0.2325157E-005  0.3133630E+04  0.7818608E-02  0.8206569E-01
         -2   -1    0    0    0  501 -0.00000000000E+00  0.00000000000E+00  0.62968192535E+03  0.62968192535E+03  0.00000000000E+00 0. -1.
          2   -1    0    0  501    0  0.00000000000E+00 -0.00000000000E+00 -0.38986501389E+04  0.38986501389E+04  0.00000000000E+00 0.  1.
         23    2    1    2    0    0 -0.75417773136E+03 -0.91758890891E+03 -0.31095745816E+04  0.33299332216E+04  0.90816988378E+02 0.  0.
         13    1    3    3    0    0 -0.30934991672E+03 -0.30808788053E+03 -0.11235131756E+04  0.12053619244E+04  0.00000000000E+00 0. -1.
        -13    1    3    3    0    0 -0.44482781464E+03 -0.60950102838E+03 -0.19860614060E+04  0.21245712972E+04  0.00000000000E+00 0.  1.
         22    1    1    2    0    0  0.75417773136E+03  0.91758890891E+03 -0.15939363196E+03  0.11983988427E+04  0.00000000000E+00 0. -1.
<mgrwt>
<rscale>  0 0.31336302E+04</rscale>
<asrwt>0</asrwt>
<pdfrwt beam="1">  1        2 0.59979232E+00 0.31336302E+04</pdfrwt>
<pdfrwt beam="2">  1       -2 0.96874143E-01 0.31336302E+04</pdfrwt>
<totfact> 0.31020660E-01</totfact>
</mgrwt>
</event>
<event>
 6    1  0.2325157E-005  0.3643379E+04  0.7818608E-02  0.8080627E-01
         -2   -1    0    0    0  501 -0.00000000000E+00  0.00000000000E+00  0.12993881256E+04  0.12993881256E+04  0.00000000000E+00 0. -1.
          2   -1    0    0  501    0  0.00000000000E+00 -0.00000000000E+00 -0.25539344371E+04  0.25539344371E+04  0.00000000000E+00 0.  1.
         23    2    1    2    0    0  0.17248066658E+04  0.32732181269E+03 -0.11806927147E+03  0.17619886185E+04  0.92552338981E+02 0.  0.
         13    1    3    3    0    0  0.12917472287E+04  0.21168059246E+03 -0.11135822837E+03  0.13137047732E+04  0.00000000000E+00 0. -1.
        -13    1    3    3    0    0  0.43305943711E+03  0.11564122022E+03 -0.67110431019E+01  0.44828384533E+03  0.00000000000E+00 0.  1.
         22    1    1    2    0    0 -0.17248066658E+04 -0.32732181269E+03 -0.11364770400E+04  0.20913339441E+04  0.00000000000E+00 0. -1.
<mgrwt>
<rscale>  0 0.36433787E+04</rscale>
<asrwt>0</asrwt>
<pdfrwt beam="1">  1        2 0.39291299E+00 0.36433787E+04</pdfrwt>
<pdfrwt beam="2">  1       -2 0.19990587E+00 0.36433787E+04</pdfrwt>
<totfact> 0.35024992E-01</totfact>
</mgrwt>
</event>
<event>
 6    1  0.2325157E-005  0.2112793E+04  0.7818608E-02  0.8555629E-01
         -2   -1    0    0    0  501 -0.00000000000E+00  0.00000000000E+00  0.50260795060E+03  0.50260795060E+03  0.00000000000E+00 0. -1.
          2   -1    0    0  501    0  0.00000000000E+00 -0.00000000000E+00 -0.22203665095E+04  0.22203665095E+04  0.00000000000E+00 0.  1.
         23    2    1    2    0    0 -0.70365799407E+03 -0.43626974033E+03 -0.19604473568E+02  0.83374362284E+03  0.96323591602E+02 0.  0.
         11    1    3    3    0    0 -0.49924933765E+03 -0.27045417461E+03 -0.43452112659E+02  0.56945890791E+03  0.00000000000E+00 0. -1.
        -11    1    3    3    0    0 -0.20440865642E+03 -0.16581556572E+03  0.23847639091E+02  0.26428471493E+03  0.00000000000E+00 0.  1.
         22    1    1    2    0    0  0.70365799407E+03  0.43626974033E+03 -0.16981540853E+04  0.18892308373E+04  0.00000000000E+00 0.  1.
<mgrwt>
<rscale>  0 0.21127933E+04</rscale>
<asrwt>0</asrwt>
<pdfrwt beam="1">  1        2 0.34159484E+00 0.21127933E+04</pdfrwt>
<pdfrwt beam="2">  1       -2 0.77324302E-01 0.21127933E+04</pdfrwt>
<totfact> 0.69067477E+00</totfact>
</mgrwt>
</event>
<event>
 6    1  0.2325157E-005  0.2352820E+04  0.7818608E-02  0.8457381E-01
         -2   -1    0    0    0  501 -0.00000000000E+00  0.00000000000E+00  0.84030434614E+03  0.84030434614E+03  0.00000000000E+00 0. -1.
          2   -1    0    0  501    0  0.00000000000E+00 -0.00000000000E+00 -0.16469507908E+04  0.16469507908E+04  0.00000000000E+00 0.  1.
         23    2    1    2    0    0 -0.85985944411E+03 -0.52017653102E+03  0.23791707197E+03  0.10377535580E+04  0.10191185906E+03 0.  0.
         13    1    3    3    0    0 -0.51446065639E+03 -0.36556501361E+03  0.16560913726E+03  0.65248289823E+03  0.00000000000E+00 0.  1.
        -13    1    3    3    0    0 -0.34539878772E+03 -0.15461151742E+03  0.72307934714E+02  0.38527065979E+03  0.00000000000E+00 0. -1.
         22    1    1    2    0    0  0.85985944411E+03  0.52017653102E+03 -0.10445635167E+04  0.14495015790E+04  0.00000000000E+00 0.  1.
<mgrwt>
<rscale>  0 0.23528195E+04</rscale>
<asrwt>0</asrwt>
<pdfrwt beam="1">  1        2 0.25337704E+00 0.23528195E+04</pdfrwt>
<pdfrwt beam="2">  1       -2 0.12927759E+00 0.23528195E+04</pdfrwt>
<totfact> 0.41748069E+00</totfact>
</mgrwt>
</event>
<event>
 6    1  0.2325157E-005  0.1260888E+04  0.7818608E-02  0.9061169E-01
         -2   -1    0    0    0  501 -0.00000000000E+00  0.00000000000E+00  0.19863086848E+03  0.19863086848E+03  0.00000000000E+00 0. -1.
          2   -1    0    0  501    0  0.00000000000E+00 -0.00000000000E+00 -0.20009970043E+04  0.20009970043E+04  0.00000000000E+00 0.  1.
         23    2    1    2    0    0  0.18246599789E+03 -0.39376107029E+03 -0.11454857641E+03  0.45690880916E+03  0.85455618145E+02 0.  0.
         13    1    3    3    0    0  0.40283218809E+01 -0.87485050515E+02 -0.29158419008E+02  0.92304251473E+02  0.00000000000E+00 0. -1.
        -13    1    3    3    0    0  0.17843767601E+03 -0.30627601977E+03 -0.85390157397E+02  0.36460455769E+03  0.00000000000E+00 0.  1.
         22    1    1    2    0    0 -0.18246599789E+03  0.39376107029E+03 -0.16878175594E+04  0.17427190636E+04  0.00000000000E+00 0.  1.
<mgrwt>
<rscale>  0 0.12608882E+04</rscale>
<asrwt>0</asrwt>
<pdfrwt beam="1">  1        2 0.30784571E+00 0.12608882E+04</pdfrwt>
<pdfrwt beam="2">  1       -2 0.30558594E-01 0.12608882E+04</pdfrwt>
<totfact> 0.65032592E+01</totfact>
</mgrwt>
</event>
<event>
 6    1  0.2325157E-005  0.2635092E+04  0.7818608E-02  0.8356378E-01
          1   -1    0    0  501    0  0.00000000000E+00  0.00000000000E+00  0.14015400751E+04  0.14015400751E+04  0.00000000000E+00 0.  1.
         -1   -1    0    0    0  501 -0.00000000000E+00 -0.00000000000E+00 -0.12385859796E+04  0.12385859796E+04  0.00000000000E+00 0. -1.
         23    2    1    2    0    0 -0.35079429312E+03  0.50495919714E+03  0.12477373739E+04  0.13932117882E+04  0.78422609824E+02 0.  0.
         11    1    3    3    0    0 -0.55735910230E+01  0.38016015939E+02  0.62560284213E+02  0.73417106627E+02  0.00000000000E+00 0.  1.
        -11    1    3    3    0    0 -0.34522070209E+03  0.46694318120E+03  0.11851770897E+04  0.13197946816E+04  0.00000000000E+00 0. -1.
         22    1    1    2    0    0  0.35079429312E+03 -0.50495919714E+03 -0.10847832784E+04  0.12469142664E+04  0.00000000000E+00 0. -1.
<mgrwt>
<rscale>  0 0.26350923E+04</rscale>
<asrwt>0</asrwt>
<pdfrwt beam="1">  1        1 0.21562155E+00 0.26350923E+04</pdfrwt>
<pdfrwt beam="2">  1       -1 0.19055169E+00 0.26350923E+04</pdfrwt>
<totfact> 0.11785566E+00</totfact>
</mgrwt>
</event>
<event>
 6    1  0.2325157E-005  0.2964684E+04  0.7818608E-02  0.8253888E-01
          2   -1    0    0  501    0  0.00000000000E+00  0.00000000000E+00  0.47674022898E+04  0.47674022898E+04  0.00000000000E+00 0.  1.
         -2   -1    0    0    0  501 -0.00000000000E+00 -0.00000000000E+00 -0.46090894473E+03  0.46090894473E+03  0.00000000000E+00 0. -1.
         23    2    1    2    0    0  0.35165564819E+03  0.12595456293E+04  0.92970246018E+03  0.16071465645E+04  0.91959383134E+02 0.  0.
         13    1    3    3    0    0  0.25202300783E+03  0.80291904806E+03  0.64017756387E+03  0.10573655506E+04  0.00000000000E+00 0.  1.
        -13    1    3    3    0    0  0.99632640359E+02  0.45662658124E+03  0.28952489631E+03  0.54978101395E+03  0.00000000000E+00 0. -1.
         22    1    1    2    0    0 -0.35165564819E+03 -0.12595456293E+04  0.33767908849E+04  0.36211646700E+04  0.00000000000E+00 0.  1.
<mgrwt>
<rscale>  0 0.29646844E+04</rscale>
<asrwt>0</asrwt>
<pdfrwt beam="1">  1        2 0.73344647E+00 0.29646844E+04</pdfrwt>
<pdfrwt beam="2">  1       -2 0.70909072E-01 0.29646844E+04</pdfrwt>
<totfact> 0.10043926E-01</totfact>
</mgrwt>
</event>
<event>
 6    1  0.2325157E-005  0.4568000E+04  0.7818608E-02  0.7898839E-01
          2   -1    0    0  501    0  0.00000000000E+00  0.00000000000E+00  0.32843925400E+04  0.32843925400E+04  0.00000000000E+00 0. -1.
         -2   -1    0    0    0  501 -0.00000000000E+00 -0.00000000000E+00 -0.15883171923E+04  0.15883171923E+04  0.00000000000E+00 0.  1.
         23    2    1    2    0    0 -0.56690786365E+03 -0.13395805034E+04  0.27255139041E+04  0.30906872317E+04  0.89783472806E+02 0.  0.
         11    1    3    3    0    0 -0.16863020519E+03 -0.40478129159E+03  0.73642061644E+03  0.85708772273E+03  0.00000000000E+00 0.  1.
        -11    1    3    3    0    0 -0.39827765845E+03 -0.93479921179E+03  0.19890932877E+04  0.22335995090E+04  0.00000000000E+00 0. -1.
         22    1    1    2    0    0  0.56690786365E+03  0.13395805034E+04 -0.10294385565E+04  0.17820225006E+04  0.00000000000E+00 0.  1.
<mgrwt>
<rscale>  0 0.45680005E+04</rscale>
<asrwt>0</asrwt>
<pdfrwt beam="1">  1        2 0.50529116E+00 0.45680005E+04</pdfrwt>
<pdfrwt beam="2">  1       -2 0.24435649E+00 0.45680005E+04</pdfrwt>
<totfact> 0.59780640E-02</totfact>
</mgrwt>
</event>
<event>
 6    1  0.2325157E-005  0.3540137E+04  0.7818608E-02  0.8104343E-01
         -2   -1    0    0    0  501 -0.00000000000E+00  0.00000000000E+00  0.21523263395E+04  0.21523263395E+04  0.00000000000E+00 0. -1.
          2   -1    0    0  501    0  0.00000000000E+00 -0.00000000000E+00 -0.14557001415E+04  0.14557001415E+04  0.00000000000E+00 0.  1.
         23    2    1    2    0    0 -0.56715269728E+03 -0.16702728056E+04  0.48414865477E+03  0.18313385137E+04  0.89035974233E+02 0.  0.
         13    1    3    3    0    0 -0.46230202390E+03 -0.13645905205E+04  0.43078842609E+03  0.15037982305E+04  0.00000000000E+00 0. -1.
        -13    1    3    3    0    0 -0.10485067338E+03 -0.30568228503E+03  0.53360228680E+02  0.32754028316E+03  0.00000000000E+00 0.  1.
         22    1    1    2    0    0  0.56715269728E+03  0.16702728056E+04  0.21247754318E+03  0.17766879674E+04  0.00000000000E+00 0. -1.
<mgrwt>
<rscale>  0 0.35401366E+04</rscale>
<asrwt>0</asrwt>
<pdfrwt beam="1">  1        2 0.22395387E+00 0.35401366E+04</pdfrwt>
<pdfrwt beam="2">  1       -2 0.33112713E+00 0.35401366E+04</pdfrwt>
<totfact> 0.22493914E-01</totfact>
</mgrwt>
</event>
<event>
 6    1  0.2325157E-005  0.2582206E+04  0.7818608E-02  0.8374270E-01
          2   -1    0    0  501    0  0.00000000000E+00  0.00000000000E+00  0.24566137391E+04  0.24566137391E+04  0.00000000000E+00 0.  1.
         -2   -1    0    0    0  501 -0.00000000000E+00 -0.00000000000E+00 -0.67855498297E+03  0.67855498297E+03  0.00000000000E+00 0. -1.
         23    2    1    2    0    0 -0.10433051681E+03 -0.10988225825E+04  0.80711706858E+02  0.11105001244E+04  0.91652725361E+02 0.  0.
         11    1    3    3    0    0 -0.63849818849E+02 -0.40561560061E+03  0.66545580206E+02  0.41596770195E+03  0.00000000000E+00 0. -1.
        -11    1    3    3    0    0 -0.40480697956E+02 -0.69320698194E+03  0.14166126652E+02  0.69453242247E+03  0.00000000000E+00 0.  1.
         22    1    1    2    0    0  0.10433051681E+03  0.10988225825E+04  0.16973470493E+04  0.20246685977E+04  0.00000000000E+00 0.  1.
<mgrwt>
<rscale>  0 0.25822064E+04</rscale>
<asrwt>0</asrwt>
<pdfrwt beam="1">  1        2 0.37794057E+00 0.25822064E+04</pdfrwt>
<pdfrwt beam="2">  1       -2 0.10439308E+00 0.25822064E+04</pdfrwt>
<totfact> 0.24348995E+00</totfact>
</mgrwt>
</event>
<event>
 6    1  0.2350082E-005  0.3882897E+04  0.7818608E-02  0.8028596E-01
         -2   -1    0    0    0  501 -0.00000000000E+00  0.00000000000E+00  0.14477393036E+04  0.14477393036E+04  0.00000000000E+00 0. -1.
          2   -1    0    0  501    0  0.00000000000E+00 -0.00000000000E+00 -0.26035224433E+04  0.26035224433E+04  0.00000000000E+00 0.  1.
         23    2    1    2    0    0  0.29197220521E+03  0.77090957964E+02 -0.25780503494E+04  0.25972896701E+04  0.91538198023E+02 0.  0.
         13    1    3    3    0    0  0.14588716952E+03  0.60499057718E+02 -0.99869999321E+03  0.10111107153E+04  0.00000000000E+00 0.  1.
        -13    1    3    3    0    0  0.14608503570E+03  0.16591900246E+02 -0.15793503562E+04  0.15861789547E+04  0.00000000000E+00 0. -1.
         22    1    1    2    0    0 -0.29197220521E+03 -0.77090957964E+02  0.14222672097E+04  0.14539720768E+04  0.00000000000E+00 0. -1.
<mgrwt>
<rscale>  0 0.38828967E+04</rscale>
<asrwt>0</asrwt>
<pdfrwt beam="1">  1        2 0.40054191E+00 0.38828967E+04</pdfrwt>
<pdfrwt beam="2">  1       -2 0.22272913E+00 0.38828967E+04</pdfrwt>
<totfact> 0.22908487E-01</totfact>
</mgrwt>
</event>
<event>
 6    1  0.2325157E-005  0.1072266E+04  0.7818608E-02  0.9232653E-01
         -2   -1    0    0    0  501 -0.00000000000E+00  0.00000000000E+00  0.16473863859E+03  0.16473863859E+03  0.00000000000E+00 0. -1.
          2   -1    0    0  501    0  0.00000000000E+00 -0.00000000000E+00 -0.17448162233E+04  0.17448162233E+04  0.00000000000E+00 0.  1.
         23    2    1    2    0    0  0.49291363816E+03  0.19923329728E+03 -0.75643494202E+03  0.92922585371E+03  0.92785258864E+02 0.  0.
         11    1    3    3    0    0  0.10668411668E+03  0.86375651269E+02 -0.18728245605E+03  0.23220028473E+03  0.00000000000E+00 0. -1.
        -11    1    3    3    0    0  0.38622952148E+03  0.11285764601E+03 -0.56915248597E+03  0.69702556898E+03  0.00000000000E+00 0.  1.
         22    1    1    2    0    0 -0.49291363816E+03 -0.19923329728E+03 -0.82364264273E+03  0.98032900821E+03  0.00000000000E+00 0. -1.
<mgrwt>
<rscale>  0 0.10722661E+04</rscale>
<asrwt>0</asrwt>
<pdfrwt beam="1">  1        2 0.26843328E+00 0.10722661E+04</pdfrwt>
<pdfrwt beam="2">  1       -2 0.25344405E-01 0.10722661E+04</pdfrwt>
<totfact> 0.12890394E+02</totfact>
</mgrwt>
</event>
<event>
 6    1  0.2325157E-005  0.1753973E+04  0.7818608E-02  0.8731167E-01
         -2   -1    0    0    0  501 -0.00000000000E+00  0.00000000000E+00  0.33133627410E+03  0.33133627410E+03  0.00000000000E+00 0. -1.
          2   -1    0    0  501    0  0.00000000000E+00 -0.00000000000E+00 -0.23212223074E+04  0.23212223074E+04  0.00000000000E+00 0.  1.
         23    2    1    2    0    0  0.47579605846E+03  0.54023481749E+03 -0.24635389238E+03  0.76625535198E+03  0.90672360026E+02 0.  0.
         11    1    3    3    0    0  0.11587750065E+03  0.11459681089E+03 -0.18306722537E+02  0.16399743996E+03  0.00000000000E+00 0.  1.
        -11    1    3    3    0    0  0.35991855781E+03  0.42563800660E+03 -0.22804716984E+03  0.60225791202E+03  0.00000000000E+00 0. -1.
         22    1    1    2    0    0 -0.47579605846E+03 -0.54023481749E+03 -0.17435321409E+04  0.18863032295E+04  0.00000000000E+00 0.  1.
<mgrwt>
<rscale>  0 0.17539728E+04</rscale>
<asrwt>0</asrwt>
<pdfrwt beam="1">  1        2 0.35711112E+00 0.17539728E+04</pdfrwt>
<pdfrwt beam="2">  1       -2 0.50974812E-01 0.17539728E+04</pdfrwt>
<totfact> 0.15209014E+01</totfact>
</mgrwt>
</event>
<event>
 6    1  0.2325157E-005  0.3260681E+04  0.7818608E-02  0.8172973E-01
          2   -1    0    0  501    0  0.00000000000E+00  0.00000000000E+00  0.22226898301E+04  0.22226898301E+04  0.00000000000E+00 0. -1.
         -2   -1    0    0    0  501 -0.00000000000E+00 -0.00000000000E+00 -0.11958527020E+04  0.11958527020E+04  0.00000000000E+00 0.  1.
         23    2    1    2    0    0  0.95554626981E+03 -0.43185749581E+02 -0.86903199564E+03  0.12950422574E+04  0.83571264097E+02 0.  0.
         11    1    3    3    0    0  0.21173016377E+03 -0.77094575386E+00 -0.23937249416E+03  0.31957698222E+03  0.00000000000E+00 0.  1.
        -11    1    3    3    0    0  0.74381610604E+03 -0.42414803828E+02 -0.62965950149E+03  0.97546527514E+03  0.00000000000E+00 0. -1.
         22    1    1    2    0    0 -0.95554626981E+03  0.43185749581E+02  0.18958691237E+04  0.21235002747E+04  0.00000000000E+00 0. -1.
<mgrwt>
<rscale>  0 0.32606807E+04</rscale>
<asrwt>0</asrwt>
<pdfrwt beam="1">  1        2 0.34195228E+00 0.32606807E+04</pdfrwt>
<pdfrwt beam="2">  1       -2 0.18397734E+00 0.32606807E+04</pdfrwt>
<totfact> 0.71531053E-01</totfact>
</mgrwt>
</event>
<event>
 6    1  0.2325157E-005  0.2129985E+04  0.7818608E-02  0.8548149E-01
          2   -1    0    0  501    0  0.00000000000E+00  0.00000000000E+00  0.16772141157E+04  0.16772141157E+04  0.00000000000E+00 0.  1.
         -2   -1    0    0    0  501 -0.00000000000E+00 -0.00000000000E+00 -0.67624574507E+03  0.67624574507E+03  0.00000000000E+00 0. -1.
         23    2    1    2    0    0  0.45546635995E+03 -0.69609986707E+02  0.15598559456E+04  0.16291322575E+04  0.92877263691E+02 0.  0.
         11    1    3    3    0    0  0.31346803520E+03 -0.86391409372E+02  0.10138800958E+04  0.10647434120E+04  0.00000000000E+00 0.  1.
        -11    1    3    3    0    0  0.14199832475E+03  0.16781422665E+02  0.54597584978E+03  0.56438884550E+03  0.00000000000E+00 0. -1.
         22    1    1    2    0    0 -0.45546635995E+03  0.69609986707E+02 -0.55888757500E+03  0.72432760322E+03  0.00000000000E+00 0. -1.
<mgrwt>
<rscale>  0 0.21299849E+04</rscale>
<asrwt>0</asrwt>
<pdfrwt beam="1">  1        2 0.25803294E+00 0.21299849E+04</pdfrwt>
<pdfrwt beam="2">  1       -2 0.10403781E+00 0.21299849E+04</pdfrwt>
<totfact> 0.69765833E+00</totfact>
</mgrwt>
</event>
<event>
 6    1  0.2325157E-005  0.3188778E+04  0.7818608E-02  0.8191787E-01
         -1   -1    0    0    0  501 -0.00000000000E+00  0.00000000000E+00  0.11154708521E+04  0.11154708521E+04  0.00000000000E+00 0. -1.
          1   -1    0    0  501    0  0.00000000000E+00 -0.00000000000E+00 -0.22789262204E+04  0.22789262204E+04  0.00000000000E+00 0.  1.
         23    2    1    2    0    0  0.28830922599E+03 -0.14834427123E+04 -0.45861705204E+02  0.15148385908E+04  0.94383101732E+02 0.  0.
         11    1    3    3    0    0  0.82359145844E+02 -0.59811198089E+03  0.13795158639E+02  0.60391330254E+03  0.00000000000E+00 0.  1.
        -11    1    3    3    0    0  0.20595008015E+03 -0.88533073137E+03 -0.59656863843E+02  0.91092528827E+03  0.00000000000E+00 0. -1.
         22    1    1    2    0    0 -0.28830922599E+03  0.14834427123E+04 -0.11175936631E+04  0.18795584817E+04  0.00000000000E+00 0.  1.
<mgrwt>
<rscale>  0 0.31887777E+04</rscale>
<asrwt>0</asrwt>
<pdfrwt beam="1">  1        1 0.35060403E+00 0.31887777E+04</pdfrwt>
<pdfrwt beam="2">  1       -1 0.17161090E+00 0.31887777E+04</pdfrwt>
<totfact> 0.38578304E-01</totfact>
</mgrwt>
</event>
<event>
 6    1  0.2325157E-005  0.6535315E+03  0.7818608E-02  0.9800175E-01
          2   -1    0    0  501    0  0.00000000000E+00  0.00000000000E+00  0.14522308906E+04  0.14522308906E+04  0.00000000000E+00 0.  1.
         -2   -1    0    0    0  501 -0.00000000000E+00 -0.00000000000E+00 -0.73525400360E+02  0.73525400360E+02  0.00000000000E+00 0. -1.
         23    2    1    2    0    0 -0.26848112968E+03 -0.16004847598E+03  0.52652488098E+03  0.61806172644E+03  0.84108357151E+02 0.  0.
         13    1    3    3    0    0 -0.21560374459E+03 -0.12736131118E+03  0.47640946149E+03  0.53821171788E+03  0.00000000000E+00 0.  1.
        -13    1    3    3    0    0 -0.52877385092E+02 -0.32687164792E+02  0.50115419491E+02  0.79850008560E+02  0.00000000000E+00 0. -1.
         22    1    1    2    0    0  0.26848112968E+03  0.16004847598E+03  0.85218060925E+03  0.90769456450E+03  0.00000000000E+00 0.  1.
<mgrwt>
<rscale>  0 0.65353151E+03</rscale>
<asrwt>0</asrwt>
<pdfrwt beam="1">  1        2 0.22342012E+00 0.65353151E+03</pdfrwt>
<pdfrwt beam="2">  1       -2 0.11311601E-01 0.65353151E+03</pdfrwt>
<totfact> 0.77000448E+02</totfact>
</mgrwt>
</event>
<event>
 6    1  0.2325157E-005  0.4720217E+04  0.7818608E-02  0.7873178E-01
         -2   -1    0    0    0  501 -0.00000000000E+00  0.00000000000E+00  0.14288082833E+04  0.14288082833E+04  0.00000000000E+00 0. -1.
          2   -1    0    0  501    0  0.00000000000E+00 -0.00000000000E+00 -0.38984322192E+04  0.38984322192E+04  0.00000000000E+00 0.  1.
         23    2    1    2    0    0  0.19945606683E+04 -0.33821100665E+03  0.13460173892E+03  0.20295670332E+04  0.91464579811E+02 0.  0.
         11    1    3    3    0    0  0.50069009101E+03 -0.11354730364E+03  0.62272916831E+02  0.51716677539E+03  0.00000000000E+00 0. -1.
        -11    1    3    3    0    0  0.14938705773E+04 -0.22466370301E+03  0.72328822084E+02  0.15124002578E+04  0.00000000000E+00 0.  1.
         22    1    1    2    0    0 -0.19945606683E+04  0.33821100665E+03 -0.26042256749E+04  0.32976734693E+04  0.00000000000E+00 0.  1.
<mgrwt>
<rscale>  0 0.47202170E+04</rscale>
<asrwt>0</asrwt>
<pdfrwt beam="1">  1        2 0.59975879E+00 0.47202170E+04</pdfrwt>
<pdfrwt beam="2">  1       -2 0.21981666E+00 0.47202170E+04</pdfrwt>
<totfact> 0.30293244E-02</totfact>
</mgrwt>
</event>
<event>
 6    1  0.2325157E-005  0.1660696E+04  0.7818608E-02  0.8784104E-01
         -2   -1    0    0    0  501 -0.00000000000E+00  0.00000000000E+00  0.13030212928E+04  0.13030212928E+04  0.00000000000E+00 0. -1.
          2   -1    0    0  501    0  0.00000000000E+00 -0.00000000000E+00 -0.52913786133E+03  0.52913786133E+03  0.00000000000E+00 0.  1.
         23    2    1    2    0    0  0.46762174739E+02 -0.55904432094E+03  0.10596051030E+04  0.12025925354E+04  0.93533833833E+02 0.  0.
         13    1    3    3    0    0  0.11529625435E+02 -0.35568637723E+03  0.75479382515E+03  0.83448154545E+03  0.00000000000E+00 0. -1.
        -13    1    3    3    0    0  0.35232549304E+02 -0.20335794371E+03  0.30481127788E+03  0.36811098995E+03  0.00000000000E+00 0.  1.
         22    1    1    2    0    0 -0.46762174739E+02  0.55904432094E+03 -0.28572167160E+03  0.62956661870E+03  0.00000000000E+00 0.  1.
<mgrwt>
<rscale>  0 0.16606961E+04</rscale>
<asrwt>0</asrwt>
<pdfrwt beam="1">  1        2 0.81405825E-01 0.16606961E+04</pdfrwt>
<pdfrwt beam="2">  1       -2 0.20046481E+00 0.16606961E+04</pdfrwt>
<totfact> 0.72573121E+00</totfact>
</mgrwt>
</event>
<event>
 6    1  0.2325157E-005  0.1350807E+04  0.7818608E-02  0.8990217E-01
          2   -1    0    0  501    0  0.00000000000E+00  0.00000000000E+00  0.12511627918E+04  0.12511627918E+04  0.00000000000E+00 0.  1.
         -2   -1    0    0    0  501 -0.00000000000E+00 -0.00000000000E+00 -0.36459700433E+03  0.36459700433E+03  0.00000000000E+00 0. -1.
         23    2    1    2    0    0 -0.26164956728E+02 -0.62479917207E+03  0.14773898242E+03  0.64781162694E+03  0.82307269989E+02 0.  0.
         13    1    3    3    0    0 -0.35475225017E+02 -0.17968069477E+03  0.68836717693E+02  0.19565821569E+03  0.00000000000E+00 0.  1.
        -13    1    3    3    0    0  0.93102682883E+01 -0.44511847730E+03  0.78902264723E+02  0.45215341125E+03  0.00000000000E+00 0. -1.
         22    1    1    2    0    0  0.26164956728E+02  0.62479917207E+03  0.73882680507E+03  0.96794816920E+03  0.00000000000E+00 0.  1.
<mgrwt>
<rscale>  0 0.13508075E+04</rscale>
<asrwt>0</asrwt>
<pdfrwt beam="1">  1        2 0.19248658E+00 0.13508075E+04</pdfrwt>
<pdfrwt beam="2">  1       -2 0.56091847E-01 0.13508075E+04</pdfrwt>
<totfact> 0.51465897E+01</totfact>
</mgrwt>
</event>
<event>
 6    1  0.2325157E-005  0.2774868E+04  0.7818608E-02  0.8311113E-01
          2   -1    0    0  501    0  0.00000000000E+00  0.00000000000E+00  0.11130767820E+04  0.11130767820E+04  0.00000000000E+00 0.  1.
         -2   -1    0    0    0  501 -0.00000000000E+00 -0.00000000000E+00 -0.17294166621E+04  0.17294166621E+04  0.00000000000E+00 0. -1.
         23    2    1    2    0    0  0.12616560961E+04 -0.73715576258E+02 -0.89143544134E+03  0.15490918595E+04  0.88421446198E+02 0.  0.
         13    1    3    3    0    0  0.46476374907E+03 -0.46169774449E+02 -0.37647454244E+03  0.59989171658E+03  0.00000000000E+00 0.  1.
        -13    1    3    3    0    0  0.79689234706E+03 -0.27545801809E+02 -0.51496089890E+03  0.94920014296E+03  0.00000000000E+00 0. -1.
         22    1    1    2    0    0 -0.12616560961E+04  0.73715576258E+02  0.27509556129E+03  0.12934015845E+04  0.00000000000E+00 0.  1.
<mgrwt>
<rscale>  0 0.27748683E+04</rscale>
<asrwt>0</asrwt>
<pdfrwt beam="1">  1        2 0.17124258E+00 0.27748683E+04</pdfrwt>
<pdfrwt beam="2">  1       -2 0.26606410E+00 0.27748683E+04</pdfrwt>
<totfact> 0.95519775E-01</totfact>
</mgrwt>
</event>
<event>
 6    1  0.2325157E-005  0.2404352E+04  0.7818608E-02  0.8437876E-01
         -2   -1    0    0    0  501 -0.00000000000E+00  0.00000000000E+00  0.10682570110E+04  0.10682570110E+04  0.00000000000E+00 0.  1.
          2   -1    0    0  501    0  0.00000000000E+00 -0.00000000000E+00 -0.13528832362E+04  0.13528832362E+04  0.00000000000E+00 0. -1.
         23    2    1    2    0    0  0.19001838360E+03  0.86069949074E+03  0.67804264171E+03  0.11159038906E+04  0.92677232949E+02 0.  0.
         13    1    3    3    0    0  0.10684355767E+03  0.65066061077E+03  0.52777570577E+03  0.84458390455E+03  0.00000000000E+00 0. -1.
        -13    1    3    3    0    0  0.83174825932E+02  0.21003887997E+03  0.15026693594E+03  0.27131998600E+03  0.00000000000E+00 0.  1.
         22    1    1    2    0    0 -0.19001838360E+03 -0.86069949074E+03 -0.96266886693E+03  0.13052363567E+04  0.00000000000E+00 0. -1.
<mgrwt>
<rscale>  0 0.24043519E+04</rscale>
<asrwt>0</asrwt>
<pdfrwt beam="1">  1        2 0.20813588E+00 0.24043519E+04</pdfrwt>
<pdfrwt beam="2">  1       -2 0.16434723E+00 0.24043519E+04</pdfrwt>
<totfact> 0.32410940E+00</totfact>
</mgrwt>
</event>
<event>
 6    1  0.2325157E-005  0.7478654E+03  0.7818608E-02  0.9638705E-01
          1   -1    0    0  501    0  0.00000000000E+00  0.00000000000E+00  0.25576409724E+03  0.25576409724E+03  0.00000000000E+00 0.  1.
         -1   -1    0    0    0  501 -0.00000000000E+00 -0.00000000000E+00 -0.54669771300E+03  0.54669771300E+03  0.00000000000E+00 0. -1.
         23    2    1    2    0    0 -0.31265231677E+03 -0.18248653584E+03 -0.75879009958E+02  0.38139021251E+03  0.92994962762E+02 0.  0.
         13    1    3    3    0    0 -0.13420472334E+03 -0.11859652386E+03 -0.54271480081E+01  0.17918006913E+03  0.00000000000E+00 0.  1.
        -13    1    3    3    0    0 -0.17844759343E+03 -0.63890011982E+02 -0.70451861950E+02  0.20221014337E+03  0.00000000000E+00 0. -1.
         22    1    1    2    0    0  0.31265231677E+03  0.18248653584E+03 -0.21505460580E+03  0.42107159774E+03  0.00000000000E+00 0.  1.
<mgrwt>
<rscale>  0 0.74786535E+03</rscale>
<asrwt>0</asrwt>
<pdfrwt beam="1">  1        1 0.39348323E-01 0.74786535E+03</pdfrwt>
<pdfrwt beam="2">  1       -1 0.84107339E-01 0.74786535E+03</pdfrwt>
<totfact> 0.15335013E+02</totfact>
</mgrwt>
</event>
<event>
 6    1  0.2325157E-005  0.2374055E+04  0.7818608E-02  0.8449281E-01
         -2   -1    0    0    0  501 -0.00000000000E+00  0.00000000000E+00  0.78079289886E+03  0.78079289886E+03  0.00000000000E+00 0. -1.
          2   -1    0    0  501    0  0.00000000000E+00 -0.00000000000E+00 -0.18046200828E+04  0.18046200828E+04  0.00000000000E+00 0.  1.
         23    2    1    2    0    0 -0.97368141309E+03 -0.59563200340E+03 -0.16508136759E+03  0.11570302056E+04  0.92919649139E+02 0.  0.
         11    1    3    3    0    0 -0.75287857883E+03 -0.46429669883E+03 -0.16675903005E+03  0.90011452221E+03  0.00000000000E+00 0.  1.
        -11    1    3    3    0    0 -0.22080283426E+03 -0.13133530457E+03  0.16776624525E+01  0.25691568343E+03  0.00000000000E+00 0. -1.
         22    1    1    2    0    0  0.97368141309E+03  0.59563200340E+03 -0.85874581632E+03  0.14283827760E+04  0.00000000000E+00 0.  1.
<mgrwt>
<rscale>  0 0.23740552E+04</rscale>
<asrwt>0</asrwt>
<pdfrwt beam="1">  1        2 0.27763385E+00 0.23740552E+04</pdfrwt>
<pdfrwt beam="2">  1       -2 0.12012199E+00 0.23740552E+04</pdfrwt>
<totfact> 0.40946054E+00</totfact>
</mgrwt>
</event>
<event>
 6    1  0.2325157E-005  0.1456897E+04  0.7818608E-02  0.8913633E-01
         -2   -1    0    0    0  501 -0.00000000000E+00  0.00000000000E+00  0.88107621704E+03  0.88107621704E+03  0.00000000000E+00 0. -1.
          2   -1    0    0  501    0  0.00000000000E+00 -0.00000000000E+00 -0.60226029905E+03  0.60226029905E+03  0.00000000000E+00 0.  1.
         23    2    1    2    0    0 -0.37765399220E+03  0.28306039033E+01 -0.49064727977E+03  0.62618765921E+03  0.93518347175E+02 0.  0.
         11    1    3    3    0    0 -0.10697388475E+03  0.13627581892E+02 -0.80149262750E+02  0.13436155450E+03  0.00000000000E+00 0. -1.
        -11    1    3    3    0    0 -0.27068010745E+03 -0.10796977989E+02 -0.41049801702E+03  0.49182610472E+03  0.00000000000E+00 0.  1.
         22    1    1    2    0    0  0.37765399220E+03 -0.28306039033E+01  0.76946319776E+03  0.85714885688E+03  0.00000000000E+00 0. -1.
<mgrwt>
<rscale>  0 0.14568970E+04</rscale>
<asrwt>0</asrwt>
<pdfrwt beam="1">  1        2 0.92655430E-01 0.14568970E+04</pdfrwt>
<pdfrwt beam="2">  1       -2 0.13555019E+00 0.14568970E+04</pdfrwt>
<totfact> 0.18674113E+01</totfact>
</mgrwt>
</event>
<event>
 6    1  0.2325157E-005  0.8730158E+03  0.7818608E-02  0.9459956E-01
          2   -1    0    0  501    0  0.00000000000E+00  0.00000000000E+00  0.14709950375E+04  0.14709950375E+04  0.00000000000E+00 0.  1.
         -2   -1    0    0    0  501 -0.00000000000E+00 -0.00000000000E+00 -0.12953078129E+03  0.12953078129E+03  0.00000000000E+00 0. -1.
         23    2    1    2    0    0  0.15073133602E+03  0.34250272908E+03  0.28406388597E+03  0.47886473002E+03  0.92688096669E+02 0.  0.
         11    1    3    3    0    0  0.80934379780E+02  0.28114077789E+03  0.21359414505E+03  0.36223330827E+03  0.00000000000E+00 0.  1.
        -11    1    3    3    0    0  0.69796956240E+02  0.61361951183E+02  0.70469740921E+02  0.11663142175E+03  0.00000000000E+00 0. -1.
         22    1    1    2    0    0 -0.15073133602E+03 -0.34250272908E+03  0.10574003702E+04  0.11216610888E+04  0.00000000000E+00 0.  1.
<mgrwt>
<rscale>  0 0.87301578E+03</rscale>
<asrwt>0</asrwt>
<pdfrwt beam="1">  1        2 0.22630692E+00 0.87301578E+03</pdfrwt>
<pdfrwt beam="2">  1       -2 0.19927814E-01 0.87301578E+03</pdfrwt>
<totfact> 0.28462557E+02</totfact>
</mgrwt>
</event>
<event>
 6    1  0.2529142E-005  0.2586306E+04  0.7818608E-02  0.8372868E-01
          2   -1    0    0  501    0  0.00000000000E+00  0.00000000000E+00  0.11213965288E+04  0.11213965288E+04  0.00000000000E+00 0.  1.
         -2   -1    0    0    0  501 -0.00000000000E+00 -0.00000000000E+00 -0.14912158145E+04  0.14912158145E+04  0.00000000000E+00 0. -1.
         23    2    1    2    0    0  0.10602651862E+04 -0.73734279557E+03 -0.20194636562E+03  0.13102997923E+04  0.90920558103E+02 0.  0.
         13    1    3    3    0    0  0.58823540284E+03 -0.43843123778E+03 -0.15310713520E+03  0.74945622572E+03  0.00000000000E+00 0.  1.
        -13    1    3    3    0    0  0.47202978334E+03 -0.29891155778E+03 -0.48839230424E+02  0.56084356657E+03  0.00000000000E+00 0. -1.
         22    1    1    2    0    0 -0.10602651862E+04  0.73734279557E+03 -0.16787292011E+03  0.13023125510E+04  0.00000000000E+00 0.  1.
<mgrwt>
<rscale>  0 0.25863057E+04</rscale>
<asrwt>0</asrwt>
<pdfrwt beam="1">  1        2 0.17252254E+00 0.25863057E+04</pdfrwt>
<pdfrwt beam="2">  1       -2 0.22941782E+00 0.25863057E+04</pdfrwt>
<totfact> 0.16136155E+00</totfact>
</mgrwt>
</event>
<event>
 6    1  0.2325157E-005  0.1631417E+04  0.7818608E-02  0.8801476E-01
          2   -1    0    0  501    0  0.00000000000E+00  0.00000000000E+00  0.79609744816E+03  0.79609744816E+03  0.00000000000E+00 0.  1.
         -2   -1    0    0    0  501 -0.00000000000E+00 -0.00000000000E+00 -0.83580266053E+03  0.83580266053E+03  0.00000000000E+00 0. -1.
         23    2    1    2    0    0  0.24516667202E+03  0.45415942025E+03  0.60994265582E+03  0.80219544513E+03  0.71554264216E+02 0.  0.
         13    1    3    3    0    0  0.16750437731E+03  0.37191149335E+03  0.48118900141E+03  0.63080799803E+03  0.00000000000E+00 0. -1.
        -13    1    3    3    0    0  0.77662294707E+02  0.82247926903E+02  0.12875365442E+03  0.17138744710E+03  0.00000000000E+00 0.  1.
         22    1    1    2    0    0 -0.24516667202E+03 -0.45415942025E+03 -0.64964786819E+03  0.82970466355E+03  0.00000000000E+00 0. -1.
<mgrwt>
<rscale>  0 0.16314170E+04</rscale>
<asrwt>0</asrwt>
<pdfrwt beam="1">  1        2 0.12247653E+00 0.16314170E+04</pdfrwt>
<pdfrwt beam="2">  1       -2 0.12858502E+00 0.16314170E+04</pdfrwt>
<totfact> 0.14806730E+01</totfact>
</mgrwt>
</event>
<event>
 6    1  0.2325157E-005  0.1035494E+04  0.7818608E-02  0.9270450E-01
          2   -1    0    0  501    0  0.00000000000E+00  0.00000000000E+00  0.18214405174E+04  0.18214405174E+04  0.00000000000E+00 0.  1.
         -2   -1    0    0    0  501 -0.00000000000E+00 -0.00000000000E+00 -0.14717036711E+03  0.14717036711E+03  0.00000000000E+00 0. -1.
         23    2    1    2    0    0 -0.50982937845E+03  0.15680085091E+02  0.72718824086E+03  0.89290832182E+03  0.91162894527E+02 0.  0.
         13    1    3    3    0    0 -0.39081751385E+03  0.19885913285E+02  0.48634281232E+03  0.62423001351E+03  0.00000000000E+00 0. -1.
        -13    1    3    3    0    0 -0.11901186460E+03 -0.42058281942E+01  0.24084542854E+03  0.26867830831E+03  0.00000000000E+00 0.  1.
         22    1    1    2    0    0  0.50982937845E+03 -0.15680085091E+02  0.94708190944E+03  0.10757025627E+04  0.00000000000E+00 0. -1.
<mgrwt>
<rscale>  0 0.10354942E+04</rscale>
<asrwt>0</asrwt>
<pdfrwt beam="1">  1        2 0.28022160E+00 0.10354942E+04</pdfrwt>
<pdfrwt beam="2">  1       -2 0.22641596E-01 0.10354942E+04</pdfrwt>
<totfact> 0.14366327E+02</totfact>
</mgrwt>
</event>
<event>
 6    1  0.2325157E-005  0.1313905E+04  0.7818608E-02  0.9018611E-01
          2   -1    0    0  501    0  0.00000000000E+00  0.00000000000E+00  0.17350083869E+04  0.17350083869E+04  0.00000000000E+00 0.  1.
         -2   -1    0    0    0  501 -0.00000000000E+00 -0.00000000000E+00 -0.24875182084E+03  0.24875182084E+03  0.00000000000E+00 0. -1.
         23    2    1    2    0    0  0.52656848665E+03  0.32618922500E+03  0.43090872972E+03  0.76006382492E+03  0.91328544097E+02 0.  0.
         11    1    3    3    0    0  0.29574537936E+03  0.13673426271E+03  0.19709087396E+03  0.38079705961E+03  0.00000000000E+00 0. -1.
        -11    1    3    3    0    0  0.23082310729E+03  0.18945496229E+03  0.23381785576E+03  0.37926676531E+03  0.00000000000E+00 0.  1.
         22    1    1    2    0    0 -0.52656848665E+03 -0.32618922500E+03  0.10553478363E+04  0.12236963828E+04  0.00000000000E+00 0.  1.
<mgrwt>
<rscale>  0 0.13139049E+04</rscale>
<asrwt>0</asrwt>
<pdfrwt beam="1">  1        2 0.26692436E+00 0.13139049E+04</pdfrwt>
<pdfrwt beam="2">  1       -2 0.38269512E-01 0.13139049E+04</pdfrwt>
<totfact> 0.59199307E+01</totfact>
</mgrwt>
</event>
<event>
 6    1  0.2325157E-005  0.4827752E+04  0.7818608E-02  0.7855642E-01
         -2   -1    0    0    0  501 -0.00000000000E+00  0.00000000000E+00  0.24325746937E+04  0.24325746937E+04  0.00000000000E+00 0. -1.
          2   -1    0    0  501    0  0.00000000000E+00 -0.00000000000E+00 -0.23953212052E+04  0.23953212052E+04  0.00000000000E+00 0.  1.
         23    2    1    2    0    0 -0.59793313312E+03 -0.12556566453E+04  0.19905923423E+04  0.24300363700E+04  0.91767335110E+02 0.  0.
         11    1    3    3    0    0 -0.41915488897E+03 -0.79458757136E+03  0.12417834026E+04  0.15326729098E+04  0.00000000000E+00 0.  1.
        -11    1    3    3    0    0 -0.17877824416E+03 -0.46106907393E+03  0.74880893968E+03  0.89736346018E+03  0.00000000000E+00 0. -1.
         22    1    1    2    0    0  0.59793313312E+03  0.12556566453E+04 -0.19533388538E+04  0.23978595289E+04  0.00000000000E+00 0.  1.
<mgrwt>
<rscale>  0 0.48277522E+04</rscale>
<asrwt>0</asrwt>
<pdfrwt beam="1">  1        2 0.36851096E+00 0.48277522E+04</pdfrwt>
<pdfrwt beam="2">  1       -2 0.37424226E+00 0.48277522E+04</pdfrwt>
<totfact> 0.32200264E-02</totfact>
</mgrwt>
</event>
<event>
 6    1  0.2325157E-005  0.2406200E+04  0.7818608E-02  0.8437186E-01
          2   -1    0    0  501    0  0.00000000000E+00  0.00000000000E+00  0.26321117277E+04  0.26321117277E+04  0.00000000000E+00 0.  1.
         -2   -1    0    0    0  501 -0.00000000000E+00 -0.00000000000E+00 -0.54991952598E+03  0.54991952598E+03  0.00000000000E+00 0. -1.
         23    2    1    2    0    0 -0.11043805765E+04  0.27840309522E+03  0.53610184398E+03  0.12617291588E+04  0.85968261240E+02 0.  0.
         11    1    3    3    0    0 -0.97249148411E+03  0.21633000076E+03  0.47428458721E+03  0.11033966764E+04  0.00000000000E+00 0. -1.
        -11    1    3    3    0    0 -0.13188909240E+03  0.62073094463E+02  0.61817256770E+02  0.15833248240E+03  0.00000000000E+00 0.  1.
         22    1    1    2    0    0  0.11043805765E+04 -0.27840309522E+03  0.15460903577E+04  0.19203020948E+04  0.00000000000E+00 0.  1.
<mgrwt>
<rscale>  0 0.24062000E+04</rscale>
<asrwt>0</asrwt>
<pdfrwt beam="1">  1        2 0.40494026E+00 0.24062000E+04</pdfrwt>
<pdfrwt beam="2">  1       -2 0.84603005E-01 0.24062000E+04</pdfrwt>
<totfact> 0.31888992E+00</totfact>
</mgrwt>
</event>
<event>
 6    1  0.2325157E-005  0.3312375E+04  0.7818608E-02  0.8159754E-01
         -2   -1    0    0    0  501 -0.00000000000E+00  0.00000000000E+00  0.13442513245E+04  0.13442513245E+04  0.00000000000E+00 0. -1.
          2   -1    0    0  501    0  0.00000000000E+00 -0.00000000000E+00 -0.20405087450E+04  0.20405087450E+04  0.00000000000E+00 0.  1.
         23    2    1    2    0    0  0.49555160768E+03 -0.84218865267E+03  0.10164444867E+04  0.14129079084E+04  0.91083701457E+02 0.  0.
         13    1    3    3    0    0  0.68368064045E+01 -0.50847112728E+02  0.54499968006E+02  0.74849297306E+02  0.00000000000E+00 0. -1.
        -13    1    3    3    0    0  0.48871480127E+03 -0.79134153994E+03  0.96194451865E+03  0.13380586111E+04  0.00000000000E+00 0.  1.
         22    1    1    2    0    0 -0.49555160768E+03  0.84218865267E+03 -0.17127019071E+04  0.19718521611E+04  0.00000000000E+00 0.  1.
<mgrwt>
<rscale>  0 0.33123747E+04</rscale>
<asrwt>0</asrwt>
<pdfrwt beam="1">  1        2 0.31392442E+00 0.33123747E+04</pdfrwt>
<pdfrwt beam="2">  1       -2 0.20680790E+00 0.33123747E+04</pdfrwt>
<totfact> 0.63550778E-01</totfact>
</mgrwt>
</event>
<event>
 6    1  0.2325157E-005  0.2431661E+04  0.7818608E-02  0.8427744E-01
          2   -1    0    0  501    0  0.00000000000E+00  0.00000000000E+00  0.27932149912E+04  0.27932149912E+04  0.00000000000E+00 0.  1.
         -2   -1    0    0    0  501 -0.00000000000E+00 -0.00000000000E+00 -0.52922685072E+03  0.52922685072E+03  0.00000000000E+00 0. -1.
         23    2    1    2    0    0 -0.30421159744E+03 -0.83606831553E+03  0.22621540373E+04  0.24327462265E+04  0.96738770088E+02 0.  0.
         11    1    3    3    0    0 -0.10251039060E+03 -0.16938774923E+03  0.47028890456E+03  0.51026683561E+03  0.00000000000E+00 0. -1.
        -11    1    3    3    0    0 -0.20170120684E+03 -0.66668056630E+03  0.17918651328E+04  0.19224793909E+04  0.00000000000E+00 0.  1.
         22    1    1    2    0    0  0.30421159744E+03  0.83606831553E+03  0.18341031763E+01  0.88969561546E+03  0.00000000000E+00 0. -1.
<mgrwt>
<rscale>  0 0.24316615E+04</rscale>
<asrwt>0</asrwt>
<pdfrwt beam="1">  1        2 0.42972538E+00 0.24316615E+04</pdfrwt>
<pdfrwt beam="2">  1       -2 0.81419517E-01 0.24316615E+04</pdfrwt>
<totfact> 0.27817530E+00</totfact>
</mgrwt>
</event>
<event>
 6    1  0.2325157E-005  0.3666182E+04  0.7818608E-02  0.8075498E-01
         -2   -1    0    0    0  501 -0.00000000000E+00  0.00000000000E+00  0.13759054753E+04  0.13759054753E+04  0.00000000000E+00 0. -1.
          2   -1    0    0  501    0  0.00000000000E+00 -0.00000000000E+00 -0.24421894073E+04  0.24421894073E+04  0.00000000000E+00 0.  1.
         23    2    1    2    0    0 -0.74408216379E+03  0.70864688873E+03  0.10459206492E+04  0.14692128352E+04  0.93795902717E+02 0.  0.
         11    1    3    3    0    0 -0.28269209403E+03  0.25283780296E+03  0.44920033012E+03  0.58789685423E+03  0.00000000000E+00 0. -1.
        -11    1    3    3    0    0 -0.46139006976E+03  0.45580908576E+03  0.59672031909E+03  0.88131598099E+03  0.00000000000E+00 0.  1.
         22    1    1    2    0    0  0.74408216379E+03 -0.70864688873E+03 -0.21122045812E+04  0.23488820473E+04  0.00000000000E+00 0.  1.
<mgrwt>
<rscale>  0 0.36661815E+04</rscale>
<asrwt>0</asrwt>
<pdfrwt beam="1">  1        2 0.37572144E+00 0.36661815E+04</pdfrwt>
<pdfrwt beam="2">  1       -2 0.21167777E+00 0.36661815E+04</pdfrwt>
<totfact> 0.34040189E-01</totfact>
</mgrwt>
</event>
<event>
 6    1  0.2325157E-005  0.3355026E+04  0.7818608E-02  0.8149033E-01
          2   -1    0    0  501    0  0.00000000000E+00  0.00000000000E+00  0.14721204488E+04  0.14721204488E+04  0.00000000000E+00 0.  1.
         -2   -1    0    0    0  501 -0.00000000000E+00 -0.00000000000E+00 -0.19115628107E+04  0.19115628107E+04  0.00000000000E+00 0. -1.
         23    2    1    2    0    0 -0.12860297105E+04  0.14041445863E+03 -0.12950300069E+04  0.18326775037E+04  0.89529197035E+02 0.  0.
         11    1    3    3    0    0 -0.78353225842E+03  0.44862444984E+02 -0.76035442495E+03  0.10927370637E+04  0.00000000000E+00 0.  1.
        -11    1    3    3    0    0 -0.50249745206E+03  0.95552013642E+02 -0.53467558199E+03  0.73994043991E+03  0.00000000000E+00 0. -1.
         22    1    1    2    0    0  0.12860297105E+04 -0.14041445863E+03  0.85558764500E+03  0.15510057559E+04  0.00000000000E+00 0.  1.
<mgrwt>
<rscale>  0 0.33550265E+04</rscale>
<asrwt>0</asrwt>
<pdfrwt beam="1">  1        2 0.22648007E+00 0.33550265E+04</pdfrwt>
<pdfrwt beam="2">  1       -2 0.29408659E+00 0.33550265E+04</pdfrwt>
<totfact> 0.37807040E-01</totfact>
</mgrwt>
</event>
<event>
 6    1  0.2325157E-005  0.2254281E+04  0.7818608E-02  0.8496169E-01
         -2   -1    0    0    0  501 -0.00000000000E+00  0.00000000000E+00  0.70447565233E+03  0.70447565233E+03  0.00000000000E+00 0. -1.
          2   -1    0    0  501    0  0.00000000000E+00 -0.00000000000E+00 -0.18033918619E+04  0.18033918619E+04  0.00000000000E+00 0.  1.
         23    2    1    2    0    0 -0.90515612737E+03 -0.66705530885E+03 -0.60083313366E+03  0.12780882045E+04  0.90766756601E+02 0.  0.
         13    1    3    3    0    0 -0.15330229883E+03 -0.15637995517E+03 -0.12575686331E+03  0.25252935251E+03  0.00000000000E+00 0. -1.
        -13    1    3    3    0    0 -0.75185382854E+03 -0.51067535368E+03 -0.47507627035E+03  0.10255588520E+04  0.00000000000E+00 0.  1.
         22    1    1    2    0    0  0.90515612737E+03  0.66705530885E+03 -0.49808307590E+03  0.12297793097E+04  0.00000000000E+00 0. -1.
<mgrwt>
<rscale>  0 0.22542810E+04</rscale>
<asrwt>0</asrwt>
<pdfrwt beam="1">  1        2 0.27744490E+00 0.22542810E+04</pdfrwt>
<pdfrwt beam="2">  1       -2 0.10838087E+00 0.22542810E+04</pdfrwt>
<totfact> 0.53246166E+00</totfact>
</mgrwt>
</event>
<event>
 6    1  0.2325157E-005  0.2575603E+04  0.7818608E-02  0.8376536E-01
         -2   -1    0    0    0  501 -0.00000000000E+00  0.00000000000E+00  0.11438218060E+04  0.11438218060E+04  0.00000000000E+00 0. -1.
          2   -1    0    0  501    0  0.00000000000E+00 -0.00000000000E+00 -0.14499052897E+04  0.14499052897E+04  0.00000000000E+00 0.  1.
         23    2    1    2    0    0  0.60476689123E+03  0.11354003156E+04 -0.14999504784E+03  0.12978719845E+04  0.84239565777E+02 0.  0.
         11    1    3    3    0    0  0.35272038107E+03  0.74804180793E+03 -0.97940616222E+02  0.83280884838E+03  0.00000000000E+00 0.  1.
        -11    1    3    3    0    0  0.25204651016E+03  0.38735850766E+03 -0.52054431618E+02  0.46506313613E+03  0.00000000000E+00 0. -1.
         22    1    1    2    0    0 -0.60476689123E+03 -0.11354003156E+04 -0.15608843584E+03  0.12958551112E+04  0.00000000000E+00 0.  1.
<mgrwt>
<rscale>  0 0.25756035E+04</rscale>
<asrwt>0</asrwt>
<pdfrwt beam="1">  1        2 0.22306235E+00 0.25756035E+04</pdfrwt>
<pdfrwt beam="2">  1       -2 0.17597259E+00 0.25756035E+04</pdfrwt>
<totfact> 0.23235355E+00</totfact>
</mgrwt>
</event>
<event>
 6    1  0.2325157E-005  0.2567625E+04  0.7818608E-02  0.8379282E-01
         -2   -1    0    0    0  501 -0.00000000000E+00  0.00000000000E+00  0.55619007378E+03  0.55619007378E+03  0.00000000000E+00 0.  1.
          2   -1    0    0  501    0  0.00000000000E+00 -0.00000000000E+00 -0.29633305830E+04  0.29633305830E+04  0.00000000000E+00 0. -1.
         23    2    1    2    0    0  0.70603062700E+03  0.47427533250E+02  0.26072069121E+03  0.75940978909E+03  0.89438983560E+02 0.  0.
         13    1    3    3    0    0  0.23655514144E+03  0.17232128312E+02  0.13303576853E+03  0.27194447392E+03  0.00000000000E+00 0.  1.
        -13    1    3    3    0    0  0.46947548556E+03  0.30195404937E+02  0.12768492268E+03  0.48746531517E+03  0.00000000000E+00 0. -1.
         22    1    1    2    0    0 -0.70603062700E+03 -0.47427533250E+02 -0.26678612004E+04  0.27601108677E+04  0.00000000000E+00 0. -1.
<mgrwt>
<rscale>  0 0.25676254E+04</rscale>
<asrwt>0</asrwt>
<pdfrwt beam="1">  1        2 0.45589702E+00 0.25676254E+04</pdfrwt>
<pdfrwt beam="2">  1       -2 0.85567702E-01 0.25676254E+04</pdfrwt>
<totfact> 0.19319255E+00</totfact>
</mgrwt>
</event>
<event>
 6    1  0.2325157E-005  0.5123151E+04  0.7818608E-02  0.7809786E-01
         -2   -1    0    0    0  501 -0.00000000000E+00  0.00000000000E+00  0.28338139231E+04  0.28338139231E+04  0.00000000000E+00 0. -1.
          2   -1    0    0  501    0  0.00000000000E+00 -0.00000000000E+00 -0.23154907858E+04  0.23154907858E+04  0.00000000000E+00 0.  1.
         23    2    1    2    0    0  0.11541107800E+04  0.44071783370E+03 -0.19952598852E+04  0.23485363300E+04  0.91416534246E+02 0.  0.
         13    1    3    3    0    0  0.30711451565E+03  0.77518479462E+02 -0.48328338287E+03  0.57783325323E+03  0.00000000000E+00 0.  1.
        -13    1    3    3    0    0  0.84699626432E+03  0.36319935423E+03 -0.15119765023E+04  0.17707030768E+04  0.00000000000E+00 0. -1.
         22    1    1    2    0    0 -0.11541107800E+04 -0.44071783370E+03  0.25135830225E+04  0.28007683789E+04  0.00000000000E+00 0. -1.
<mgrwt>
<rscale>  0 0.51231514E+04</rscale>
<asrwt>0</asrwt>
<pdfrwt beam="1">  1        2 0.35622935E+00 0.51231514E+04</pdfrwt>
<pdfrwt beam="2">  1       -2 0.43597138E+00 0.51231514E+04</pdfrwt>
<totfact> 0.13798764E-02</totfact>
</mgrwt>
</event>
<event>
 6    1  0.2325157E-005  0.3000585E+04  0.7818608E-02  0.8243564E-01
          2   -1    0    0  501    0  0.00000000000E+00  0.00000000000E+00  0.25146830881E+04  0.25146830881E+04  0.00000000000E+00 0.  1.
         -2   -1    0    0    0  501 -0.00000000000E+00 -0.00000000000E+00 -0.89509415259E+03  0.89509415259E+03  0.00000000000E+00 0. -1.
         23    2    1    2    0    0  0.24660011580E+03 -0.13490051558E+04  0.14982071810E+04  0.20330564782E+04  0.89818476040E+02 0.  0.
         11    1    3    3    0    0  0.46683231815E+02 -0.37933903451E+03  0.46787761469E+03  0.60414144831E+03  0.00000000000E+00 0.  1.
        -11    1    3    3    0    0  0.19991688398E+03 -0.96966612133E+03  0.10303295663E+04  0.14289150299E+04  0.00000000000E+00 0. -1.
         22    1    1    2    0    0 -0.24660011580E+03  0.13490051558E+04  0.12138175450E+03  0.13767207625E+04  0.00000000000E+00 0. -1.
<mgrwt>
<rscale>  0 0.30005854E+04</rscale>
<asrwt>0</asrwt>
<pdfrwt beam="1">  1        2 0.38687432E+00 0.30005854E+04</pdfrwt>
<pdfrwt beam="2">  1       -2 0.13770679E+00 0.30005854E+04</pdfrwt>
<totfact> 0.10951136E+00</totfact>
</mgrwt>
</event>
<event>
 6    1  0.2325157E-005  0.5192129E+03  0.7818608E-02  0.1008882E+00
         -2   -1    0    0    0  501 -0.00000000000E+00  0.00000000000E+00  0.30866425076E+02  0.30866425076E+02  0.00000000000E+00 0. -1.
          2   -1    0    0  501    0  0.00000000000E+00 -0.00000000000E+00 -0.21834569721E+04  0.21834569721E+04  0.00000000000E+00 0.  1.
         23    2    1    2    0    0  0.14575948293E+03 -0.95665931162E+02 -0.18827450454E+04  0.18930534297E+04  0.92328676328E+02 0.  0.
         11    1    3    3    0    0  0.13559418427E+03 -0.40961483416E+02 -0.13497765464E+04  0.13571883992E+04  0.00000000000E+00 0.  1.
        -11    1    3    3    0    0  0.10165298662E+02 -0.54704447745E+02 -0.53296849908E+03  0.53586503049E+03  0.00000000000E+00 0. -1.
         22    1    1    2    0    0 -0.14575948293E+03  0.95665931162E+02 -0.26984550156E+03  0.32126996741E+03  0.00000000000E+00 0. -1.
<mgrwt>
<rscale>  0 0.51921291E+03</rscale>
<asrwt>0</asrwt>
<pdfrwt beam="1">  1        2 0.33591646E+00 0.51921291E+03</pdfrwt>
<pdfrwt beam="2">  1       -2 0.47486808E-02 0.51921291E+03</pdfrwt>
<totfact> 0.12313349E+03</totfact>
</mgrwt>
</event>
<event>
 6    1  0.2325157E-005  0.1303405E+04  0.7818608E-02  0.9026869E-01
         -2   -1    0    0    0  501 -0.00000000000E+00  0.00000000000E+00  0.50452923353E+03  0.50452923353E+03  0.00000000000E+00 0. -1.
          2   -1    0    0  501    0  0.00000000000E+00 -0.00000000000E+00 -0.84180701692E+03  0.84180701692E+03  0.00000000000E+00 0.  1.
         23    2    1    2    0    0 -0.77660255015E+02  0.61148856651E+03  0.38681009576E+02  0.62432905090E+03  0.91329957408E+02 0.  0.
         13    1    3    3    0    0 -0.16954383932E+02  0.30073718024E+03  0.59441604680E+02  0.30702378912E+03  0.00000000000E+00 0. -1.
        -13    1    3    3    0    0 -0.60705871083E+02  0.31075138627E+03 -0.20760595105E+02  0.31730526179E+03  0.00000000000E+00 0.  1.
         22    1    1    2    0    0  0.77660255015E+02 -0.61148856651E+03 -0.37595879297E+03  0.72200719954E+03  0.00000000000E+00 0. -1.
<mgrwt>
<rscale>  0 0.13034052E+04</rscale>
<asrwt>0</asrwt>
<pdfrwt beam="1">  1        2 0.12950877E+00 0.13034052E+04</pdfrwt>
<pdfrwt beam="2">  1       -2 0.77619883E-01 0.13034052E+04</pdfrwt>
<totfact> 0.46637664E+01</totfact>
</mgrwt>
</event>
<event>
 6    1  0.2325157E-005  0.9152228E+03  0.7818608E-02  0.9406750E-01
          2   -1    0    0  501    0  0.00000000000E+00  0.00000000000E+00  0.87647411121E+03  0.87647411121E+03  0.00000000000E+00 0.  1.
         -2   -1    0    0    0  501 -0.00000000000E+00 -0.00000000000E+00 -0.23892112156E+03  0.23892112156E+03  0.00000000000E+00 0. -1.
         23    2    1    2    0    0 -0.30148187234E+03  0.27686824102E+03  0.84968352502E+02  0.42772007439E+03  0.90429524345E+02 0.  0.
         11    1    3    3    0    0 -0.17084053902E+03  0.11753351807E+03  0.78020031846E+02  0.22155753883E+03  0.00000000000E+00 0. -1.
        -11    1    3    3    0    0 -0.13064133332E+03  0.15933472294E+03  0.69483206556E+01  0.20616253556E+03  0.00000000000E+00 0.  1.
         22    1    1    2    0    0  0.30148187234E+03 -0.27686824102E+03  0.55258463715E+03  0.68767515838E+03  0.00000000000E+00 0.  1.
<mgrwt>
<rscale>  0 0.91522277E+03</rscale>
<asrwt>0</asrwt>
<pdfrwt beam="1">  1        2 0.13484217E+00 0.91522277E+03</pdfrwt>
<pdfrwt beam="2">  1       -2 0.36757096E-01 0.91522277E+03</pdfrwt>
<totfact> 0.21238260E+02</totfact>
</mgrwt>
</event>
<event>
 6    1  0.2325157E-005  0.5040854E+04  0.7818608E-02  0.7822236E-01
          2   -1    0    0  501    0  0.00000000000E+00  0.00000000000E+00  0.29724585814E+04  0.29724585814E+04  0.00000000000E+00 0.  1.
         -2   -1    0    0    0  501 -0.00000000000E+00 -0.00000000000E+00 -0.21371376537E+04  0.21371376537E+04  0.00000000000E+00 0. -1.
         23    2    1    2    0    0  0.47788257558E+03 -0.57967682142E+03  0.28555824408E+04  0.29541720183E+04  0.91565625727E+02 0.  0.
         11    1    3    3    0    0  0.45698483185E+03 -0.52165709120E+03  0.25637076808E+04  0.26558535973E+04  0.00000000000E+00 0.  1.
        -11    1    3    3    0    0  0.20897743732E+02 -0.58019730224E+02  0.29187475999E+03  0.29831842100E+03  0.00000000000E+00 0. -1.
         22    1    1    2    0    0 -0.47788257558E+03  0.57967682142E+03 -0.20202615131E+04  0.21554242169E+04  0.00000000000E+00 0. -1.
<mgrwt>
<rscale>  0 0.50408544E+04</rscale>
<asrwt>0</asrwt>
<pdfrwt beam="1">  1        2 0.45730132E+00 0.50408544E+04</pdfrwt>
<pdfrwt beam="2">  1       -2 0.32879041E+00 0.50408544E+04</pdfrwt>
<totfact> 0.27755317E-02</totfact>
</mgrwt>
</event>
<event>
 6    1  0.2325157E-005  0.4450481E+04  0.7818608E-02  0.7919364E-01
          2   -1    0    0  501    0  0.00000000000E+00  0.00000000000E+00  0.34575278583E+04  0.34575278583E+04  0.00000000000E+00 0.  1.
         -2   -1    0    0    0  501 -0.00000000000E+00 -0.00000000000E+00 -0.14321492578E+04  0.14321492578E+04  0.00000000000E+00 0. -1.
         23    2    1    2    0    0 -0.14997658275E+04 -0.11857006546E+04  0.22621807784E+04  0.29632143338E+04  0.89407684802E+02 0.  0.
         13    1    3    3    0    0 -0.99867230596E+03 -0.78701696001E+03  0.14384184174E+04  0.19198410386E+04  0.00000000000E+00 0. -1.
        -13    1    3    3    0    0 -0.50109352157E+03 -0.39868369461E+03  0.82376236106E+03  0.10433732952E+04  0.00000000000E+00 0.  1.
         22    1    1    2    0    0  0.14997658275E+04  0.11857006546E+04 -0.23680217796E+03  0.19264627822E+04  0.00000000000E+00 0. -1.
<mgrwt>
<rscale>  0 0.44504813E+04</rscale>
<asrwt>0</asrwt>
<pdfrwt beam="1">  1        2 0.53192736E+00 0.44504813E+04</pdfrwt>
<pdfrwt beam="2">  1       -2 0.22033066E+00 0.44504813E+04</pdfrwt>
<totfact> 0.65008605E-02</totfact>
</mgrwt>
</event>
<event>
 6    1  0.2325157E-005  0.2671938E+04  0.7818608E-02  0.8344168E-01
         -2   -1    0    0    0  501 -0.00000000000E+00  0.00000000000E+00  0.63128060679E+03  0.63128060679E+03  0.00000000000E+00 0. -1.
          2   -1    0    0  501    0  0.00000000000E+00 -0.00000000000E+00 -0.28272895552E+04  0.28272895552E+04  0.00000000000E+00 0.  1.
         23    2    1    2    0    0  0.12934989092E+04  0.27025217833E+03 -0.85896706071E+03  0.15787146682E+04  0.91323184661E+02 0.  0.
         13    1    3    3    0    0  0.12011227055E+04  0.22619161248E+03 -0.79230293142E+03  0.14565721178E+04  0.00000000000E+00 0.  1.
        -13    1    3    3    0    0  0.92376203797E+02  0.44060565851E+02 -0.66664129285E+02  0.12214255043E+03  0.00000000000E+00 0. -1.
         22    1    1    2    0    0 -0.12934989092E+04 -0.27025217833E+03 -0.13370418877E+04  0.18798554938E+04  0.00000000000E+00 0. -1.
<mgrwt>
<rscale>  0 0.26719379E+04</rscale>
<asrwt>0</asrwt>
<pdfrwt beam="1">  1        2 0.43496762E+00 0.26719379E+04</pdfrwt>
<pdfrwt beam="2">  1       -2 0.97120095E-01 0.26719379E+04</pdfrwt>
<totfact> 0.17316578E+00</totfact>
</mgrwt>
</event>
<event>
 6    1  0.2325157E-005  0.2218688E+04  0.7818608E-02  0.8510690E-01
         -1   -1    0    0    0  501 -0.00000000000E+00  0.00000000000E+00  0.43492754332E+03  0.43492754332E+03  0.00000000000E+00 0. -1.
          1   -1    0    0  501    0  0.00000000000E+00 -0.00000000000E+00 -0.28295394479E+04  0.28295394479E+04  0.00000000000E+00 0.  1.
         23    2    1    2    0    0  0.12792972302E+03 -0.10244617224E+04 -0.60968621202E+03  0.12024661273E+04  0.91212255974E+02 0.  0.
         11    1    3    3    0    0  0.62967733510E+02 -0.74974889616E+03 -0.47410898120E+03  0.88930740962E+03  0.00000000000E+00 0. -1.
        -11    1    3    3    0    0  0.64961989506E+02 -0.27471282622E+03 -0.13557723082E+03  0.31315871772E+03  0.00000000000E+00 0.  1.
         22    1    1    2    0    0 -0.12792972302E+03  0.10244617224E+04 -0.17849256925E+04  0.20620008638E+04  0.00000000000E+00 0.  1.
<mgrwt>
<rscale>  0 0.22186885E+04</rscale>
<asrwt>0</asrwt>
<pdfrwt beam="1">  1        1 0.43531375E+00 0.22186885E+04</pdfrwt>
<pdfrwt beam="2">  1       -1 0.66911931E-01 0.22186885E+04</pdfrwt>
<totfact> 0.16357836E+00</totfact>
</mgrwt>
</event>
<event>
 6    1  0.2325157E-005  0.2472732E+04  0.7818608E-02  0.8412765E-01
          2   -1    0    0  501    0  0.00000000000E+00  0.00000000000E+00  0.18952939729E+04  0.18952939729E+04  0.00000000000E+00 0.  1.
         -2   -1    0    0    0  501 -0.00000000000E+00 -0.00000000000E+00 -0.80652429103E+03  0.80652429103E+03  0.00000000000E+00 0. -1.
         23    2    1    2    0    0 -0.68026784286E+03 -0.54760204794E+03 -0.40856525583E+03  0.96842729343E+03  0.91068729298E+02 0.  0.
         11    1    3    3    0    0 -0.89963932828E+02 -0.81796966326E+02 -0.24361433995E+02  0.12400698519E+03  0.00000000000E+00 0. -1.
        -11    1    3    3    0    0 -0.59030391003E+03 -0.46580508161E+03 -0.38420382184E+03  0.84442030824E+03  0.00000000000E+00 0.  1.
         22    1    1    2    0    0  0.68026784286E+03  0.54760204794E+03  0.14973349377E+04  0.17333909705E+04  0.00000000000E+00 0.  1.
<mgrwt>
<rscale>  0 0.24727318E+04</rscale>
<asrwt>0</asrwt>
<pdfrwt beam="1">  1        2 0.29158369E+00 0.24727318E+04</pdfrwt>
<pdfrwt beam="2">  1       -2 0.12408066E+00 0.24727318E+04</pdfrwt>
<totfact> 0.33356045E+00</totfact>
</mgrwt>
</event>
<event>
 6    1  0.2325157E-005  0.2549345E+04  0.7818608E-02  0.8385614E-01
          2   -1    0    0  501    0  0.00000000000E+00  0.00000000000E+00  0.13114078659E+04  0.13114078659E+04  0.00000000000E+00 0.  1.
         -2   -1    0    0    0  501 -0.00000000000E+00 -0.00000000000E+00 -0.12389665999E+04  0.12389665999E+04  0.00000000000E+00 0. -1.
         23    2    1    2    0    0 -0.11188960834E+04  0.33449152020E+03 -0.47078449644E+03  0.12623887315E+04  0.90411529794E+02 0.  0.
         13    1    3    3    0    0 -0.32289465993E+03  0.13689448765E+03 -0.12517881007E+03  0.37238527985E+03  0.00000000000E+00 0. -1.
        -13    1    3    3    0    0 -0.79600142351E+03  0.19759703255E+03 -0.34560568636E+03  0.89000345165E+03  0.00000000000E+00 0.  1.
         22    1    1    2    0    0  0.11188960834E+04 -0.33449152020E+03  0.54322576243E+03  0.12879857342E+04  0.00000000000E+00 0.  1.
<mgrwt>
<rscale>  0 0.25493454E+04</rscale>
<asrwt>0</asrwt>
<pdfrwt beam="1">  1        2 0.20175506E+00 0.25493454E+04</pdfrwt>
<pdfrwt beam="2">  1       -2 0.19061025E+00 0.25493454E+04</pdfrwt>
<totfact> 0.22205538E+00</totfact>
</mgrwt>
</event>
<event>
 6    1  0.2325157E-005  0.1178782E+04  0.7818608E-02  0.9131634E-01
          2   -1    0    0  501    0  0.00000000000E+00  0.00000000000E+00  0.38238182453E+03  0.38238182453E+03  0.00000000000E+00 0.  1.
         -2   -1    0    0    0  501 -0.00000000000E+00 -0.00000000000E+00 -0.90846775215E+03  0.90846775215E+03  0.00000000000E+00 0. -1.
         23    2    1    2    0    0 -0.17814657523E+03 -0.41981293631E+03 -0.66736068514E+03  0.81342140316E+03  0.91131724897E+02 0.  0.
         13    1    3    3    0    0 -0.12802983015E+03 -0.37727492690E+03 -0.58977566159E+03  0.71173263159E+03  0.00000000000E+00 0. -1.
        -13    1    3    3    0    0 -0.50116745083E+02 -0.42538009415E+02 -0.77585023555E+02  0.10168877157E+03  0.00000000000E+00 0.  1.
         22    1    1    2    0    0  0.17814657523E+03  0.41981293631E+03  0.14127475752E+03  0.47742817352E+03  0.00000000000E+00 0.  1.
<mgrwt>
<rscale>  0 0.11787817E+04</rscale>
<asrwt>0</asrwt>
<pdfrwt beam="1">  1        2 0.58827973E-01 0.11787817E+04</pdfrwt>
<pdfrwt beam="2">  1       -2 0.13976427E+00 0.11787817E+04</pdfrwt>
<totfact> 0.29794430E+01</totfact>
</mgrwt>
</event>
<event>
 6    1  0.2325157E-005  0.3310370E+04  0.7818608E-02  0.8160262E-01
          2   -1    0    0  501    0  0.00000000000E+00  0.00000000000E+00  0.21716931196E+04  0.21716931196E+04  0.00000000000E+00 0.  1.
         -2   -1    0    0    0  501 -0.00000000000E+00 -0.00000000000E+00 -0.12615212930E+04  0.12615212930E+04  0.00000000000E+00 0. -1.
         23    2    1    2    0    0  0.10642183435E+04  0.84428867143E+03 -0.52305285359E+03  0.14584949319E+04  0.90769682948E+02 0.  0.
         13    1    3    3    0    0  0.50544944006E+03  0.39267680715E+03 -0.29453386716E+03  0.70457392106E+03  0.00000000000E+00 0.  1.
        -13    1    3    3    0    0  0.55876890345E+03  0.45161186428E+03 -0.22851898643E+03  0.75392101084E+03  0.00000000000E+00 0. -1.
         22    1    1    2    0    0 -0.10642183435E+04 -0.84428867143E+03  0.14332246802E+04  0.19747194807E+04  0.00000000000E+00 0.  1.
<mgrwt>
<rscale>  0 0.33103698E+04</rscale>
<asrwt>0</asrwt>
<pdfrwt beam="1">  1        2 0.33410663E+00 0.33103698E+04</pdfrwt>
<pdfrwt beam="2">  1       -2 0.19408020E+00 0.33103698E+04</pdfrwt>
<totfact> 0.65067017E-01</totfact>
</mgrwt>
</event>
<event>
 6    1  0.2594710E-005  0.2293905E+04  0.7818608E-02  0.8480328E-01
          2   -1    0    0  501    0  0.00000000000E+00  0.00000000000E+00  0.72520276542E+03  0.72520276542E+03  0.00000000000E+00 0.  1.
         -2   -1    0    0    0  501 -0.00000000000E+00 -0.00000000000E+00 -0.18139756649E+04  0.18139756649E+04  0.00000000000E+00 0. -1.
         23    2    1    2    0    0 -0.31192006928E+03 -0.76255538238E+03 -0.14255819311E+04  0.16491081159E+04  0.92135198317E+02 0.  0.
         11    1    3    3    0    0 -0.13610346647E+03 -0.43535574018E+03 -0.73714725079E+03  0.86685918317E+03  0.00000000000E+00 0. -1.
        -11    1    3    3    0    0 -0.17581660280E+03 -0.32719964220E+03 -0.68843468033E+03  0.78224893273E+03  0.00000000000E+00 0.  1.
         22    1    1    2    0    0  0.31192006928E+03  0.76255538238E+03  0.33680903163E+03  0.89007031442E+03  0.00000000000E+00 0.  1.
<mgrwt>
<rscale>  0 0.22939051E+04</rscale>
<asrwt>0</asrwt>
<pdfrwt beam="1">  1        2 0.11156966E+00 0.22939051E+04</pdfrwt>
<pdfrwt beam="2">  1       -2 0.27907317E+00 0.22939051E+04</pdfrwt>
<totfact> 0.15158123E+00</totfact>
</mgrwt>
</event>
<event>
 6    1  0.2325157E-005  0.2032533E+04  0.7818608E-02  0.8591560E-01
         -2   -1    0    0    0  501 -0.00000000000E+00  0.00000000000E+00  0.63803166109E+03  0.63803166109E+03  0.00000000000E+00 0. -1.
          2   -1    0    0  501    0  0.00000000000E+00 -0.00000000000E+00 -0.16187242483E+04  0.16187242483E+04  0.00000000000E+00 0.  1.
         23    2    1    2    0    0 -0.38382175031E+03 -0.74455521160E+03 -0.11257283873E+04  0.14066282822E+04  0.98270663076E+02 0.  0.
         13    1    3    3    0    0 -0.99017112988E+02 -0.15775618881E+03 -0.19063651912E+03  0.26652145541E+03  0.00000000000E+00 0.  1.
        -13    1    3    3    0    0 -0.28480463732E+03 -0.58679902280E+03 -0.93509186819E+03  0.11401068268E+04  0.00000000000E+00 0. -1.
         22    1    1    2    0    0  0.38382175031E+03  0.74455521160E+03  0.14503580011E+03  0.85012762716E+03  0.00000000000E+00 0. -1.
<mgrwt>
<rscale>  0 0.20325327E+04</rscale>
<asrwt>0</asrwt>
<pdfrwt beam="1">  1        2 0.24903450E+00 0.20325327E+04</pdfrwt>
<pdfrwt beam="2">  1       -2 0.98158717E-01 0.20325327E+04</pdfrwt>
<totfact> 0.87068265E+00</totfact>
</mgrwt>
</event>
<event>
 6    1  0.2325157E-005  0.3052535E+04  0.7818608E-02  0.8228886E-01
          2   -1    0    0  501    0  0.00000000000E+00  0.00000000000E+00  0.33666688259E+04  0.33666688259E+04  0.00000000000E+00 0.  1.
         -2   -1    0    0    0  501 -0.00000000000E+00 -0.00000000000E+00 -0.69192799824E+03  0.69192799824E+03  0.00000000000E+00 0. -1.
         23    2    1    2    0    0 -0.53006379388E+03  0.12003963525E+04  0.23714058651E+04  0.27117742195E+04  0.90744762353E+02 0.  0.
         11    1    3    3    0    0 -0.17462310940E+03  0.50527479755E+03  0.95500701072E+03  0.10944561398E+04  0.00000000000E+00 0. -1.
        -11    1    3    3    0    0 -0.35544068448E+03  0.69512155498E+03  0.14163988543E+04  0.16173180797E+04  0.00000000000E+00 0.  1.
         22    1    1    2    0    0  0.53006379388E+03 -0.12003963525E+04  0.30333496255E+03  0.13468226046E+04  0.00000000000E+00 0. -1.
<mgrwt>
<rscale>  0 0.30525350E+04</rscale>
<asrwt>0</asrwt>
<pdfrwt beam="1">  1        2 0.51794904E+00 0.30525350E+04</pdfrwt>
<pdfrwt beam="2">  1       -2 0.10645046E+00 0.30525350E+04</pdfrwt>
<totfact> 0.60840568E-01</totfact>
</mgrwt>
</event>
<event>
 6    1  0.2325157E-005  0.2792732E+04  0.7818608E-02  0.8305528E-01
          2   -1    0    0  501    0  0.00000000000E+00  0.00000000000E+00  0.49897254173E+04  0.49897254173E+04  0.00000000000E+00 0.  1.
         -2   -1    0    0    0  501 -0.00000000000E+00 -0.00000000000E+00 -0.39077059709E+03  0.39077059709E+03  0.00000000000E+00 0. -1.
         23    2    1    2    0    0  0.11951441458E+04 -0.17241518271E+03  0.95615606337E+03  0.15427780327E+04  0.88504892684E+02 0.  0.
         13    1    3    3    0    0  0.71476764911E+03 -0.59177773242E+02  0.56633715594E+03  0.91385588321E+03  0.00000000000E+00 0.  1.
        -13    1    3    3    0    0  0.48037649670E+03 -0.11323740947E+03  0.38981890743E+03  0.62892214946E+03  0.00000000000E+00 0. -1.
         22    1    1    2    0    0 -0.11951441458E+04  0.17241518271E+03  0.36427987568E+04  0.38377179817E+04  0.00000000000E+00 0.  1.
<mgrwt>
<rscale>  0 0.27927320E+04</rscale>
<asrwt>0</asrwt>
<pdfrwt beam="1">  1        2 0.76765002E+00 0.27927320E+04</pdfrwt>
<pdfrwt beam="2">  1       -2 0.60118557E-01 0.27927320E+04</pdfrwt>
<totfact> 0.79677151E-02</totfact>
</mgrwt>
</event>
<event>
 6    1  0.2325157E-005  0.3079849E+04  0.7818608E-02  0.8221290E-01
          2   -1    0    0  501    0  0.00000000000E+00  0.00000000000E+00  0.30431373550E+04  0.30431373550E+04  0.00000000000E+00 0.  1.
         -2   -1    0    0    0  501 -0.00000000000E+00 -0.00000000000E+00 -0.77925095636E+03  0.77925095636E+03  0.00000000000E+00 0. -1.
         23    2    1    2    0    0  0.11254071158E+02 -0.12775284406E+04  0.68955169033E+02  0.12827173340E+04  0.91669912534E+02 0.  0.
         13    1    3    3    0    0  0.50094904776E+02 -0.54534745072E+03  0.27150257925E+02  0.54831603843E+03  0.00000000000E+00 0. -1.
        -13    1    3    3    0    0 -0.38840833618E+02 -0.73218098989E+03  0.41804911108E+02  0.73440129555E+03  0.00000000000E+00 0.  1.
         22    1    1    2    0    0 -0.11254071158E+02  0.12775284406E+04  0.21949312296E+04  0.25396709774E+04  0.00000000000E+00 0.  1.
<mgrwt>
<rscale>  0 0.30798491E+04</rscale>
<asrwt>0</asrwt>
<pdfrwt beam="1">  1        2 0.46817497E+00 0.30798491E+04</pdfrwt>
<pdfrwt beam="2">  1       -2 0.11988476E+00 0.30798491E+04</pdfrwt>
<totfact> 0.73983574E-01</totfact>
</mgrwt>
</event>
<event>
 6    1  0.2325157E-005  0.3073498E+04  0.7818608E-02  0.8223049E-01
          2   -1    0    0  501    0  0.00000000000E+00  0.00000000000E+00  0.24846230634E+04  0.24846230634E+04  0.00000000000E+00 0.  1.
         -2   -1    0    0    0  501 -0.00000000000E+00 -0.00000000000E+00 -0.95048503693E+03  0.95048503693E+03  0.00000000000E+00 0. -1.
         23    2    1    2    0    0  0.29748769159E+03  0.62864537524E+03 -0.76206354277E+03  0.10358924825E+04  0.92943302705E+02 0.  0.
         11    1    3    3    0    0  0.13479027082E+03  0.20684793362E+03 -0.22672698594E+03  0.33520085159E+03  0.00000000000E+00 0. -1.
        -11    1    3    3    0    0  0.16269742077E+03  0.42179744162E+03 -0.53533655683E+03  0.70069163086E+03  0.00000000000E+00 0.  1.
         22    1    1    2    0    0 -0.29748769159E+03 -0.62864537524E+03  0.22962015692E+04  0.23992156179E+04  0.00000000000E+00 0.  1.
<mgrwt>
<rscale>  0 0.30734977E+04</rscale>
<asrwt>0</asrwt>
<pdfrwt beam="1">  1        2 0.38224970E+00 0.30734977E+04</pdfrwt>
<pdfrwt beam="2">  1       -2 0.14622847E+00 0.30734977E+04</pdfrwt>
<totfact> 0.96875751E-01</totfact>
</mgrwt>
</event>
<event>
 6    1  0.2325157E-005  0.1819995E+04  0.7818608E-02  0.8695738E-01
          2   -1    0    0  501    0  0.00000000000E+00  0.00000000000E+00  0.10499580546E+04  0.10499580546E+04  0.00000000000E+00 0.  1.
         -2   -1    0    0    0  501 -0.00000000000E+00 -0.00000000000E+00 -0.78869383851E+03  0.78869383851E+03  0.00000000000E+00 0. -1.
         23    2    1    2    0    0 -0.70913553584E+03  0.44664126899E+03  0.48252921647E+03  0.97186481907E+03  0.96566818554E+02 0.  0.
         11    1    3    3    0    0 -0.18233624968E+03  0.11159587655E+03  0.17311176416E+03  0.27507786262E+03  0.00000000000E+00 0. -1.
        -11    1    3    3    0    0 -0.52679928616E+03  0.33504539244E+03  0.30941745231E+03  0.69678695646E+03  0.00000000000E+00 0.  1.
         22    1    1    2    0    0  0.70913553584E+03 -0.44664126899E+03 -0.22126500036E+03  0.86678707405E+03  0.00000000000E+00 0. -1.
<mgrwt>
<rscale>  0 0.18199950E+04</rscale>
<asrwt>0</asrwt>
<pdfrwt beam="1">  1        2 0.16153201E+00 0.18199950E+04</pdfrwt>
<pdfrwt beam="2">  1       -2 0.12133751E+00 0.18199950E+04</pdfrwt>
<totfact> 0.11398575E+01</totfact>
</mgrwt>
</event>
<event>
 6    1  0.2325157E-005  0.1759295E+04  0.7818608E-02  0.8728251E-01
          2   -1    0    0  501    0  0.00000000000E+00  0.00000000000E+00  0.31782500368E+03  0.31782500368E+03  0.00000000000E+00 0.  1.
         -2   -1    0    0    0  501 -0.00000000000E+00 -0.00000000000E+00 -0.24346083406E+04  0.24346083406E+04  0.00000000000E+00 0. -1.
         23    2    1    2    0    0 -0.23123403869E+03  0.26225020036E+03 -0.23199890311E+04  0.23480363829E+04  0.93174045633E+02 0.  0.
         11    1    3    3    0    0 -0.15246143660E+03  0.10305231981E+03 -0.11421197058E+04  0.11568499007E+04  0.00000000000E+00 0. -1.
        -11    1    3    3    0    0 -0.78772602094E+02  0.15919788055E+03 -0.11778693253E+04  0.11911864822E+04  0.00000000000E+00 0.  1.
         22    1    1    2    0    0  0.23123403869E+03 -0.26225020036E+03  0.20320569416E+03  0.40439696138E+03  0.00000000000E+00 0.  1.
<mgrwt>
<rscale>  0 0.17592946E+04</rscale>
<asrwt>0</asrwt>
<pdfrwt beam="1">  1        2 0.48896154E-01 0.17592946E+04</pdfrwt>
<pdfrwt beam="2">  1       -2 0.37455513E+00 0.17592946E+04</pdfrwt>
<totfact> 0.10634037E+00</totfact>
</mgrwt>
</event>
<event>
 6    1  0.2325157E-005  0.7169228E+03  0.7818608E-02  0.9688722E-01
         -2   -1    0    0    0  501 -0.00000000000E+00  0.00000000000E+00  0.11472148499E+03  0.11472148499E+03  0.00000000000E+00 0. -1.
          2   -1    0    0  501    0  0.00000000000E+00 -0.00000000000E+00 -0.11200568215E+04  0.11200568215E+04  0.00000000000E+00 0.  1.
         23    2    1    2    0    0  0.69257924785E+02  0.23392004855E+03 -0.94906964411E+03  0.98441641364E+03  0.93953375757E+02 0.  0.
         13    1    3    3    0    0 -0.20685602474E+00  0.84632312072E+02 -0.19491724784E+03  0.21249801068E+03  0.00000000000E+00 0.  1.
        -13    1    3    3    0    0  0.69464780810E+02  0.14928773648E+03 -0.75415239627E+03  0.77191840297E+03  0.00000000000E+00 0. -1.
         22    1    1    2    0    0 -0.69257924785E+02 -0.23392004855E+03 -0.56265692426E+02  0.25036189288E+03  0.00000000000E+00 0. -1.
<mgrwt>
<rscale>  0 0.71692282E+03</rscale>
<asrwt>0</asrwt>
<pdfrwt beam="1">  1        2 0.17231644E+00 0.71692282E+03</pdfrwt>
<pdfrwt beam="2">  1       -2 0.17649458E-01 0.71692282E+03</pdfrwt>
<totfact> 0.56620961E+02</totfact>
</mgrwt>
</event>
<event>
 6    1  0.2325157E-005  0.8217418E+03  0.7818608E-02  0.9529069E-01
          2   -1    0    0  501    0  0.00000000000E+00  0.00000000000E+00  0.61728339686E+03  0.61728339686E+03  0.00000000000E+00 0.  1.
         -2   -1    0    0    0  501 -0.00000000000E+00 -0.00000000000E+00 -0.27348034802E+03  0.27348034802E+03  0.00000000000E+00 0. -1.
         23    2    1    2    0    0  0.17353275197E+03 -0.16277737485E+03 -0.18259255203E+03  0.31309392708E+03  0.89875899716E+02 0.  0.
         13    1    3    3    0    0  0.71500896447E+02 -0.66595459385E+02 -0.13156135600E+03  0.16387716069E+03  0.00000000000E+00 0.  1.
        -13    1    3    3    0    0  0.10203185552E+03 -0.96181915464E+02 -0.51031196028E+02  0.14921676639E+03  0.00000000000E+00 0. -1.
         22    1    1    2    0    0 -0.17353275197E+03  0.16277737485E+03  0.52639560087E+03  0.57766981779E+03  0.00000000000E+00 0.  1.
<mgrwt>
<rscale>  0 0.82174176E+03</rscale>
<asrwt>0</asrwt>
<pdfrwt beam="1">  1        2 0.94966676E-01 0.82174176E+03</pdfrwt>
<pdfrwt beam="2">  1       -2 0.42073900E-01 0.82174176E+03</pdfrwt>
<totfact> 0.25793183E+02</totfact>
</mgrwt>
</event>
<event>
 6    1  0.2325157E-005  0.3771545E+04  0.7818608E-02  0.8052289E-01
         -2   -1    0    0    0  501 -0.00000000000E+00  0.00000000000E+00  0.87544588429E+03  0.87544588429E+03  0.00000000000E+00 0. -1.
          2   -1    0    0  501    0  0.00000000000E+00 -0.00000000000E+00 -0.40620880491E+04  0.40620880491E+04  0.00000000000E+00 0.  1.
         23    2    1    2    0    0 -0.18120606089E+04 -0.32791581149E+03 -0.21192752201E+04  0.28090686120E+04  0.91905269846E+02 0.  0.
         11    1    3    3    0    0 -0.35259665945E+03 -0.10063891175E+03 -0.42990703316E+03  0.56504216832E+03  0.00000000000E+00 0.  1.
        -11    1    3    3    0    0 -0.14594639495E+04 -0.22727689974E+03 -0.16893681869E+04  0.22440264437E+04  0.00000000000E+00 0. -1.
         22    1    1    2    0    0  0.18120606089E+04  0.32791581149E+03 -0.10673669447E+04  0.21284653214E+04  0.00000000000E+00 0. -1.
<mgrwt>
<rscale>  0 0.37715452E+04</rscale>
<asrwt>0</asrwt>
<pdfrwt beam="1">  1        2 0.62493663E+00 0.37715452E+04</pdfrwt>
<pdfrwt beam="2">  1       -2 0.13468398E+00 0.37715452E+04</pdfrwt>
<totfact> 0.96727154E-02</totfact>
</mgrwt>
</event>
<event>
 6    1  0.2325157E-005  0.1512704E+04  0.7818608E-02  0.8876048E-01
         -2   -1    0    0    0  501 -0.00000000000E+00  0.00000000000E+00  0.28242050186E+03  0.28242050186E+03  0.00000000000E+00 0. -1.
          2   -1    0    0  501    0  0.00000000000E+00 -0.00000000000E+00 -0.20255913934E+04  0.20255913934E+04  0.00000000000E+00 0.  1.
         23    2    1    2    0    0  0.33147028831E+03 -0.62034229125E+03 -0.45985367253E+03  0.84459117826E+03  0.84686173109E+02 0.  0.
         13    1    3    3    0    0  0.19409690269E+03 -0.43861094462E+03 -0.33227754793E+03  0.58349082018E+03  0.00000000000E+00 0.  1.
        -13    1    3    3    0    0  0.13737338562E+03 -0.18173134663E+03 -0.12757612460E+03  0.26110035808E+03  0.00000000000E+00 0. -1.
         22    1    1    2    0    0 -0.33147028831E+03  0.62034229125E+03 -0.12833172190E+04  0.14634207170E+04  0.00000000000E+00 0.  1.
<mgrwt>
<rscale>  0 0.15127043E+04</rscale>
<asrwt>0</asrwt>
<pdfrwt beam="1">  1        2 0.31162944E+00 0.15127043E+04</pdfrwt>
<pdfrwt beam="2">  1       -2 0.43449308E-01 0.15127043E+04</pdfrwt>
<totfact> 0.31360568E+01</totfact>
</mgrwt>
</event>
<event>
 6    1  0.2325157E-005  0.6365059E+04  0.7818608E-02  0.7646716E-01
          2   -1    0    0  501    0  0.00000000000E+00  0.00000000000E+00  0.43392215205E+04  0.43392215205E+04  0.00000000000E+00 0.  1.
         -2   -1    0    0    0  501 -0.00000000000E+00 -0.00000000000E+00 -0.23341729092E+04  0.23341729092E+04  0.00000000000E+00 0. -1.
         23    2    1    2    0    0  0.15049454343E+04 -0.21142059621E+04  0.29329910181E+04  0.39173456782E+04  0.91832675686E+02 0.  0.
         11    1    3    3    0    0  0.41413277543E+03 -0.65157588508E+03  0.88888376077E+03  0.11773578173E+04  0.00000000000E+00 0.  1.
        -11    1    3    3    0    0  0.10908126588E+04 -0.14626300770E+04  0.20441072573E+04  0.27399878609E+04  0.00000000000E+00 0. -1.
         22    1    1    2    0    0 -0.15049454343E+04  0.21142059621E+04 -0.92794240673E+03  0.27560487515E+04  0.00000000000E+00 0. -1.
<mgrwt>
<rscale>  0 0.63650588E+04</rscale>
<asrwt>0</asrwt>
<pdfrwt beam="1">  1        2 0.66757254E+00 0.63650588E+04</pdfrwt>
<pdfrwt beam="2">  1       -2 0.35910353E+00 0.63650588E+04</pdfrwt>
<totfact> 0.15434600E-03</totfact>
</mgrwt>
</event>
<event>
 6    1  0.2325157E-005  0.1715646E+04  0.7818608E-02  0.8752491E-01
          2   -1    0    0  501    0  0.00000000000E+00  0.00000000000E+00  0.14819620223E+04  0.14819620223E+04  0.00000000000E+00 0.  1.
         -2   -1    0    0    0  501 -0.00000000000E+00 -0.00000000000E+00 -0.49654476619E+03  0.49654476619E+03  0.00000000000E+00 0. -1.
         23    2    1    2    0    0  0.12415228552E+03 -0.51035595748E+03  0.12727116208E+04  0.13798290411E+04  0.90864292549E+02 0.  0.
         13    1    3    3    0    0 -0.11546589957E+02 -0.10091326982E+03  0.25454651480E+03  0.27406338676E+03  0.00000000000E+00 0. -1.
        -13    1    3    3    0    0  0.13569887548E+03 -0.40944268766E+03  0.10181651060E+04  0.11057656543E+04  0.00000000000E+00 0.  1.
         22    1    1    2    0    0 -0.12415228552E+03  0.51035595748E+03 -0.28729436463E+03  0.59867774744E+03  0.00000000000E+00 0. -1.
<mgrwt>
<rscale>  0 0.17156462E+04</rscale>
<asrwt>0</asrwt>
<pdfrwt beam="1">  1        2 0.22799416E+00 0.17156462E+04</pdfrwt>
<pdfrwt beam="2">  1       -2 0.76391503E-01 0.17156462E+04</pdfrwt>
<totfact> 0.18931527E+01</totfact>
</mgrwt>
</event>
<event>
 6    1  0.2325157E-005  0.3087179E+04  0.7818608E-02  0.8219265E-01
         -2   -1    0    0    0  501 -0.00000000000E+00  0.00000000000E+00  0.97173407613E+03  0.97173407613E+03  0.00000000000E+00 0. -1.
          2   -1    0    0  501    0  0.00000000000E+00 -0.00000000000E+00 -0.24519762642E+04  0.24519762642E+04  0.00000000000E+00 0.  1.
         23    2    1    2    0    0 -0.50606329316E+03 -0.76580593964E+03 -0.21151303093E+04  0.23076271354E+04  0.93850823763E+02 0.  0.
         13    1    3    3    0    0 -0.20094775227E+03 -0.27630701194E+03 -0.89609549173E+03  0.95901652451E+03  0.00000000000E+00 0.  1.
        -13    1    3    3    0    0 -0.30511554089E+03 -0.48949892770E+03 -0.12190348176E+04  0.13486106109E+04  0.00000000000E+00 0. -1.
         22    1    1    2    0    0  0.50606329316E+03  0.76580593964E+03  0.63488812118E+03  0.11160832049E+04  0.00000000000E+00 0. -1.
<mgrwt>
<rscale>  0 0.30871792E+04</rscale>
<asrwt>0</asrwt>
<pdfrwt beam="1">  1        2 0.37722711E+00 0.30871792E+04</pdfrwt>
<pdfrwt beam="2">  1       -2 0.14949755E+00 0.30871792E+04</pdfrwt>
<totfact> 0.95330349E-01</totfact>
</mgrwt>
</event>
<event>
 6    1  0.2325157E-005  0.6684879E+03  0.7818608E-02  0.9772693E-01
          2   -1    0    0  501    0  0.00000000000E+00  0.00000000000E+00  0.21923253824E+04  0.21923253824E+04  0.00000000000E+00 0.  1.
         -2   -1    0    0    0  501 -0.00000000000E+00 -0.00000000000E+00 -0.50959143620E+02  0.50959143620E+02  0.00000000000E+00 0. -1.
         23    2    1    2    0    0  0.28521604407E+03 -0.77701504754E+02  0.15666972678E+04  0.15970414279E+04  0.92818521423E+02 0.  0.
         11    1    3    3    0    0  0.18547375514E+03 -0.95350571218E+02  0.10559915645E+04  0.10763876762E+04  0.00000000000E+00 0. -1.
        -11    1    3    3    0    0  0.99742288935E+02  0.17649066463E+02  0.51070570331E+03  0.52065375169E+03  0.00000000000E+00 0.  1.
         22    1    1    2    0    0 -0.28521604407E+03  0.77701504754E+02  0.57466897100E+03  0.64624309812E+03  0.00000000000E+00 0.  1.
<mgrwt>
<rscale>  0 0.66848792E+03</rscale>
<asrwt>0</asrwt>
<pdfrwt beam="1">  1        2 0.33728076E+00 0.66848792E+03</pdfrwt>
<pdfrwt beam="2">  1       -2 0.78398699E-02 0.66848792E+03</pdfrwt>
<totfact> 0.54865713E+02</totfact>
</mgrwt>
</event>
<event>
 6    1  0.2325157E-005  0.3548260E+04  0.7818608E-02  0.8102447E-01
          2   -1    0    0  501    0  0.00000000000E+00  0.00000000000E+00  0.25071746409E+04  0.25071746409E+04  0.00000000000E+00 0.  1.
         -2   -1    0    0    0  501 -0.00000000000E+00 -0.00000000000E+00 -0.12554117050E+04  0.12554117050E+04  0.00000000000E+00 0. -1.
         23    2    1    2    0    0  0.98311048191E+03 -0.14731998756E+04  0.71186727743E+03  0.19110163593E+04  0.91675578607E+02 0.  0.
         11    1    3    3    0    0  0.80043173606E+03 -0.12419416475E+04  0.61975254971E+03  0.16022494321E+04  0.00000000000E+00 0.  1.
        -11    1    3    3    0    0  0.18267874585E+03 -0.23125822815E+03  0.92114727714E+02  0.30876692720E+03  0.00000000000E+00 0. -1.
         22    1    1    2    0    0 -0.98311048191E+03  0.14731998756E+04  0.53989565851E+03  0.18515699866E+04  0.00000000000E+00 0. -1.
<mgrwt>
<rscale>  0 0.35482595E+04</rscale>
<asrwt>0</asrwt>
<pdfrwt beam="1">  1        2 0.38571918E+00 0.35482595E+04</pdfrwt>
<pdfrwt beam="2">  1       -2 0.19314026E+00 0.35482595E+04</pdfrwt>
<totfact> 0.41669834E-01</totfact>
</mgrwt>
</event>
<event>
 6    1  0.2729626E-005  0.2062850E+04  0.7818608E-02  0.8577787E-01
          2   -1    0    0  501    0  0.00000000000E+00  0.00000000000E+00  0.97866732068E+03  0.97866732068E+03  0.00000000000E+00 0.  1.
         -2   -1    0    0    0  501 -0.00000000000E+00 -0.00000000000E+00 -0.10870269095E+04  0.10870269095E+04  0.00000000000E+00 0. -1.
         23    2    1    2    0    0  0.37946111363E+03  0.95687594409E+03 -0.50740426022E+02  0.10347130096E+04  0.91946246924E+02 0.  0.
         11    1    3    3    0    0  0.19768559522E+03  0.46319866243E+03 -0.68955739469E+02  0.50831829540E+03  0.00000000000E+00 0. -1.
        -11    1    3    3    0    0  0.18177551841E+03  0.49367728166E+03  0.18215313447E+02  0.52639471423E+03  0.00000000000E+00 0.  1.
         22    1    1    2    0    0 -0.37946111363E+03 -0.95687594409E+03 -0.57619162759E+02  0.10309812205E+04  0.00000000000E+00 0.  1.
<mgrwt>
<rscale>  0 0.20628502E+04</rscale>
<asrwt>0</asrwt>
<pdfrwt beam="1">  1        2 0.15056420E+00 0.20628502E+04</pdfrwt>
<pdfrwt beam="2">  1       -2 0.16723491E+00 0.20628502E+04</pdfrwt>
<totfact> 0.53602225E+00</totfact>
</mgrwt>
</event>
<event>
 6    1  0.2325157E-005  0.2823374E+04  0.7818608E-02  0.8296048E-01
         -2   -1    0    0    0  501 -0.00000000000E+00  0.00000000000E+00  0.31927910613E+04  0.31927910613E+04  0.00000000000E+00 0. -1.
          2   -1    0    0  501    0  0.00000000000E+00 -0.00000000000E+00 -0.62417510967E+03  0.62417510967E+03  0.00000000000E+00 0.  1.
         23    2    1    2    0    0 -0.63971910904E+03 -0.11433326794E+04  0.58028510827E+03  0.14358089530E+04  0.91467963592E+02 0.  0.
         13    1    3    3    0    0 -0.29159332150E+03 -0.61423916714E+03  0.29521700390E+03  0.74126209871E+03  0.00000000000E+00 0.  1.
        -13    1    3    3    0    0 -0.34812578754E+03 -0.52909351222E+03  0.28506810436E+03  0.69454685425E+03  0.00000000000E+00 0. -1.
         22    1    1    2    0    0  0.63971910904E+03  0.11433326794E+04  0.19883308433E+04  0.23811572180E+04  0.00000000000E+00 0. -1.
<mgrwt>
<rscale>  0 0.28233744E+04</rscale>
<asrwt>0</asrwt>
<pdfrwt beam="1">  1        2 0.96026942E-01 0.28233744E+04</pdfrwt>
<pdfrwt beam="2">  1       -2 0.49119862E+00 0.28233744E+04</pdfrwt>
<totfact> 0.76642537E-02</totfact>
</mgrwt>
</event>
<event>
 6    1  0.2325157E-005  0.4813819E+04  0.7818608E-02  0.7857887E-01
          2   -1    0    0  501    0  0.00000000000E+00  0.00000000000E+00  0.25376209439E+04  0.25376209439E+04  0.00000000000E+00 0.  1.
         -2   -1    0    0    0  501 -0.00000000000E+00 -0.00000000000E+00 -0.22829306812E+04  0.22829306812E+04  0.00000000000E+00 0. -1.
         23    2    1    2    0    0 -0.12720185641E+04 -0.82484534688E+03 -0.17435135710E+04  0.23123212460E+04  0.92676312044E+02 0.  0.
         13    1    3    3    0    0 -0.43990909527E+03 -0.25176174677E+03 -0.63405629148E+03  0.81174587773E+03  0.00000000000E+00 0.  1.
        -13    1    3    3    0    0 -0.83210946880E+03 -0.57308360011E+03 -0.11094572795E+04  0.15005753683E+04  0.00000000000E+00 0. -1.
         22    1    1    2    0    0  0.12720185641E+04  0.82484534688E+03  0.19982038337E+04  0.25082303791E+04  0.00000000000E+00 0.  1.
<mgrwt>
<rscale>  0 0.48138187E+04</rscale>
<asrwt>0</asrwt>
<pdfrwt beam="1">  1        2 0.39040322E+00 0.48138187E+04</pdfrwt>
<pdfrwt beam="2">  1       -2 0.35122010E+00 0.48138187E+04</pdfrwt>
<totfact> 0.37383910E-02</totfact>
</mgrwt>
</event>
<event>
 6    1  0.2325157E-005  0.3152750E+04  0.7818608E-02  0.8201409E-01
          2   -1    0    0  501    0  0.00000000000E+00  0.00000000000E+00  0.15973628360E+04  0.15973628360E+04  0.00000000000E+00 0.  1.
         -2   -1    0    0    0  501 -0.00000000000E+00 -0.00000000000E+00 -0.15556625697E+04  0.15556625697E+04  0.00000000000E+00 0. -1.
         23    2    1    2    0    0  0.81194774064E+03  0.11965360951E+04  0.64581062122E+03  0.15858920095E+04  0.83811376860E+02 0.  0.
         13    1    3    3    0    0  0.65626930118E+03  0.10141634019E+04  0.52059849649E+03  0.13153857214E+04  0.00000000000E+00 0. -1.
        -13    1    3    3    0    0  0.15567843946E+03  0.18237269319E+03  0.12521212472E+03  0.27050628812E+03  0.00000000000E+00 0.  1.
         22    1    1    2    0    0 -0.81194774064E+03 -0.11965360951E+04 -0.60411035499E+03  0.15671333962E+04  0.00000000000E+00 0. -1.
<mgrwt>
<rscale>  0 0.31527496E+04</rscale>
<asrwt>0</asrwt>
<pdfrwt beam="1">  1        2 0.24574813E+00 0.31527496E+04</pdfrwt>
<pdfrwt beam="2">  1       -2 0.23933270E+00 0.31527496E+04</pdfrwt>
<totfact> 0.70744205E-01</totfact>
</mgrwt>
</event>
<event>
 6    1  0.2325157E-005  0.3365542E+04  0.7818608E-02  0.8146416E-01
          2   -1    0    0  501    0  0.00000000000E+00  0.00000000000E+00  0.22136107205E+04  0.22136107205E+04  0.00000000000E+00 0.  1.
         -2   -1    0    0    0  501 -0.00000000000E+00 -0.00000000000E+00 -0.12792302064E+04  0.12792302064E+04  0.00000000000E+00 0. -1.
         23    2    1    2    0    0  0.14145026318E+04 -0.43363335665E+03  0.12970624213E+04  0.19695570567E+04  0.89042076630E+02 0.  0.
         11    1    3    3    0    0  0.62971288546E+03 -0.18527680365E+03  0.51774650170E+03  0.83601869124E+03  0.00000000000E+00 0.  1.
        -11    1    3    3    0    0  0.78478974634E+03 -0.24835655300E+03  0.77931591963E+03  0.11335383655E+04  0.00000000000E+00 0. -1.
         22    1    1    2    0    0 -0.14145026318E+04  0.43363335665E+03 -0.36268190720E+03  0.15232838702E+04  0.00000000000E+00 0. -1.
<mgrwt>
<rscale>  0 0.33655417E+04</rscale>
<asrwt>0</asrwt>
<pdfrwt beam="1">  1        2 0.34055549E+00 0.33655417E+04</pdfrwt>
<pdfrwt beam="2">  1       -2 0.19680465E+00 0.33655417E+04</pdfrwt>
<totfact> 0.58846265E-01</totfact>
</mgrwt>
</event>
<event>
 6    1  0.2325157E-005  0.2318258E+04  0.7818608E-02  0.8470757E-01
         -2   -1    0    0    0  501 -0.00000000000E+00  0.00000000000E+00  0.64847997748E+03  0.64847997748E+03  0.00000000000E+00 0. -1.
          2   -1    0    0  501    0  0.00000000000E+00 -0.00000000000E+00 -0.20718908017E+04  0.20718908017E+04  0.00000000000E+00 0.  1.
         23    2    1    2    0    0  0.80776445932E+03 -0.58961616684E+03 -0.29535069529E+02  0.10048474580E+04  0.93356561615E+02 0.  0.
         11    1    3    3    0    0  0.37300627679E+03 -0.22033960732E+03  0.67118264595E+01  0.43327620947E+03  0.00000000000E+00 0. -1.
        -11    1    3    3    0    0  0.43475818253E+03 -0.36927655952E+03 -0.36246895989E+02  0.57157124854E+03  0.00000000000E+00 0.  1.
         22    1    1    2    0    0 -0.80776445932E+03  0.58961616684E+03 -0.13938757547E+04  0.17155233211E+04  0.00000000000E+00 0. -1.
<mgrwt>
<rscale>  0 0.23182577E+04</rscale>
<asrwt>0</asrwt>
<pdfrwt beam="1">  1        2 0.31875244E+00 0.23182577E+04</pdfrwt>
<pdfrwt beam="2">  1       -2 0.99766147E-01 0.23182577E+04</pdfrwt>
<totfact> 0.45805001E+00</totfact>
</mgrwt>
</event>
<event>
 6    1  0.2325157E-005  0.1846606E+04  0.7818608E-02  0.8681900E-01
         -2   -1    0    0    0  501 -0.00000000000E+00  0.00000000000E+00  0.47199785465E+03  0.47199785465E+03  0.00000000000E+00 0. -1.
          2   -1    0    0  501    0  0.00000000000E+00 -0.00000000000E+00 -0.18061274428E+04  0.18061274428E+04  0.00000000000E+00 0.  1.
         23    2    1    2    0    0  0.42878671921E+03 -0.60333613615E+03  0.72910736522E+01  0.74604111709E+03  0.93014218640E+02 0.  0.
         11    1    3    3    0    0  0.31006285308E+03 -0.50123388622E+03  0.29734178936E+01  0.58939224865E+03  0.00000000000E+00 0. -1.
        -11    1    3    3    0    0  0.11872386614E+03 -0.10210224993E+03  0.43176557586E+01  0.15664886844E+03  0.00000000000E+00 0.  1.
         22    1    1    2    0    0 -0.42878671921E+03  0.60333613615E+03 -0.13414206618E+04  0.15320841803E+04  0.00000000000E+00 0.  1.
<mgrwt>
<rscale>  0 0.18466058E+04</rscale>
<asrwt>0</asrwt>
<pdfrwt beam="1">  1        2 0.27786576E+00 0.18466058E+04</pdfrwt>
<pdfrwt beam="2">  1       -2 0.72615055E-01 0.18466058E+04</pdfrwt>
<totfact> 0.13809609E+01</totfact>
</mgrwt>
</event>
<event>
 6    1  0.2325157E-005  0.1885353E+04  0.7818608E-02  0.8662182E-01
          2   -1    0    0  501    0  0.00000000000E+00  0.00000000000E+00  0.32544378274E+04  0.32544378274E+04  0.00000000000E+00 0.  1.
         -2   -1    0    0    0  501 -0.00000000000E+00 -0.00000000000E+00 -0.27305443224E+03  0.27305443224E+03  0.00000000000E+00 0. -1.
         23    2    1    2    0    0 -0.44885553997E+03  0.41906737098E+03  0.28269084889E+04  0.28942851420E+04  0.91575767867E+02 0.  0.
         11    1    3    3    0    0 -0.81229530700E+02  0.60032351345E+02  0.33275843019E+03  0.34775033103E+03  0.00000000000E+00 0. -1.
        -11    1    3    3    0    0 -0.36762600928E+03  0.35903501963E+03  0.24941500587E+04  0.25465348109E+04  0.00000000000E+00 0.  1.
         22    1    1    2    0    0  0.44885553997E+03 -0.41906737098E+03  0.15447490625E+03  0.63320711765E+03  0.00000000000E+00 0. -1.
<mgrwt>
<rscale>  0 0.18853527E+04</rscale>
<asrwt>0</asrwt>
<pdfrwt beam="1">  1        2 0.50068272E+00 0.18853527E+04</pdfrwt>
<pdfrwt beam="2">  1       -2 0.42008376E-01 0.18853527E+04</pdfrwt>
<totfact> 0.60434208E+00</totfact>
</mgrwt>
</event>
<event>
 6    1  0.2325157E-005  0.1573431E+04  0.7818608E-02  0.8837039E-01
         -2   -1    0    0    0  501 -0.00000000000E+00  0.00000000000E+00  0.13974635022E+04  0.13974635022E+04  0.00000000000E+00 0. -1.
          2   -1    0    0  501    0  0.00000000000E+00 -0.00000000000E+00 -0.44288911175E+03  0.44288911175E+03  0.00000000000E+00 0.  1.
         23    2    1    2    0    0  0.40041387968E+03 -0.66745154104E+03  0.59103177175E+03  0.98129145764E+03  0.88269671751E+02 0.  0.
         11    1    3    3    0    0  0.23380620677E+02 -0.66305576305E+02  0.28893953805E+02  0.76012784707E+02  0.00000000000E+00 0. -1.
        -11    1    3    3    0    0  0.37703325900E+03 -0.60114596473E+03  0.56213781795E+03  0.90527867294E+03  0.00000000000E+00 0.  1.
         22    1    1    2    0    0 -0.40041387968E+03  0.66745154104E+03  0.36354261871E+03  0.85906115632E+03  0.00000000000E+00 0.  1.
<mgrwt>
<rscale>  0 0.15734311E+04</rscale>
<asrwt>0</asrwt>
<pdfrwt beam="1">  1        2 0.68136787E-01 0.15734311E+04</pdfrwt>
<pdfrwt beam="2">  1       -2 0.21499438E+00 0.15734311E+04</pdfrwt>
<totfact> 0.72328181E+00</totfact>
</mgrwt>
</event>
<event>
 6    1  0.2382686E-005  0.3647704E+04  0.7818608E-02  0.8079651E-01
          2   -1    0    0  501    0  0.00000000000E+00  0.00000000000E+00  0.27332667255E+04  0.27332667255E+04  0.00000000000E+00 0.  1.
         -2   -1    0    0    0  501 -0.00000000000E+00 -0.00000000000E+00 -0.12170184681E+04  0.12170184681E+04  0.00000000000E+00 0. -1.
         23    2    1    2    0    0  0.99371105214E+03 -0.56223639654E+02  0.24122230069E+04  0.26111087658E+04  0.91904294972E+02 0.  0.
         11    1    3    3    0    0  0.32319958959E+03 -0.46842762444E+01  0.67955413150E+03  0.75251161771E+03  0.00000000000E+00 0. -1.
        -11    1    3    3    0    0  0.67051146255E+03 -0.51539363409E+02  0.17326688754E+04  0.18585971481E+04  0.00000000000E+00 0.  1.
         22    1    1    2    0    0 -0.99371105214E+03  0.56223639654E+02 -0.89597474946E+03  0.13391764277E+04  0.00000000000E+00 0. -1.
<mgrwt>
<rscale>  0 0.36477040E+04</rscale>
<asrwt>0</asrwt>
<pdfrwt beam="1">  1        2 0.42050257E+00 0.36477040E+04</pdfrwt>
<pdfrwt beam="2">  1       -2 0.18723361E+00 0.36477040E+04</pdfrwt>
<totfact> 0.33312141E-01</totfact>
</mgrwt>
</event>
<event>
 6    1  0.2325157E-005  0.8482635E+03  0.7818608E-02  0.9492671E-01
         -2   -1    0    0    0  501 -0.00000000000E+00  0.00000000000E+00  0.11037011411E+03  0.11037011411E+03  0.00000000000E+00 0. -1.
          2   -1    0    0  501    0  0.00000000000E+00 -0.00000000000E+00 -0.16298592893E+04  0.16298592893E+04  0.00000000000E+00 0.  1.
         23    2    1    2    0    0  0.33765782923E+03 -0.20950592263E+02 -0.26272112909E+03  0.43872348384E+03  0.94890287443E+02 0.  0.
         13    1    3    3    0    0  0.16876666953E+03  0.10549822021E+01 -0.18827484922E+03  0.25284525026E+03  0.00000000000E+00 0.  1.
        -13    1    3    3    0    0  0.16889115970E+03 -0.22005574465E+02 -0.74446279863E+02  0.18587823358E+03  0.00000000000E+00 0. -1.
         22    1    1    2    0    0 -0.33765782923E+03  0.20950592263E+02 -0.12567680461E+04  0.13015059196E+04  0.00000000000E+00 0.  1.
<mgrwt>
<rscale>  0 0.84826353E+03</rscale>
<asrwt>0</asrwt>
<pdfrwt beam="1">  1        2 0.25074757E+00 0.84826353E+03</pdfrwt>
<pdfrwt beam="2">  1       -2 0.16980018E-01 0.84826353E+03</pdfrwt>
<totfact> 0.30702515E+02</totfact>
</mgrwt>
</event>
<event>
 6    1  0.2325157E-005  0.1378045E+04  0.7818608E-02  0.8969866E-01
          2   -1    0    0  501    0  0.00000000000E+00  0.00000000000E+00  0.12724759204E+04  0.12724759204E+04  0.00000000000E+00 0.  1.
         -2   -1    0    0    0  501 -0.00000000000E+00 -0.00000000000E+00 -0.37309319360E+03  0.37309319360E+03  0.00000000000E+00 0. -1.
         23    2    1    2    0    0 -0.29675428053E+03  0.25303048139E+01 -0.28705434460E+03  0.42257997675E+03  0.90022966763E+02 0.  0.
         11    1    3    3    0    0 -0.20917260452E+03  0.42277104418E+02 -0.20919981117E+03  0.29883957743E+03  0.00000000000E+00 0.  1.
        -11    1    3    3    0    0 -0.87581676004E+02 -0.39746799604E+02 -0.77854533423E+02  0.12374039932E+03  0.00000000000E+00 0. -1.
         22    1    1    2    0    0  0.29675428053E+03 -0.25303048139E+01  0.11864370714E+04  0.12229891373E+04  0.00000000000E+00 0.  1.
<mgrwt>
<rscale>  0 0.13780451E+04</rscale>
<asrwt>0</asrwt>
<pdfrwt beam="1">  1        2 0.19576552E+00 0.13780451E+04</pdfrwt>
<pdfrwt beam="2">  1       -2 0.57398954E-01 0.13780451E+04</pdfrwt>
<totfact> 0.47553385E+01</totfact>
</mgrwt>
</event>
<event>
 6    1  0.2325157E-005  0.1455969E+04  0.7818608E-02  0.8914273E-01
          2   -1    0    0  501    0  0.00000000000E+00  0.00000000000E+00  0.19536045962E+04  0.19536045962E+04  0.00000000000E+00 0.  1.
         -2   -1    0    0    0  501 -0.00000000000E+00 -0.00000000000E+00 -0.27127345630E+03  0.27127345630E+03  0.00000000000E+00 0. -1.
         23    2    1    2    0    0 -0.30038980447E+03  0.39239072498E+03  0.34146886914E+02  0.50420497273E+03  0.94085753212E+02 0.  0.
         11    1    3    3    0    0 -0.82972126946E+02  0.17111399273E+03 -0.12133174286E+02  0.19055599250E+03  0.00000000000E+00 0. -1.
        -11    1    3    3    0    0 -0.21741767753E+03  0.22127673225E+03  0.46280061200E+02  0.31364898023E+03  0.00000000000E+00 0.  1.
         22    1    1    2    0    0  0.30038980447E+03 -0.39239072498E+03  0.16481842530E+04  0.17206730798E+04  0.00000000000E+00 0.  1.
<mgrwt>
<rscale>  0 0.14559685E+04</rscale>
<asrwt>0</asrwt>
<pdfrwt beam="1">  1        2 0.30055455E+00 0.14559685E+04</pdfrwt>
<pdfrwt beam="2">  1       -2 0.41734379E-01 0.14559685E+04</pdfrwt>
<totfact> 0.37403438E+01</totfact>
</mgrwt>
</event>
<event>
 6    1  0.2664009E-005  0.3454338E+04  0.7818608E-02  0.8124697E-01
          2   -1    0    0  501    0  0.00000000000E+00  0.00000000000E+00  0.16180635547E+04  0.16180635547E+04  0.00000000000E+00 0.  1.
         -2   -1    0    0    0  501 -0.00000000000E+00 -0.00000000000E+00 -0.18436309417E+04  0.18436309417E+04  0.00000000000E+00 0. -1.
         23    2    1    2    0    0  0.60258930581E+03 -0.60466944428E+03  0.13904834338E+04  0.16340295206E+04  0.88708996746E+02 0.  0.
         13    1    3    3    0    0  0.36765925141E+03 -0.34515468011E+03  0.74292808942E+03  0.89791270422E+03  0.00000000000E+00 0.  1.
        -13    1    3    3    0    0  0.23493005440E+03 -0.25951476418E+03  0.64755534436E+03  0.73611681634E+03  0.00000000000E+00 0. -1.
         22    1    1    2    0    0 -0.60258930581E+03  0.60466944428E+03 -0.16160508208E+04  0.18276649758E+04  0.00000000000E+00 0. -1.
<mgrwt>
<rscale>  0 0.34543376E+04</rscale>
<asrwt>0</asrwt>
<pdfrwt beam="1">  1        2 0.24893285E+00 0.34543376E+04</pdfrwt>
<pdfrwt beam="2">  1       -2 0.28363553E+00 0.34543376E+04</pdfrwt>
<totfact> 0.35958122E-01</totfact>
</mgrwt>
</event>
<event>
 6    1  0.2325157E-005  0.1107570E+04  0.7818608E-02  0.9197844E-01
         -1   -1    0    0    0  501 -0.00000000000E+00  0.00000000000E+00  0.30876960864E+03  0.30876960864E+03  0.00000000000E+00 0. -1.
          1   -1    0    0  501    0  0.00000000000E+00 -0.00000000000E+00 -0.99322616701E+03  0.99322616701E+03  0.00000000000E+00 0.  1.
         23    2    1    2    0    0 -0.37285310341E+03 -0.30559035661E+03 -0.65615193544E+03  0.81908164825E+03  0.89187899037E+02 0.  0.
         11    1    3    3    0    0 -0.30558462815E+03 -0.20096635896E+03 -0.48114500586E+03  0.60437567709E+03  0.00000000000E+00 0. -1.
        -11    1    3    3    0    0 -0.67268475260E+02 -0.10462399765E+03 -0.17500692959E+03  0.21470597116E+03  0.00000000000E+00 0.  1.
         22    1    1    2    0    0  0.37285310341E+03  0.30559035661E+03 -0.28304622924E+02  0.48291412741E+03  0.00000000000E+00 0. -1.
<mgrwt>
<rscale>  0 0.11075704E+04</rscale>
<asrwt>0</asrwt>
<pdfrwt beam="1">  1        1 0.15280403E+00 0.11075704E+04</pdfrwt>
<pdfrwt beam="2">  1       -1 0.47503016E-01 0.11075704E+04</pdfrwt>
<totfact> 0.67456410E+01</totfact>
</mgrwt>
</event>
<event>
 6    1  0.2325157E-005  0.3367909E+04  0.7818608E-02  0.8145828E-01
          2   -1    0    0  501    0  0.00000000000E+00  0.00000000000E+00  0.16500048768E+04  0.16500048768E+04  0.00000000000E+00 0. -1.
         -2   -1    0    0    0  501 -0.00000000000E+00 -0.00000000000E+00 -0.17186029197E+04  0.17186029197E+04  0.00000000000E+00 0.  1.
         23    2    1    2    0    0 -0.15306544689E+04 -0.59704533522E+03  0.32903272292E+03  0.16782006084E+04  0.93426517032E+02 0.  0.
         11    1    3    3    0    0 -0.13123167649E+04 -0.53883913204E+03  0.30414435487E+03  0.14508710109E+04  0.00000000000E+00 0. -1.
        -11    1    3    3    0    0 -0.21833770395E+03 -0.58206203186E+02  0.24888368054E+02  0.22732959754E+03  0.00000000000E+00 0.  1.
         22    1    1    2    0    0  0.15306544689E+04  0.59704533522E+03 -0.39763076584E+03  0.16904071880E+04  0.00000000000E+00 0.  1.
<mgrwt>
<rscale>  0 0.33679093E+04</rscale>
<asrwt>0</asrwt>
<pdfrwt beam="1">  1        2 0.25384690E+00 0.33679093E+04</pdfrwt>
<pdfrwt beam="2">  1       -2 0.26440045E+00 0.33679093E+04</pdfrwt>
<totfact> 0.45547665E-01</totfact>
</mgrwt>
</event>
<event>
 6    1  0.2325157E-005  0.4109524E+03  0.7818608E-02  0.1040052E+00
          2   -1    0    0  501    0  0.00000000000E+00  0.00000000000E+00  0.16679573077E+04  0.16679573077E+04  0.00000000000E+00 0.  1.
         -2   -1    0    0    0  501 -0.00000000000E+00 -0.00000000000E+00 -0.25312679011E+02  0.25312679011E+02  0.00000000000E+00 0. -1.
         23    2    1    2    0    0 -0.15786205900E+02 -0.41161006540E+02  0.16459440884E+04  0.16490623042E+04  0.91274904321E+02 0.  0.
         11    1    3    3    0    0 -0.39019760459E+02  0.12672895486E+02  0.53416787318E+03  0.53574103886E+03  0.00000000000E+00 0.  1.
        -11    1    3    3    0    0  0.23233554560E+02 -0.53833902027E+02  0.11117762152E+04  0.11133212653E+04  0.00000000000E+00 0. -1.
         22    1    1    2    0    0  0.15786205900E+02  0.41161006540E+02 -0.32994597604E+01  0.44207682487E+02  0.00000000000E+00 0. -1.
<mgrwt>
<rscale>  0 0.41095240E+03</rscale>
<asrwt>0</asrwt>
<pdfrwt beam="1">  1        2 0.25660873E+00 0.41095240E+03</pdfrwt>
<pdfrwt beam="2">  1       -2 0.38942596E-02 0.41095240E+03</pdfrwt>
<totfact> 0.31738287E+03</totfact>
</mgrwt>
</event>
<event>
 6    1  0.2325157E-005  0.1790181E+04  0.7818608E-02  0.8711538E-01
          2   -1    0    0  501    0  0.00000000000E+00  0.00000000000E+00  0.20766597900E+04  0.20766597900E+04  0.00000000000E+00 0.  1.
         -2   -1    0    0    0  501 -0.00000000000E+00 -0.00000000000E+00 -0.38580582024E+03  0.38580582024E+03  0.00000000000E+00 0. -1.
         23    2    1    2    0    0  0.22555996167E+03  0.48361247004E+03  0.18319949071E+04  0.19104881817E+04  0.94875893485E+02 0.  0.
         13    1    3    3    0    0  0.40505346283E+02  0.16761820958E+03  0.49139976017E+03  0.52077852448E+03  0.00000000000E+00 0.  1.
        -13    1    3    3    0    0  0.18505461539E+03  0.31599426046E+03  0.13405951469E+04  0.13897096572E+04  0.00000000000E+00 0. -1.
         22    1    1    2    0    0 -0.22555996167E+03 -0.48361247004E+03 -0.14114093733E+03  0.55197742859E+03  0.00000000000E+00 0. -1.
<mgrwt>
<rscale>  0 0.17901815E+04</rscale>
<asrwt>0</asrwt>
<pdfrwt beam="1">  1        2 0.31948611E+00 0.17901815E+04</pdfrwt>
<pdfrwt beam="2">  1       -2 0.59354743E-01 0.17901815E+04</pdfrwt>
<totfact> 0.15160829E+01</totfact>
</mgrwt>
</event>
<event>
 6    1  0.2325157E-005  0.1063648E+04  0.7818608E-02  0.9241366E-01
          2   -1    0    0  501    0  0.00000000000E+00  0.00000000000E+00  0.16635536470E+04  0.16635536470E+04  0.00000000000E+00 0.  1.
         -2   -1    0    0    0  501 -0.00000000000E+00 -0.00000000000E+00 -0.17001964754E+03  0.17001964754E+03  0.00000000000E+00 0. -1.
         23    2    1    2    0    0  0.21600330974E+03  0.20925535335E+02  0.15819104264E+04  0.15992536396E+04  0.89868230968E+02 0.  0.
         11    1    3    3    0    0  0.10450389460E+03 -0.30742538733E+02  0.87310671531E+03  0.87987584578E+03  0.00000000000E+00 0. -1.
        -11    1    3    3    0    0  0.11149941515E+03  0.51668074069E+02  0.70880371108E+03  0.71937779386E+03  0.00000000000E+00 0.  1.
         22    1    1    2    0    0 -0.21600330974E+03 -0.20925535335E+02 -0.88376426904E+02  0.23431965492E+03  0.00000000000E+00 0. -1.
<mgrwt>
<rscale>  0 0.10636481E+04</rscale>
<asrwt>0</asrwt>
<pdfrwt beam="1">  1        2 0.25593132E+00 0.10636481E+04</pdfrwt>
<pdfrwt beam="2">  1       -2 0.26156870E-01 0.10636481E+04</pdfrwt>
<totfact> 0.13505859E+02</totfact>
</mgrwt>
</event>
<event>
 6    1  0.2325157E-005  0.3190280E+04  0.7818608E-02  0.8191389E-01
          2   -1    0    0  501    0  0.00000000000E+00  0.00000000000E+00  0.29937545797E+04  0.29937545797E+04  0.00000000000E+00 0.  1.
         -2   -1    0    0    0  501 -0.00000000000E+00 -0.00000000000E+00 -0.84992669240E+03  0.84992669240E+03  0.00000000000E+00 0. -1.
         23    2    1    2    0    0 -0.29320580414E+03 -0.15584741886E+04  0.12648079106E+04  0.20305382663E+04  0.92385929599E+02 0.  0.
         13    1    3    3    0    0 -0.14140467089E+03 -0.61115246075E+03  0.54758140309E+03  0.83267520933E+03  0.00000000000E+00 0. -1.
        -13    1    3    3    0    0 -0.15180113325E+03 -0.94732172785E+03  0.71722650748E+03  0.11978630569E+04  0.00000000000E+00 0.  1.
         22    1    1    2    0    0  0.29320580414E+03  0.15584741886E+04  0.87901997672E+03  0.18131430058E+04  0.00000000000E+00 0. -1.
<mgrwt>
<rscale>  0 0.31902802E+04</rscale>
<asrwt>0</asrwt>
<pdfrwt beam="1">  1        2 0.46057762E+00 0.31902802E+04</pdfrwt>
<pdfrwt beam="2">  1       -2 0.13075795E+00 0.31902802E+04</pdfrwt>
<totfact> 0.63317808E-01</totfact>
</mgrwt>
</event>
<event>
 6    1  0.2325157E-005  0.1189338E+04  0.7818608E-02  0.9122240E-01
          4   -1    0    0  501    0  0.00000000000E+00  0.00000000000E+00  0.67332062124E+03  0.67332062124E+03  0.00000000000E+00 0.  1.
         -4   -1    0    0    0  501 -0.00000000000E+00 -0.00000000000E+00 -0.52520498410E+03  0.52520498410E+03  0.00000000000E+00 0. -1.
         23    2    1    2    0    0  0.22629384693E+03  0.16671330999E+03  0.59862716456E+03  0.66752384525E+03  0.90726892043E+02 0.  0.
         11    1    3    3    0    0  0.17901441822E+03  0.10379041503E+03  0.50148028881E+03  0.54249524629E+03  0.00000000000E+00 0. -1.
        -11    1    3    3    0    0  0.47279428713E+02  0.62922894963E+02  0.97146875755E+02  0.12502859896E+03  0.00000000000E+00 0.  1.
         22    1    1    2    0    0 -0.22629384693E+03 -0.16671330999E+03 -0.45051152741E+03  0.53100176009E+03  0.00000000000E+00 0. -1.
<mgrwt>
<rscale>  0 0.11893382E+04</rscale>
<asrwt>0</asrwt>
<pdfrwt beam="1">  1        4 0.10358779E+00 0.11893382E+04</pdfrwt>
<pdfrwt beam="2">  1       -4 0.80800767E-01 0.11893382E+04</pdfrwt>
<totfact> 0.20260139E+00</totfact>
</mgrwt>
</event>
<event>
 6    1  0.2325157E-005  0.2314170E+04  0.7818608E-02  0.8472355E-01
         -2   -1    0    0    0  501 -0.00000000000E+00  0.00000000000E+00  0.64726101319E+03  0.64726101319E+03  0.00000000000E+00 0. -1.
          2   -1    0    0  501    0  0.00000000000E+00 -0.00000000000E+00 -0.20684794020E+04  0.20684794020E+04  0.00000000000E+00 0.  1.
         23    2    1    2    0    0  0.79546552305E+03  0.71271531114E+03 -0.19337698113E+03  0.10883735126E+04  0.80210554663E+02 0.  0.
         11    1    3    3    0    0  0.55201889218E+03  0.46925528825E+03 -0.16385739657E+03  0.74281533997E+03  0.00000000000E+00 0. -1.
        -11    1    3    3    0    0  0.24344663087E+03  0.24346002289E+03 -0.29519584559E+02  0.34555817267E+03  0.00000000000E+00 0.  1.
         22    1    1    2    0    0 -0.79546552305E+03 -0.71271531114E+03 -0.12278414077E+04  0.16273669025E+04  0.00000000000E+00 0.  1.
<mgrwt>
<rscale>  0 0.23141703E+04</rscale>
<asrwt>0</asrwt>
<pdfrwt beam="1">  1        2 0.31822760E+00 0.23141703E+04</pdfrwt>
<pdfrwt beam="2">  1       -2 0.99578618E-01 0.23141703E+04</pdfrwt>
<totfact> 0.46227073E+00</totfact>
</mgrwt>
</event>
<event>
 6    1  0.2325157E-005  0.5342490E+04  0.7818608E-02  0.7777742E-01
          2   -1    0    0  501    0  0.00000000000E+00  0.00000000000E+00  0.36745461776E+04  0.36745461776E+04  0.00000000000E+00 0.  1.
         -2   -1    0    0    0  501 -0.00000000000E+00 -0.00000000000E+00 -0.19418858388E+04  0.19418858388E+04  0.00000000000E+00 0. -1.
         23    2    1    2    0    0 -0.17435759268E+04  0.20218160752E+04  0.80611294607E+03  0.27904300126E+04  0.94256665636E+02 0.  0.
         11    1    3    3    0    0 -0.51172670792E+03  0.55646506240E+03  0.19185147778E+03  0.77995165157E+03  0.00000000000E+00 0.  1.
        -11    1    3    3    0    0 -0.12318492189E+04  0.14653510128E+04  0.61426146830E+03  0.20104783610E+04  0.00000000000E+00 0. -1.
         22    1    1    2    0    0  0.17435759268E+04 -0.20218160752E+04  0.92654739280E+03  0.28260020038E+04  0.00000000000E+00 0. -1.
<mgrwt>
<rscale>  0 0.53424898E+04</rscale>
<asrwt>0</asrwt>
<pdfrwt beam="1">  1        2 0.56531479E+00 0.53424898E+04</pdfrwt>
<pdfrwt beam="2">  1       -2 0.29875167E+00 0.53424898E+04</pdfrwt>
<totfact> 0.13928602E-02</totfact>
</mgrwt>
</event>
<event>
 6    1  0.2325157E-005  0.3110545E+04  0.7818608E-02  0.8212850E-01
         -2   -1    0    0    0  501 -0.00000000000E+00  0.00000000000E+00  0.51790495048E+03  0.51790495048E+03  0.00000000000E+00 0. -1.
          2   -1    0    0  501    0  0.00000000000E+00 -0.00000000000E+00 -0.46704948914E+04  0.46704948914E+04  0.00000000000E+00 0.  1.
         23    2    1    2    0    0 -0.10708528217E+03 -0.18698409741E+03 -0.46450155342E+04  0.46508933068E+04  0.90603135841E+02 0.  0.
         13    1    3    3    0    0 -0.10339562350E+03 -0.11519725452E+03 -0.25904847285E+04  0.25951054297E+04  0.00000000000E+00 0. -1.
        -13    1    3    3    0    0 -0.36896586665E+01 -0.71786842893E+02 -0.20545308057E+04  0.20557878771E+04  0.00000000000E+00 0.  1.
         22    1    1    2    0    0  0.10708528217E+03  0.18698409741E+03  0.49242559326E+03  0.53750653507E+03  0.00000000000E+00 0. -1.
<mgrwt>
<rscale>  0 0.31105449E+04</rscale>
<asrwt>0</asrwt>
<pdfrwt beam="1">  1        2 0.71853764E+00 0.31105449E+04</pdfrwt>
<pdfrwt beam="2">  1       -2 0.79677689E-01 0.31105449E+04</pdfrwt>
<totfact> 0.97430692E-02</totfact>
</mgrwt>
</event>
<event>
 6    1  0.2325157E-005  0.3417461E+04  0.7818608E-02  0.8133634E-01
         -2   -1    0    0    0  501 -0.00000000000E+00  0.00000000000E+00  0.12755857022E+04  0.12755857022E+04  0.00000000000E+00 0. -1.
          2   -1    0    0  501    0  0.00000000000E+00 -0.00000000000E+00 -0.22889558828E+04  0.22889558828E+04  0.00000000000E+00 0.  1.
         23    2    1    2    0    0  0.21982002717E+03  0.15496236061E+04  0.20498923246E+03  0.15810966464E+04  0.90508866793E+02 0.  0.
         11    1    3    3    0    0  0.18081589616E+03  0.12147127558E+04  0.12406842999E+03  0.12343477803E+04  0.00000000000E+00 0.  1.
        -11    1    3    3    0    0  0.39004131012E+02  0.33491085032E+03  0.80920802468E+02  0.34674886614E+03  0.00000000000E+00 0. -1.
         22    1    1    2    0    0 -0.21982002717E+03 -0.15496236061E+04 -0.12183594131E+04  0.19834449386E+04  0.00000000000E+00 0.  1.
<mgrwt>
<rscale>  0 0.34174607E+04</rscale>
<asrwt>0</asrwt>
<pdfrwt beam="1">  1        2 0.35214706E+00 0.34174607E+04</pdfrwt>
<pdfrwt beam="2">  1       -2 0.19624395E+00 0.34174607E+04</pdfrwt>
<totfact> 0.53578890E-01</totfact>
</mgrwt>
</event>
<event>
 6    1  0.2325157E-005  0.2670682E+04  0.7818608E-02  0.8344581E-01
         -2   -1    0    0    0  501 -0.00000000000E+00  0.00000000000E+00  0.51876317123E+03  0.51876317123E+03  0.00000000000E+00 0. -1.
          2   -1    0    0  501    0  0.00000000000E+00 -0.00000000000E+00 -0.34372837511E+04  0.34372837511E+04  0.00000000000E+00 0.  1.
         23    2    1    2    0    0  0.89286979402E+03  0.46291386425E+03 -0.16327131177E+03  0.10229761349E+04  0.91197239670E+02 0.  0.
         11    1    3    3    0    0  0.73289521709E+03  0.35366344242E+03 -0.10395341455E+03  0.82037768262E+03  0.00000000000E+00 0. -1.
        -11    1    3    3    0    0  0.15997457693E+03  0.10925042182E+03 -0.59317897226E+02  0.20259845228E+03  0.00000000000E+00 0.  1.
         22    1    1    2    0    0 -0.89286979402E+03 -0.46291386425E+03 -0.27552492681E+04  0.29330707874E+04  0.00000000000E+00 0.  1.
<mgrwt>
<rscale>  0 0.26706825E+04</rscale>
<asrwt>0</asrwt>
<pdfrwt beam="1">  1        2 0.52881288E+00 0.26706825E+04</pdfrwt>
<pdfrwt beam="2">  1       -2 0.79809720E-01 0.26706825E+04</pdfrwt>
<totfact> 0.10987441E+00</totfact>
</mgrwt>
</event>
<event>
 6    1  0.2325157E-005  0.1920750E+04  0.7818608E-02  0.8644596E-01
          2   -1    0    0  501    0  0.00000000000E+00  0.00000000000E+00  0.10232190607E+04  0.10232190607E+04  0.00000000000E+00 0.  1.
         -2   -1    0    0    0  501 -0.00000000000E+00 -0.00000000000E+00 -0.90139094247E+03  0.90139094247E+03  0.00000000000E+00 0. -1.
         23    2    1    2    0    0  0.33216504387E+03  0.36806846887E+03  0.88260697464E+03  0.10165392556E+04  0.92460652900E+02 0.  0.
         13    1    3    3    0    0  0.27495651432E+03  0.30483845077E+03  0.79229464278E+03  0.89233310306E+03  0.00000000000E+00 0.  1.
        -13    1    3    3    0    0  0.57208529546E+02  0.63230018092E+02  0.90312331859E+02  0.12420615253E+03  0.00000000000E+00 0. -1.
         22    1    1    2    0    0 -0.33216504387E+03 -0.36806846887E+03 -0.76077885644E+03  0.90807074754E+03  0.00000000000E+00 0. -1.
<mgrwt>
<rscale>  0 0.19207503E+04</rscale>
<asrwt>0</asrwt>
<pdfrwt beam="1">  1        2 0.15741832E+00 0.19207503E+04</pdfrwt>
<pdfrwt beam="2">  1       -2 0.13867553E+00 0.19207503E+04</pdfrwt>
<totfact> 0.83782156E+00</totfact>
</mgrwt>
</event>
<event>
 6    1  0.2570853E-005  0.3948926E+04  0.7818608E-02  0.8014930E-01
         -2   -1    0    0    0  501 -0.00000000000E+00  0.00000000000E+00  0.12533091352E+04  0.12533091352E+04  0.00000000000E+00 0. -1.
          2   -1    0    0  501    0  0.00000000000E+00 -0.00000000000E+00 -0.31105687306E+04  0.31105687306E+04  0.00000000000E+00 0.  1.
         23    2    1    2    0    0 -0.61314971683E+03 -0.28549245435E+03  0.11195856948E+04  0.13111632709E+04  0.90655822083E+02 0.  0.
         13    1    3    3    0    0 -0.15572441246E+03 -0.35271094608E+02  0.29853888876E+03  0.33855518140E+03  0.00000000000E+00 0.  1.
        -13    1    3    3    0    0 -0.45742530437E+03 -0.25022135974E+03  0.82104680606E+03  0.97260808946E+03  0.00000000000E+00 0. -1.
         22    1    1    2    0    0  0.61314971683E+03  0.28549245435E+03 -0.29768452902E+04  0.30527145950E+04  0.00000000000E+00 0.  1.
<mgrwt>
<rscale>  0 0.39489260E+04</rscale>
<asrwt>0</asrwt>
<pdfrwt beam="1">  1        2 0.47854903E+00 0.39489260E+04</pdfrwt>
<pdfrwt beam="2">  1       -2 0.19281679E+00 0.39489260E+04</pdfrwt>
<totfact> 0.17403391E-01</totfact>
</mgrwt>
</event>
<event>
 6    1  0.2325157E-005  0.2139932E+04  0.7818608E-02  0.8543854E-01
          2   -1    0    0  501    0  0.00000000000E+00  0.00000000000E+00  0.12152797154E+04  0.12152797154E+04  0.00000000000E+00 0.  1.
         -2   -1    0    0    0  501 -0.00000000000E+00 -0.00000000000E+00 -0.94202810443E+03  0.94202810443E+03  0.00000000000E+00 0. -1.
         23    2    1    2    0    0  0.58921524876E+03  0.57110926880E+03  0.82589362119E+03  0.11679880547E+04  0.93570380593E+02 0.  0.
         13    1    3    3    0    0  0.16457154552E+03  0.17384500366E+03  0.30135782841E+03  0.38486675569E+03  0.00000000000E+00 0. -1.
        -13    1    3    3    0    0  0.42464370324E+03  0.39726426514E+03  0.52453579279E+03  0.78312129901E+03  0.00000000000E+00 0.  1.
         22    1    1    2    0    0 -0.58921524876E+03 -0.57110926880E+03 -0.55264201019E+03  0.98931976515E+03  0.00000000000E+00 0. -1.
<mgrwt>
<rscale>  0 0.21399324E+04</rscale>
<asrwt>0</asrwt>
<pdfrwt beam="1">  1        2 0.18696611E+00 0.21399324E+04</pdfrwt>
<pdfrwt beam="2">  1       -2 0.14492740E+00 0.21399324E+04</pdfrwt>
<totfact> 0.55903507E+00</totfact>
</mgrwt>
</event>
<event>
 6    1  0.2325157E-005  0.1234398E+04  0.7818608E-02  0.9083269E-01
          2   -1    0    0  501    0  0.00000000000E+00  0.00000000000E+00  0.12527313551E+04  0.12527313551E+04  0.00000000000E+00 0.  1.
         -2   -1    0    0    0  501 -0.00000000000E+00 -0.00000000000E+00 -0.30408345312E+03  0.30408345312E+03  0.00000000000E+00 0. -1.
         23    2    1    2    0    0 -0.45486447283E+03  0.28530419417E+03  0.85202341674E+03  0.10112541214E+04  0.91601438074E+02 0.  0.
         13    1    3    3    0    0 -0.35863694380E+03  0.25873570254E+03  0.65384945599E+03  0.78935653055E+03  0.00000000000E+00 0.  1.
        -13    1    3    3    0    0 -0.96227529036E+02  0.26568491631E+02  0.19817396075E+03  0.22189759082E+03  0.00000000000E+00 0. -1.
         22    1    1    2    0    0  0.45486447283E+03 -0.28530419417E+03  0.96624485200E+02  0.54556068682E+03  0.00000000000E+00 0. -1.
<mgrwt>
<rscale>  0 0.12343984E+04</rscale>
<asrwt>0</asrwt>
<pdfrwt beam="1">  1        2 0.19272790E+00 0.12343984E+04</pdfrwt>
<pdfrwt beam="2">  1       -2 0.46782071E-01 0.12343984E+04</pdfrwt>
<totfact> 0.75119364E+01</totfact>
</mgrwt>
</event>
<event>
 6    1  0.2325157E-005  0.4765492E+04  0.7818608E-02  0.7865737E-01
          2   -1    0    0  501    0  0.00000000000E+00  0.00000000000E+00  0.20313226150E+04  0.20313226150E+04  0.00000000000E+00 0.  1.
         -2   -1    0    0    0  501 -0.00000000000E+00 -0.00000000000E+00 -0.27949668220E+04  0.27949668220E+04  0.00000000000E+00 0. -1.
         23    2    1    2    0    0 -0.86865568930E+03  0.14188019944E+04 -0.21083458099E+04  0.26871811632E+04  0.90877628917E+02 0.  0.
         13    1    3    3    0    0 -0.10138646630E+03  0.12998857327E+03 -0.24201621357E+03  0.29282775203E+03  0.00000000000E+00 0.  1.
        -13    1    3    3    0    0 -0.76726922301E+03  0.12888134212E+04 -0.18663295964E+04  0.23943534111E+04  0.00000000000E+00 0. -1.
         22    1    1    2    0    0  0.86865568930E+03 -0.14188019944E+04  0.13447016030E+04  0.21391082738E+04  0.00000000000E+00 0.  1.
<mgrwt>
<rscale>  0 0.47654923E+04</rscale>
<asrwt>0</asrwt>
<pdfrwt beam="1">  1        2 0.31251117E+00 0.47654923E+04</pdfrwt>
<pdfrwt beam="2">  1       -2 0.42999490E+00 0.47654923E+04</pdfrwt>
<totfact> 0.22443106E-02</totfact>
</mgrwt>
</event>
<event>
 6    1  0.2325157E-005  0.3533117E+04  0.7818608E-02  0.8105986E-01
         -2   -1    0    0    0  501 -0.00000000000E+00  0.00000000000E+00  0.11408320386E+04  0.11408320386E+04  0.00000000000E+00 0. -1.
          2   -1    0    0  501    0  0.00000000000E+00 -0.00000000000E+00 -0.27354847317E+04  0.27354847317E+04  0.00000000000E+00 0.  1.
         23    2    1    2    0    0 -0.49755885815E+02 -0.77060490958E+03  0.94394698785E+03  0.12228669564E+04  0.89778072363E+02 0.  0.
         11    1    3    3    0    0  0.41944433258E+01 -0.45858797916E+03  0.51317025518E+03  0.68823269233E+03  0.00000000000E+00 0.  1.
        -11    1    3    3    0    0 -0.53950329141E+02 -0.31201693041E+03  0.43077673267E+03  0.53463426404E+03  0.00000000000E+00 0. -1.
         22    1    1    2    0    0  0.49755885815E+02  0.77060490958E+03 -0.25385996810E+04  0.26534498139E+04  0.00000000000E+00 0.  1.
<mgrwt>
<rscale>  0 0.35331168E+04</rscale>
<asrwt>0</asrwt>
<pdfrwt beam="1">  1        2 0.42084380E+00 0.35331168E+04</pdfrwt>
<pdfrwt beam="2">  1       -2 0.17551262E+00 0.35331168E+04</pdfrwt>
<totfact> 0.40369490E-01</totfact>
</mgrwt>
</event>
<event>
 6    1  0.2325157E-005  0.1840050E+04  0.7818608E-02  0.8685286E-01
          2   -1    0    0  501    0  0.00000000000E+00  0.00000000000E+00  0.37696941457E+04  0.37696941457E+04  0.00000000000E+00 0.  1.
         -2   -1    0    0    0  501 -0.00000000000E+00 -0.00000000000E+00 -0.22453977064E+03  0.22453977064E+03  0.00000000000E+00 0. -1.
         23    2    1    2    0    0 -0.78586442547E+03  0.22300830516E+03  0.86967434639E+03  0.11968227948E+04  0.93465148022E+02 0.  0.
         13    1    3    3    0    0 -0.46387967262E+03  0.86724598188E+02  0.47561105883E+03  0.67000849687E+03  0.00000000000E+00 0.  1.
        -13    1    3    3    0    0 -0.32198475285E+03  0.13628370697E+03  0.39406328756E+03  0.52681429789E+03  0.00000000000E+00 0. -1.
         22    1    1    2    0    0  0.78586442547E+03 -0.22300830516E+03  0.26754800287E+04  0.27974111216E+04  0.00000000000E+00 0.  1.
<mgrwt>
<rscale>  0 0.18400503E+04</rscale>
<asrwt>0</asrwt>
<pdfrwt beam="1">  1        2 0.57995290E+00 0.18400503E+04</pdfrwt>
<pdfrwt beam="2">  1       -2 0.34544583E-01 0.18400503E+04</pdfrwt>
<totfact> 0.38685020E+00</totfact>
</mgrwt>
</event>
<event>
 6    1  0.2325157E-005  0.1816830E+04  0.7818608E-02  0.8697400E-01
         -2   -1    0    0    0  501 -0.00000000000E+00  0.00000000000E+00  0.27425917606E+03  0.27425917606E+03  0.00000000000E+00 0. -1.
          2   -1    0    0  501    0  0.00000000000E+00 -0.00000000000E+00 -0.30088986527E+04  0.30088986527E+04  0.00000000000E+00 0.  1.
         23    2    1    2    0    0  0.55777545088E+03  0.20850589344E+03 -0.13661801342E+03  0.61776786018E+03  0.91566840442E+02 0.  0.
         13    1    3    3    0    0  0.20223304868E+03  0.10828284572E+03 -0.85669394837E+02  0.24487267277E+03  0.00000000000E+00 0. -1.
        -13    1    3    3    0    0  0.35554240220E+03  0.10022304772E+03 -0.50948618579E+02  0.37289518741E+03  0.00000000000E+00 0.  1.
         22    1    1    2    0    0 -0.55777545088E+03 -0.20850589344E+03 -0.25980214633E+04  0.26653899686E+04  0.00000000000E+00 0.  1.
<mgrwt>
<rscale>  0 0.18168303E+04</rscale>
<asrwt>0</asrwt>
<pdfrwt beam="1">  1        2 0.46290749E+00 0.18168303E+04</pdfrwt>
<pdfrwt beam="2">  1       -2 0.42193719E-01 0.18168303E+04</pdfrwt>
<totfact> 0.86602043E+00</totfact>
</mgrwt>
</event>
<event>
 6    1  0.2325157E-005  0.1781064E+04  0.7818608E-02  0.8716435E-01
         -1   -1    0    0    0  501 -0.00000000000E+00  0.00000000000E+00  0.20574692315E+03  0.20574692315E+03  0.00000000000E+00 0.  1.
          1   -1    0    0  501    0  0.00000000000E+00 -0.00000000000E+00 -0.38544787195E+04  0.38544787195E+04  0.00000000000E+00 0. -1.
         23    2    1    2    0    0 -0.42044631032E+03 -0.89250518623E+02 -0.36014737628E+04  0.36278206511E+04  0.75687897383E+02 0.  0.
         13    1    3    3    0    0 -0.91991473439E+02 -0.48797072026E+02 -0.99003560144E+03  0.99549689982E+03  0.00000000000E+00 0. -1.
        -13    1    3    3    0    0 -0.32845483688E+03 -0.40453446598E+02 -0.26114381613E+04  0.26323237513E+04  0.00000000000E+00 0.  1.
         22    1    1    2    0    0  0.42044631032E+03  0.89250518623E+02 -0.47258033542E+02  0.43240499150E+03  0.00000000000E+00 0.  1.
<mgrwt>
<rscale>  0 0.17810639E+04</rscale>
<asrwt>0</asrwt>
<pdfrwt beam="1">  1        1 0.59299668E+00 0.17810639E+04</pdfrwt>
<pdfrwt beam="2">  1       -1 0.31653375E-01 0.17810639E+04</pdfrwt>
<totfact> 0.11364141E+00</totfact>
</mgrwt>
</event>
<event>
 6    1  0.2325157E-005  0.3557401E+04  0.7818608E-02  0.8100320E-01
          2   -1    0    0  501    0  0.00000000000E+00  0.00000000000E+00  0.21687480080E+04  0.21687480080E+04  0.00000000000E+00 0.  1.
         -2   -1    0    0    0  501 -0.00000000000E+00 -0.00000000000E+00 -0.14588027901E+04  0.14588027901E+04  0.00000000000E+00 0. -1.
         23    2    1    2    0    0 -0.84827810585E+03  0.11250857093E+04  0.14601259655E+04  0.20312535977E+04  0.92896419830E+02 0.  0.
         11    1    3    3    0    0 -0.41730800542E+03  0.63031293828E+03  0.77779038993E+03  0.10846189479E+04  0.00000000000E+00 0.  1.
        -11    1    3    3    0    0 -0.43097010042E+03  0.49477277102E+03  0.68233557558E+03  0.94663464975E+03  0.00000000000E+00 0. -1.
         22    1    1    2    0    0  0.84827810585E+03 -0.11250857093E+04 -0.75018074761E+03  0.15962972005E+04  0.00000000000E+00 0. -1.
<mgrwt>
<rscale>  0 0.35574011E+04</rscale>
<asrwt>0</asrwt>
<pdfrwt beam="1">  1        2 0.33365354E+00 0.35574011E+04</pdfrwt>
<pdfrwt beam="2">  1       -2 0.22443120E+00 0.35574011E+04</pdfrwt>
<totfact> 0.40753509E-01</totfact>
</mgrwt>
</event>
<event>
 6    1  0.2325157E-005  0.3320290E+04  0.7818608E-02  0.8157752E-01
          2   -1    0    0  501    0  0.00000000000E+00  0.00000000000E+00  0.31721202222E+04  0.31721202222E+04  0.00000000000E+00 0.  1.
         -2   -1    0    0    0  501 -0.00000000000E+00 -0.00000000000E+00 -0.86884534755E+03  0.86884534755E+03  0.00000000000E+00 0. -1.
         23    2    1    2    0    0  0.15762835599E+04  0.35719835912E+03  0.69775104509E+03  0.17628155975E+04  0.91661229386E+02 0.  0.
         11    1    3    3    0    0  0.10989429840E+04  0.26887425549E+03  0.44728327073E+03  0.12165653996E+04  0.00000000000E+00 0. -1.
        -11    1    3    3    0    0  0.47734057586E+03  0.88324103621E+02  0.25046777435E+03  0.54625019784E+03  0.00000000000E+00 0.  1.
         22    1    1    2    0    0 -0.15762835599E+04 -0.35719835912E+03  0.16055238295E+04  0.22781499722E+04  0.00000000000E+00 0.  1.
<mgrwt>
<rscale>  0 0.33202903E+04</rscale>
<asrwt>0</asrwt>
<pdfrwt beam="1">  1        2 0.48801849E+00 0.33202903E+04</pdfrwt>
<pdfrwt beam="2">  1       -2 0.13366852E+00 0.33202903E+04</pdfrwt>
<totfact> 0.45575674E-01</totfact>
</mgrwt>
</event>
<event>
 6    1  0.2325157E-005  0.4933265E+04  0.7818608E-02  0.7838885E-01
         -2   -1    0    0    0  501 -0.00000000000E+00  0.00000000000E+00  0.15696984332E+04  0.15696984332E+04  0.00000000000E+00 0. -1.
          2   -1    0    0  501    0  0.00000000000E+00 -0.00000000000E+00 -0.38760801537E+04  0.38760801537E+04  0.00000000000E+00 0.  1.
         23    2    1    2    0    0  0.17112789711E+04  0.12055151463E+04 -0.25923398902E+04  0.33330754464E+04  0.86158807907E+02 0.  0.
         11    1    3    3    0    0  0.51232918153E+03  0.31899604943E+03 -0.77682227783E+03  0.98371363777E+03  0.00000000000E+00 0. -1.
        -11    1    3    3    0    0  0.11989497896E+04  0.88651909690E+03 -0.18155176124E+04  0.23493618087E+04  0.00000000000E+00 0.  1.
         22    1    1    2    0    0 -0.17112789711E+04 -0.12055151463E+04  0.28595816971E+03  0.21127031405E+04  0.00000000000E+00 0. -1.
<mgrwt>
<rscale>  0 0.49332654E+04</rscale>
<asrwt>0</asrwt>
<pdfrwt beam="1">  1        2 0.59632002E+00 0.49332654E+04</pdfrwt>
<pdfrwt beam="2">  1       -2 0.24149207E+00 0.49332654E+04</pdfrwt>
<totfact> 0.22690341E-02</totfact>
</mgrwt>
</event>
<event>
 6    1  0.2325157E-005  0.5566699E+04  0.7818608E-02  0.7746577E-01
         -2   -1    0    0    0  501 -0.00000000000E+00  0.00000000000E+00  0.31592435955E+04  0.31592435955E+04  0.00000000000E+00 0. -1.
          2   -1    0    0  501    0  0.00000000000E+00 -0.00000000000E+00 -0.24521803576E+04  0.24521803576E+04  0.00000000000E+00 0.  1.
         23    2    1    2    0    0 -0.22486433485E+04  0.24201025959E+03 -0.12804559342E+04  0.26005771729E+04  0.92023683993E+02 0.  0.
         13    1    3    3    0    0 -0.89372449591E+03  0.61319742778E+02 -0.53999586860E+03  0.10459919328E+04  0.00000000000E+00 0. -1.
        -13    1    3    3    0    0 -0.13549188526E+04  0.18069051682E+03 -0.74046006556E+03  0.15545852401E+04  0.00000000000E+00 0.  1.
         22    1    1    2    0    0  0.22486433485E+04 -0.24201025959E+03  0.19875191721E+04  0.30108467802E+04  0.00000000000E+00 0. -1.
<mgrwt>
<rscale>  0 0.55666992E+04</rscale>
<asrwt>0</asrwt>
<pdfrwt beam="1">  1        2 0.37725852E+00 0.55666992E+04</pdfrwt>
<pdfrwt beam="2">  1       -2 0.48603748E+00 0.55666992E+04</pdfrwt>
<totfact> 0.52581910E-03</totfact>
</mgrwt>
</event>
<event>
 6    1  0.2325157E-005  0.1160784E+04  0.7818608E-02  0.9147892E-01
          2   -1    0    0  501    0  0.00000000000E+00  0.00000000000E+00  0.13141760372E+03  0.13141760372E+03  0.00000000000E+00 0.  1.
         -2   -1    0    0    0  501 -0.00000000000E+00 -0.00000000000E+00 -0.25632403619E+04  0.25632403619E+04  0.00000000000E+00 0. -1.
         23    2    1    2    0    0  0.23753128489E+03  0.38723710590E+03 -0.20429903210E+04  0.20966911173E+04  0.12621609328E+03 0.  0.
         11    1    3    3    0    0  0.21619912918E+03  0.31764244456E+03 -0.14821058820E+04  0.15311030767E+04  0.00000000000E+00 0.  1.
        -11    1    3    3    0    0  0.21332155706E+02  0.69594661342E+02 -0.56088443905E+03  0.56558804064E+03  0.00000000000E+00 0. -1.
         22    1    1    2    0    0 -0.23753128489E+03 -0.38723710590E+03 -0.38883243718E+03  0.59796684832E+03  0.00000000000E+00 0.  1.
<mgrwt>
<rscale>  0 0.11607841E+04</rscale>
<asrwt>0</asrwt>
<pdfrwt beam="1">  1        2 0.20218095E-01 0.11607841E+04</pdfrwt>
<pdfrwt beam="2">  1       -2 0.39434464E+00 0.11607841E+04</pdfrwt>
<totfact> 0.22926525E+00</totfact>
</mgrwt>
</event>
<event>
 6    1  0.2325157E-005  0.2910043E+04  0.7818608E-02  0.8269896E-01
          2   -1    0    0  501    0  0.00000000000E+00  0.00000000000E+00  0.40092518308E+04  0.40092518308E+04  0.00000000000E+00 0.  1.
         -2   -1    0    0    0  501 -0.00000000000E+00 -0.00000000000E+00 -0.52805050210E+03  0.52805050210E+03  0.00000000000E+00 0. -1.
         23    2    1    2    0    0  0.69261231560E+03  0.34345433560E+03  0.36615885762E+04  0.37434432399E+04  0.91998307809E+02 0.  0.
         13    1    3    3    0    0  0.21976493114E+03  0.13213948070E+03  0.14020449127E+04  0.14253025660E+04  0.00000000000E+00 0.  1.
        -13    1    3    3    0    0  0.47284738447E+03  0.21131485490E+03  0.22595436635E+04  0.23181406739E+04  0.00000000000E+00 0. -1.
         22    1    1    2    0    0 -0.69261231560E+03 -0.34345433560E+03 -0.18038724756E+03  0.79385909294E+03  0.00000000000E+00 0. -1.
<mgrwt>
<rscale>  0 0.29100429E+04</rscale>
<asrwt>0</asrwt>
<pdfrwt beam="1">  1        2 0.61680795E+00 0.29100429E+04</pdfrwt>
<pdfrwt beam="2">  1       -2 0.81238541E-01 0.29100429E+04</pdfrwt>
<totfact> 0.38717130E-01</totfact>
</mgrwt>
</event>
<event>
 6    1  0.2325157E-005  0.4622440E+04  0.7818608E-02  0.7889545E-01
          2   -1    0    0  501    0  0.00000000000E+00  0.00000000000E+00  0.21932123921E+04  0.21932123921E+04  0.00000000000E+00 0.  1.
         -2   -1    0    0    0  501 -0.00000000000E+00 -0.00000000000E+00 -0.24355767905E+04  0.24355767905E+04  0.00000000000E+00 0. -1.
         23    2    1    2    0    0 -0.13482221742E+04  0.12967760034E+04  0.12369629723E+04  0.22438907563E+04  0.75081937666E+02 0.  0.
         13    1    3    3    0    0 -0.27855701186E+03  0.23748358658E+03  0.26635426431E+03  0.45269974251E+03  0.00000000000E+00 0. -1.
        -13    1    3    3    0    0 -0.10696651624E+04  0.10592924168E+04  0.97060870799E+03  0.17911910138E+04  0.00000000000E+00 0.  1.
         22    1    1    2    0    0  0.13482221742E+04 -0.12967760034E+04 -0.14793273707E+04  0.23848984263E+04  0.00000000000E+00 0. -1.
<mgrwt>
<rscale>  0 0.46224397E+04</rscale>
<asrwt>0</asrwt>
<pdfrwt beam="1">  1        2 0.33741729E+00 0.46224397E+04</pdfrwt>
<pdfrwt beam="2">  1       -2 0.37470412E+00 0.46224397E+04</pdfrwt>
<totfact> 0.42333437E-02</totfact>
</mgrwt>
</event>
<event>
 6    1  0.2325157E-005  0.1753397E+04  0.7818608E-02  0.8731483E-01
          2   -1    0    0  501    0  0.00000000000E+00  0.00000000000E+00  0.20597573816E+04  0.20597573816E+04  0.00000000000E+00 0.  1.
         -2   -1    0    0    0  501 -0.00000000000E+00 -0.00000000000E+00 -0.37315074735E+03  0.37315074735E+03  0.00000000000E+00 0. -1.
         23    2    1    2    0    0 -0.86053383426E+03  0.11310241217E+03  0.69890247380E+03  0.11180430621E+04  0.90801901085E+02 0.  0.
         11    1    3    3    0    0 -0.57832916457E+03  0.11703036614E+03  0.48825739815E+03  0.76586945104E+03  0.00000000000E+00 0. -1.
        -11    1    3    3    0    0 -0.28220466969E+03 -0.39279539692E+01  0.21064507565E+03  0.35217361104E+03  0.00000000000E+00 0.  1.
         22    1    1    2    0    0  0.86053383426E+03 -0.11310241217E+03  0.98770416048E+03  0.13148650669E+04  0.00000000000E+00 0. -1.
<mgrwt>
<rscale>  0 0.17533967E+04</rscale>
<asrwt>0</asrwt>
<pdfrwt beam="1">  1        2 0.31688575E+00 0.17533967E+04</pdfrwt>
<pdfrwt beam="2">  1       -2 0.57407808E-01 0.17533967E+04</pdfrwt>
<totfact> 0.16669911E+01</totfact>
</mgrwt>
</event>
<event>
 6    1  0.2325157E-005  0.9268760E+03  0.7818608E-02  0.9392595E-01
         -2   -1    0    0    0  501 -0.00000000000E+00  0.00000000000E+00  0.30441594115E+03  0.30441594115E+03  0.00000000000E+00 0. -1.
          2   -1    0    0  501    0  0.00000000000E+00 -0.00000000000E+00 -0.70553067289E+03  0.70553067289E+03  0.00000000000E+00 0.  1.
         23    2    1    2    0    0 -0.41160531939E+03 -0.85195411554E+02 -0.13459651666E+01  0.42986708171E+03  0.90037210166E+02 0.  0.
         11    1    3    3    0    0 -0.37729259813E+03 -0.61171097335E+02 -0.22618185205E+02  0.38288796018E+03  0.00000000000E+00 0. -1.
        -11    1    3    3    0    0 -0.34312721268E+02 -0.24024314219E+02  0.21272220038E+02  0.46979121531E+02  0.00000000000E+00 0.  1.
         22    1    1    2    0    0  0.41160531939E+03  0.85195411554E+02 -0.39976876657E+03  0.58007953233E+03  0.00000000000E+00 0.  1.
<mgrwt>
<rscale>  0 0.92687601E+03</rscale>
<asrwt>0</asrwt>
<pdfrwt beam="1">  1        2 0.10854318E+00 0.92687601E+03</pdfrwt>
<pdfrwt beam="2">  1       -2 0.46833223E-01 0.92687601E+03</pdfrwt>
<totfact> 0.17564019E+02</totfact>
</mgrwt>
</event>
<event>
 6    1  0.2325157E-005  0.2885286E+04  0.7818608E-02  0.8277269E-01
          2   -1    0    0  501    0  0.00000000000E+00  0.00000000000E+00  0.96694901061E+03  0.96694901061E+03  0.00000000000E+00 0.  1.
         -2   -1    0    0    0  501 -0.00000000000E+00 -0.00000000000E+00 -0.21523558478E+04  0.21523558478E+04  0.00000000000E+00 0. -1.
         23    2    1    2    0    0 -0.72809902074E+03  0.12437248585E+04 -0.58066519933E+03  0.15563934226E+04  0.90601900585E+02 0.  0.
         11    1    3    3    0    0 -0.11431168332E+03  0.25817565366E+03 -0.13176470399E+03  0.31158267972E+03  0.00000000000E+00 0.  1.
        -11    1    3    3    0    0 -0.61378733742E+03  0.98554920485E+03 -0.44890049534E+03  0.12448107428E+04  0.00000000000E+00 0. -1.
         22    1    1    2    0    0  0.72809902074E+03 -0.12437248585E+04 -0.60474163781E+03  0.15629114358E+04  0.00000000000E+00 0.  1.
<mgrwt>
<rscale>  0 0.28852857E+04</rscale>
<asrwt>0</asrwt>
<pdfrwt beam="1">  1        2 0.14876139E+00 0.28852857E+04</pdfrwt>
<pdfrwt beam="2">  1       -2 0.33113167E+00 0.28852857E+04</pdfrwt>
<totfact> 0.46701188E-01</totfact>
</mgrwt>
</event>
<event>
 6    1  0.2325157E-005  0.2897970E+03  0.7818608E-02  0.1090455E+00
          2   -1    0    0  501    0  0.00000000000E+00  0.00000000000E+00  0.30952842220E+03  0.30952842220E+03  0.00000000000E+00 0.  1.
         -2   -1    0    0    0  501 -0.00000000000E+00 -0.00000000000E+00 -0.67830829928E+02  0.67830829928E+02  0.00000000000E+00 0. -1.
         23    2    1    2    0    0  0.12471644174E+03 -0.40173014923E+02  0.12332222454E+03  0.20077842176E+03  0.89081656974E+02 0.  0.
         13    1    3    3    0    0  0.64842028096E+02 -0.14092641884E+02  0.11784330629E+03  0.13524102928E+03  0.00000000000E+00 0.  1.
        -13    1    3    3    0    0  0.59874413645E+02 -0.26080373039E+02  0.54789182438E+01  0.65537392475E+02  0.00000000000E+00 0. -1.
         22    1    1    2    0    0 -0.12471644174E+03  0.40173014923E+02  0.11837536773E+03  0.17658083037E+03  0.00000000000E+00 0.  1.
<mgrwt>
<rscale>  0 0.28979696E+03</rscale>
<asrwt>0</asrwt>
<pdfrwt beam="1">  1        2 0.47619756E-01 0.28979696E+03</pdfrwt>
<pdfrwt beam="2">  1       -2 0.10435512E-01 0.28979696E+03</pdfrwt>
<totfact> 0.65197355E+03</totfact>
</mgrwt>
</event>
<event>
 6    1  0.2325157E-005  0.1245470E+04  0.7818608E-02  0.9073962E-01
         -2   -1    0    0    0  501 -0.00000000000E+00  0.00000000000E+00  0.17106210762E+03  0.17106210762E+03  0.00000000000E+00 0. -1.
          2   -1    0    0  501    0  0.00000000000E+00 -0.00000000000E+00 -0.22670081157E+04  0.22670081157E+04  0.00000000000E+00 0.  1.
         23    2    1    2    0    0 -0.55484769180E+03  0.77930030590E+02 -0.15711172151E+04  0.16703630443E+04  0.88172248510E+02 0.  0.
         13    1    3    3    0    0 -0.94025489785E+02 -0.96155721395E+01 -0.34074580039E+03  0.35361130135E+03  0.00000000000E+00 0.  1.
        -13    1    3    3    0    0 -0.46082220202E+03  0.87545602730E+02 -0.12303714147E+04  0.13167517430E+04  0.00000000000E+00 0. -1.
         22    1    1    2    0    0  0.55484769180E+03 -0.77930030590E+02 -0.52482879296E+03  0.76770717900E+03  0.00000000000E+00 0. -1.
<mgrwt>
<rscale>  0 0.12454705E+04</rscale>
<asrwt>0</asrwt>
<pdfrwt beam="1">  1        2 0.34877050E+00 0.12454705E+04</pdfrwt>
<pdfrwt beam="2">  1       -2 0.26317246E-01 0.12454705E+04</pdfrwt>
<totfact> 0.61022824E+01</totfact>
</mgrwt>
</event>
<event>
 6    1  0.2325157E-005  0.9510267E+03  0.7818608E-02  0.9363951E-01
          2   -1    0    0  501    0  0.00000000000E+00  0.00000000000E+00  0.21494253551E+04  0.21494253551E+04  0.00000000000E+00 0.  1.
         -2   -1    0    0    0  501 -0.00000000000E+00 -0.00000000000E+00 -0.10519693323E+03  0.10519693323E+03  0.00000000000E+00 0. -1.
         23    2    1    2    0    0  0.36501329338E+03 -0.39221142020E+02  0.17304919734E+04  0.17717107422E+04  0.97895258079E+02 0.  0.
         13    1    3    3    0    0  0.20314842026E+03 -0.64283016647E+01  0.73379714063E+03  0.76142553629E+03  0.00000000000E+00 0.  1.
        -13    1    3    3    0    0  0.16186487312E+03 -0.32792840356E+02  0.99669483281E+03  0.10102852059E+04  0.00000000000E+00 0. -1.
         22    1    1    2    0    0 -0.36501329338E+03  0.39221142020E+02  0.31373644848E+03  0.48291154617E+03  0.00000000000E+00 0. -1.
<mgrwt>
<rscale>  0 0.95102672E+03</rscale>
<asrwt>0</asrwt>
<pdfrwt beam="1">  1        2 0.33068079E+00 0.95102672E+03</pdfrwt>
<pdfrwt beam="2">  1       -2 0.16184145E-01 0.95102672E+03</pdfrwt>
<totfact> 0.17149949E+02</totfact>
</mgrwt>
</event>
<event>
 6    1  0.2325157E-005  0.1394416E+04  0.7818608E-02  0.8957870E-01
         -2   -1    0    0    0  501 -0.00000000000E+00  0.00000000000E+00  0.33471875755E+03  0.33471875755E+03  0.00000000000E+00 0. -1.
          2   -1    0    0  501    0  0.00000000000E+00 -0.00000000000E+00 -0.14522616211E+04  0.14522616211E+04  0.00000000000E+00 0.  1.
         23    2    1    2    0    0 -0.53313884434E+03 -0.69837283825E+01  0.85346747355E+01  0.54105244251E+03  0.91537451701E+02 0.  0.
         11    1    3    3    0    0 -0.28869563631E+03 -0.48490594601E+02  0.13647330600E+02  0.29305760154E+03  0.00000000000E+00 0.  1.
        -11    1    3    3    0    0 -0.24444320803E+03  0.41506866219E+02 -0.51126558649E+01  0.24799484096E+03  0.00000000000E+00 0. -1.
         22    1    1    2    0    0  0.53313884434E+03  0.69837283825E+01 -0.11260775383E+04  0.12459279361E+04  0.00000000000E+00 0.  1.
<mgrwt>
<rscale>  0 0.13944163E+04</rscale>
<asrwt>0</asrwt>
<pdfrwt beam="1">  1        2 0.22342487E+00 0.13944163E+04</pdfrwt>
<pdfrwt beam="2">  1       -2 0.51495193E-01 0.13944163E+04</pdfrwt>
<totfact> 0.46853796E+01</totfact>
</mgrwt>
</event>
<event>
 6    1  0.2325157E-005  0.2605810E+04  0.7818608E-02  0.8366230E-01
          2   -1    0    0  501    0  0.00000000000E+00  0.00000000000E+00  0.15929761111E+04  0.15929761111E+04  0.00000000000E+00 0.  1.
         -2   -1    0    0    0  501 -0.00000000000E+00 -0.00000000000E+00 -0.10656543278E+04  0.10656543278E+04  0.00000000000E+00 0. -1.
         23    2    1    2    0    0 -0.22904452635E+03  0.58156285795E+03  0.14284918977E+04  0.15619151943E+04  0.91176858415E+02 0.  0.
         13    1    3    3    0    0 -0.18301421906E+03  0.46271813335E+03  0.10370833865E+04  0.11502800641E+04  0.00000000000E+00 0.  1.
        -13    1    3    3    0    0 -0.46030307287E+02  0.11884472461E+03  0.39140851119E+03  0.41163513017E+03  0.00000000000E+00 0. -1.
         22    1    1    2    0    0  0.22904452635E+03 -0.58156285795E+03 -0.90117011436E+03  0.10967152446E+04  0.00000000000E+00 0. -1.
<mgrwt>
<rscale>  0 0.26058103E+04</rscale>
<asrwt>0</asrwt>
<pdfrwt beam="1">  1        2 0.24507325E+00 0.26058103E+04</pdfrwt>
<pdfrwt beam="2">  1       -2 0.16394682E+00 0.26058103E+04</pdfrwt>
<totfact> 0.23448534E+00</totfact>
</mgrwt>
</event>
<event>
 6    1  0.2325157E-005  0.1630721E+04  0.7818608E-02  0.8801894E-01
          2   -1    0    0  501    0  0.00000000000E+00  0.00000000000E+00  0.39581624905E+03  0.39581624905E+03  0.00000000000E+00 0.  1.
         -2   -1    0    0    0  501 -0.00000000000E+00 -0.00000000000E+00 -0.16795993971E+04  0.16795993971E+04  0.00000000000E+00 0. -1.
         23    2    1    2    0    0  0.72395769806E+03 -0.10246221061E+03 -0.19183199988E+03  0.76127312603E+03  0.90133251650E+02 0.  0.
         11    1    3    3    0    0  0.38737764592E+03 -0.67063557717E+02 -0.14770949108E+03  0.41997268374E+03  0.00000000000E+00 0. -1.
        -11    1    3    3    0    0  0.33658005214E+03 -0.35398652888E+02 -0.44122508805E+02  0.34130044229E+03  0.00000000000E+00 0.  1.
         22    1    1    2    0    0 -0.72395769806E+03  0.10246221061E+03 -0.10919511481E+04  0.13141425201E+04  0.00000000000E+00 0. -1.
<mgrwt>
<rscale>  0 0.16307210E+04</rscale>
<asrwt>0</asrwt>
<pdfrwt beam="1">  1        2 0.60894808E-01 0.16307210E+04</pdfrwt>
<pdfrwt beam="2">  1       -2 0.25839991E+00 0.16307210E+04</pdfrwt>
<totfact> 0.43955836E+00</totfact>
</mgrwt>
</event>
<event>
 6    1  0.2325157E-005  0.1032143E+04  0.7818608E-02  0.9273976E-01
         -2   -1    0    0    0  501 -0.00000000000E+00  0.00000000000E+00  0.26128657665E+03  0.26128657665E+03  0.00000000000E+00 0. -1.
          2   -1    0    0  501    0  0.00000000000E+00 -0.00000000000E+00 -0.10193022424E+04  0.10193022424E+04  0.00000000000E+00 0.  1.
         23    2    1    2    0    0  0.46879733002E+03  0.11289730192E+02 -0.12165204430E+03  0.49010981657E+03  0.74229494001E+02 0.  0.
         11    1    3    3    0    0  0.18324927243E+03 -0.18814059988E+02 -0.19036184972E+02  0.18519352320E+03  0.00000000000E+00 0. -1.
        -11    1    3    3    0    0  0.28554805759E+03  0.30103790180E+02 -0.10261585932E+03  0.30491629337E+03  0.00000000000E+00 0.  1.
         22    1    1    2    0    0 -0.46879733002E+03 -0.11289730192E+02 -0.63636362142E+03  0.79047900245E+03  0.00000000000E+00 0. -1.
<mgrwt>
<rscale>  0 0.10321434E+04</rscale>
<asrwt>0</asrwt>
<pdfrwt beam="1">  1        2 0.15681573E+00 0.10321434E+04</pdfrwt>
<pdfrwt beam="2">  1       -2 0.40197935E-01 0.10321434E+04</pdfrwt>
<totfact> 0.14279864E+02</totfact>
</mgrwt>
</event>
<event>
 6    1  0.2325157E-005  0.2431366E+04  0.7818608E-02  0.8427853E-01
          2   -1    0    0  501    0  0.00000000000E+00  0.00000000000E+00  0.26290898380E+04  0.26290898380E+04  0.00000000000E+00 0.  1.
         -2   -1    0    0    0  501 -0.00000000000E+00 -0.00000000000E+00 -0.56212819651E+03  0.56212819651E+03  0.00000000000E+00 0. -1.
         23    2    1    2    0    0 -0.32329724073E+03  0.92375056507E+03  0.19772503537E+04  0.22084238916E+04  0.98898490087E+02 0.  0.
         13    1    3    3    0    0 -0.11166723341E+03  0.46250263844E+03  0.98834378763E+03  0.10969055129E+04  0.00000000000E+00 0. -1.
        -13    1    3    3    0    0 -0.21163000732E+03  0.46124792664E+03  0.98890656604E+03  0.11115183787E+04  0.00000000000E+00 0.  1.
         22    1    1    2    0    0  0.32329724073E+03 -0.92375056507E+03  0.89711287849E+02  0.98279414300E+03  0.00000000000E+00 0.  1.
<mgrwt>
<rscale>  0 0.24313663E+04</rscale>
<asrwt>0</asrwt>
<pdfrwt beam="1">  1        2 0.40447535E+00 0.24313663E+04</pdfrwt>
<pdfrwt beam="2">  1       -2 0.86481262E-01 0.24313663E+04</pdfrwt>
<totfact> 0.30390973E+00</totfact>
</mgrwt>
</event>
<event>
 6    1  0.2325157E-005  0.1053390E+04  0.7818608E-02  0.9251851E-01
          1   -1    0    0  501    0  0.00000000000E+00  0.00000000000E+00  0.48907237637E+03  0.48907237637E+03  0.00000000000E+00 0.  1.
         -1   -1    0    0    0  501 -0.00000000000E+00 -0.00000000000E+00 -0.56721169400E+03  0.56721169400E+03  0.00000000000E+00 0. -1.
         23    2    1    2    0    0  0.24984971872E+03  0.27741160799E+03  0.32731529785E+03  0.50512571981E+03  0.92922582915E+02 0.  0.
         11    1    3    3    0    0  0.10872009107E+03  0.14204673739E+03  0.21474277233E+03  0.27948486913E+03  0.00000000000E+00 0.  1.
        -11    1    3    3    0    0  0.14112962765E+03  0.13536487060E+03  0.11257252552E+03  0.22564085067E+03  0.00000000000E+00 0. -1.
         22    1    1    2    0    0 -0.24984971872E+03 -0.27741160799E+03 -0.40545461547E+03  0.55115835056E+03  0.00000000000E+00 0. -1.
<mgrwt>
<rscale>  0 0.10533899E+04</rscale>
<asrwt>0</asrwt>
<pdfrwt beam="1">  1        1 0.75241905E-01 0.10533899E+04</pdfrwt>
<pdfrwt beam="2">  1       -1 0.87263337E-01 0.10533899E+04</pdfrwt>
<totfact> 0.59079665E+01</totfact>
</mgrwt>
</event>
<event>
 6    1  0.2325157E-005  0.7798298E+03  0.7818608E-02  0.9589680E-01
         -2   -1    0    0    0  501 -0.00000000000E+00  0.00000000000E+00  0.69982783227E+02  0.69982783227E+02  0.00000000000E+00 0. -1.
          2   -1    0    0  501    0  0.00000000000E+00 -0.00000000000E+00 -0.21724434188E+04  0.21724434188E+04  0.00000000000E+00 0.  1.
         23    2    1    2    0    0  0.90777948783E+02  0.30921683814E+03 -0.46431940123E+03  0.57288662699E+03  0.93546202749E+02 0.  0.
         13    1    3    3    0    0  0.50567557376E+02  0.19660805681E+03 -0.21120177226E+03  0.29294708475E+03  0.00000000000E+00 0.  1.
        -13    1    3    3    0    0  0.40210391408E+02  0.11260878133E+03 -0.25311762897E+03  0.27993954223E+03  0.00000000000E+00 0. -1.
         22    1    1    2    0    0 -0.90777948783E+02 -0.30921683814E+03 -0.16381412344E+04  0.16695395751E+04  0.00000000000E+00 0.  1.
<mgrwt>
<rscale>  0 0.77982982E+03</rscale>
<asrwt>0</asrwt>
<pdfrwt beam="1">  1        2 0.33422201E+00 0.77982982E+03</pdfrwt>
<pdfrwt beam="2">  1       -2 0.10766584E-01 0.77982982E+03</pdfrwt>
<totfact> 0.33395178E+02</totfact>
</mgrwt>
</event>
<event>
 6    1  0.2325157E-005  0.3272506E+04  0.7818608E-02  0.8169927E-01
          2   -1    0    0  501    0  0.00000000000E+00  0.00000000000E+00  0.26103858132E+04  0.26103858132E+04  0.00000000000E+00 0.  1.
         -2   -1    0    0    0  501 -0.00000000000E+00 -0.00000000000E+00 -0.10256431067E+04  0.10256431067E+04  0.00000000000E+00 0. -1.
         23    2    1    2    0    0  0.23198786343E+03  0.89713138874E+03 -0.70367964220E+03  0.11671141900E+04  0.91254568093E+02 0.  0.
         13    1    3    3    0    0  0.17294078281E+03  0.75478537908E+03 -0.55258582471E+03  0.95129415877E+03  0.00000000000E+00 0.  1.
        -13    1    3    3    0    0  0.59047080615E+02  0.14234600966E+03 -0.15109381749E+03  0.21582003122E+03  0.00000000000E+00 0. -1.
         22    1    1    2    0    0 -0.23198786343E+03 -0.89713138874E+03  0.22884223487E+04  0.24689147299E+04  0.00000000000E+00 0.  1.
<mgrwt>
<rscale>  0 0.32725062E+04</rscale>
<asrwt>0</asrwt>
<pdfrwt beam="1">  1        2 0.40159781E+00 0.32725062E+04</pdfrwt>
<pdfrwt beam="2">  1       -2 0.15779125E+00 0.32725062E+04</pdfrwt>
<totfact> 0.65690467E-01</totfact>
</mgrwt>
</event>
<event>
 6    1  0.2325157E-005  0.2867625E+04  0.7818608E-02  0.8282576E-01
         -2   -1    0    0    0  501 -0.00000000000E+00  0.00000000000E+00  0.11405252098E+04  0.11405252098E+04  0.00000000000E+00 0. -1.
          2   -1    0    0  501    0  0.00000000000E+00 -0.00000000000E+00 -0.18025194972E+04  0.18025194972E+04  0.00000000000E+00 0.  1.
         23    2    1    2    0    0  0.73388337026E+03  0.10294465387E+04 -0.10223141504E+04  0.16284438623E+04  0.91423265150E+02 0.  0.
         11    1    3    3    0    0  0.26819938624E+03  0.45380139796E+03 -0.42676942006E+03  0.67823208231E+03  0.00000000000E+00 0. -1.
        -11    1    3    3    0    0  0.46568398402E+03  0.57564514076E+03 -0.59554473037E+03  0.95021178004E+03  0.00000000000E+00 0.  1.
         22    1    1    2    0    0 -0.73388337026E+03 -0.10294465387E+04  0.36031986301E+03  0.13146008447E+04  0.00000000000E+00 0. -1.
<mgrwt>
<rscale>  0 0.28676254E+04</rscale>
<asrwt>0</asrwt>
<pdfrwt beam="1">  1        2 0.27731069E+00 0.28676254E+04</pdfrwt>
<pdfrwt beam="2">  1       -2 0.17546542E+00 0.28676254E+04</pdfrwt>
<totfact> 0.14516210E+00</totfact>
</mgrwt>
</event>
<event>
 6    1  0.2325157E-005  0.4273651E+04  0.7818608E-02  0.7951508E-01
          4   -1    0    0  501    0  0.00000000000E+00  0.00000000000E+00  0.13338091950E+04  0.13338091950E+04  0.00000000000E+00 0.  1.
         -4   -1    0    0    0  501 -0.00000000000E+00 -0.00000000000E+00 -0.34232951049E+04  0.34232951049E+04  0.00000000000E+00 0. -1.
         23    2    1    2    0    0  0.10296849354E+04 -0.75802317027E+03  0.86003006676E+03  0.15423734107E+04  0.66436657062E+02 0.  0.
         11    1    3    3    0    0  0.69335283775E+03 -0.54658473312E+03  0.58126523498E+03  0.10570535944E+04  0.00000000000E+00 0. -1.
        -11    1    3    3    0    0  0.33633209769E+03 -0.21143843715E+03  0.27876483178E+03  0.48531981629E+03  0.00000000000E+00 0.  1.
         22    1    1    2    0    0 -0.10296849354E+04  0.75802317027E+03 -0.29495159767E+04  0.32147308892E+04  0.00000000000E+00 0. -1.
<mgrwt>
<rscale>  0 0.42736507E+04</rscale>
<asrwt>0</asrwt>
<pdfrwt beam="1">  1        4 0.20520142E+00 0.42736507E+04</pdfrwt>
<pdfrwt beam="2">  1       -4 0.52666078E+00 0.42736507E+04</pdfrwt>
<totfact> 0.13332943E-04</totfact>
</mgrwt>
</event>
<event>
 6    1  0.2325157E-005  0.4808426E+04  0.7818608E-02  0.7858758E-01
         -2   -1    0    0    0  501 -0.00000000000E+00  0.00000000000E+00  0.26393774477E+04  0.26393774477E+04  0.00000000000E+00 0. -1.
          2   -1    0    0  501    0  0.00000000000E+00 -0.00000000000E+00 -0.21900017564E+04  0.21900017564E+04  0.00000000000E+00 0.  1.
         23    2    1    2    0    0  0.17608632140E+04  0.11852924706E+04 -0.90727916322E+03  0.23102384987E+04  0.92135451768E+02 0.  0.
         13    1    3    3    0    0  0.11321187893E+04  0.75134512204E+03 -0.62762985245E+03  0.14967069443E+04  0.00000000000E+00 0.  1.
        -13    1    3    3    0    0  0.62874442466E+03  0.43394734860E+03 -0.27964931077E+03  0.81353155434E+03  0.00000000000E+00 0. -1.
         22    1    1    2    0    0 -0.17608632140E+04 -0.11852924706E+04  0.13566548545E+04  0.25191407054E+04  0.00000000000E+00 0. -1.
<mgrwt>
<rscale>  0 0.48084265E+04</rscale>
<asrwt>0</asrwt>
<pdfrwt beam="1">  1        2 0.33692335E+00 0.48084265E+04</pdfrwt>
<pdfrwt beam="2">  1       -2 0.40605807E+00 0.48084265E+04</pdfrwt>
<totfact> 0.26209249E-02</totfact>
</mgrwt>
</event>
<event>
 6    1  0.2325157E-005  0.3585884E+04  0.7818608E-02  0.8093733E-01
         -2   -1    0    0    0  501 -0.00000000000E+00  0.00000000000E+00  0.12582805267E+04  0.12582805267E+04  0.00000000000E+00 0.  1.
          2   -1    0    0  501    0  0.00000000000E+00 -0.00000000000E+00 -0.25547883207E+04  0.25547883207E+04  0.00000000000E+00 0. -1.
         23    2    1    2    0    0  0.10007627795E+04 -0.48529284566E+03 -0.21423764240E+04  0.24157395998E+04  0.94793380342E+02 0.  0.
         13    1    3    3    0    0  0.54579209863E+03 -0.29145496959E+03 -0.12776291888E+04  0.14195673137E+04  0.00000000000E+00 0. -1.
        -13    1    3    3    0    0  0.45497068087E+03 -0.19383787607E+03 -0.86474723527E+03  0.99617228608E+03  0.00000000000E+00 0.  1.
         22    1    1    2    0    0 -0.10007627795E+04  0.48529284566E+03  0.84586863009E+03  0.13973292476E+04  0.00000000000E+00 0.  1.
<mgrwt>
<rscale>  0 0.35858837E+04</rscale>
<asrwt>0</asrwt>
<pdfrwt beam="1">  1        2 0.39304435E+00 0.35858837E+04</pdfrwt>
<pdfrwt beam="2">  1       -2 0.19358162E+00 0.35858837E+04</pdfrwt>
<totfact> 0.38707826E-01</totfact>
</mgrwt>
</event>
<event>
 6    1  0.2325157E-005  0.1759561E+04  0.7818608E-02  0.8728105E-01
          2   -1    0    0  501    0  0.00000000000E+00  0.00000000000E+00  0.86718220542E+03  0.86718220542E+03  0.00000000000E+00 0.  1.
         -2   -1    0    0    0  501 -0.00000000000E+00 -0.00000000000E+00 -0.89256156250E+03  0.89256156250E+03  0.00000000000E+00 0. -1.
         23    2    1    2    0    0  0.73618693900E+03  0.31548883643E+03 -0.37125141568E+03  0.88731503388E+03  0.89420023724E+02 0.  0.
         11    1    3    3    0    0  0.11758940707E+03  0.24858854649E+02 -0.79992530738E+02  0.14437463864E+03  0.00000000000E+00 0. -1.
        -11    1    3    3    0    0  0.61859753193E+03  0.29062998178E+03 -0.29125888494E+03  0.74294039524E+03  0.00000000000E+00 0.  1.
         22    1    1    2    0    0 -0.73618693900E+03 -0.31548883643E+03  0.34587205859E+03  0.87242873404E+03  0.00000000000E+00 0.  1.
<mgrwt>
<rscale>  0 0.17595607E+04</rscale>
<asrwt>0</asrwt>
<pdfrwt beam="1">  1        2 0.13341265E+00 0.17595607E+04</pdfrwt>
<pdfrwt beam="2">  1       -2 0.13731716E+00 0.17595607E+04</pdfrwt>
<totfact> 0.11041961E+01</totfact>
</mgrwt>
</event>
<event>
 6    1  0.2849876E-005  0.4849250E+04  0.7818608E-02  0.7852192E-01
          2   -1    0    0  501    0  0.00000000000E+00  0.00000000000E+00  0.30523495761E+04  0.30523495761E+04  0.00000000000E+00 0.  1.
         -2   -1    0    0    0  501 -0.00000000000E+00 -0.00000000000E+00 -0.19259939532E+04  0.19259939532E+04  0.00000000000E+00 0. -1.
         23    2    1    2    0    0 -0.32945991293E+03  0.73487935207E+03 -0.17836638076E+04  0.19589388558E+04  0.85984682815E+02 0.  0.
         13    1    3    3    0    0 -0.12404893550E+03  0.33238630140E+03 -0.87264233586E+03  0.94200500959E+03  0.00000000000E+00 0. -1.
        -13    1    3    3    0    0 -0.20541097743E+03  0.40249305068E+03 -0.91102147179E+03  0.10169338462E+04  0.00000000000E+00 0.  1.
         22    1    1    2    0    0  0.32945991293E+03 -0.73487935207E+03  0.29100194306E+04  0.30194046736E+04  0.00000000000E+00 0.  1.
<mgrwt>
<rscale>  0 0.48492502E+04</rscale>
<asrwt>0</asrwt>
<pdfrwt beam="1">  1        2 0.46959224E+00 0.48492502E+04</pdfrwt>
<pdfrwt beam="2">  1       -2 0.29630676E+00 0.48492502E+04</pdfrwt>
<totfact> 0.39783992E-02</totfact>
</mgrwt>
</event>
<event>
 6    1  0.2325157E-005  0.2131823E+04  0.7818608E-02  0.8547353E-01
          2   -1    0    0  501    0  0.00000000000E+00  0.00000000000E+00  0.48546313691E+03  0.48546313691E+03  0.00000000000E+00 0.  1.
         -2   -1    0    0    0  501 -0.00000000000E+00 -0.00000000000E+00 -0.23403788666E+04  0.23403788666E+04  0.00000000000E+00 0. -1.
         23    2    1    2    0    0  0.25216409037E+03 -0.83311242578E+03 -0.11826669413E+03  0.88326306943E+03  0.92214946816E+02 0.  0.
         11    1    3    3    0    0  0.46684266551E+02 -0.26619865148E+03 -0.88027477897E+01  0.27040456942E+03  0.00000000000E+00 0. -1.
        -11    1    3    3    0    0  0.20547982382E+03 -0.56691377429E+03 -0.10946394634E+03  0.61285850001E+03  0.00000000000E+00 0.  1.
         22    1    1    2    0    0 -0.25216409037E+03  0.83311242578E+03 -0.17366490356E+04  0.19425789341E+04  0.00000000000E+00 0. -1.
<mgrwt>
<rscale>  0 0.21318233E+04</rscale>
<asrwt>0</asrwt>
<pdfrwt beam="1">  1        2 0.74686639E-01 0.21318233E+04</pdfrwt>
<pdfrwt beam="2">  1       -2 0.36005827E+00 0.21318233E+04</pdfrwt>
<totfact> 0.78849615E-01</totfact>
</mgrwt>
</event>
<event>
 6    1  0.2325157E-005  0.2023377E+04  0.7818608E-02  0.8595769E-01
         -2   -1    0    0    0  501 -0.00000000000E+00  0.00000000000E+00  0.67520403037E+03  0.67520403037E+03  0.00000000000E+00 0. -1.
          2   -1    0    0  501    0  0.00000000000E+00 -0.00000000000E+00 -0.15158581337E+04  0.15158581337E+04  0.00000000000E+00 0.  1.
         23    2    1    2    0    0 -0.62643167472E+03 -0.79175910073E+03 -0.42085120283E+03  0.10976575766E+04  0.91854797240E+02 0.  0.
         11    1    3    3    0    0 -0.49151880200E+03 -0.57887830083E+03 -0.28322691504E+03  0.81049880030E+03  0.00000000000E+00 0.  1.
        -11    1    3    3    0    0 -0.13491287272E+03 -0.21288079990E+03 -0.13762428779E+03  0.28715877625E+03  0.00000000000E+00 0. -1.
         22    1    1    2    0    0  0.62643167472E+03  0.79175910073E+03 -0.41980290046E+03  0.10934045875E+04  0.00000000000E+00 0. -1.
<mgrwt>
<rscale>  0 0.20233769E+04</rscale>
<asrwt>0</asrwt>
<pdfrwt beam="1">  1        2 0.23320894E+00 0.20233769E+04</pdfrwt>
<pdfrwt beam="2">  1       -2 0.10387754E+00 0.20233769E+04</pdfrwt>
<totfact> 0.86986113E+00</totfact>
</mgrwt>
</event>
<event>
 6    1  0.2325157E-005  0.2178526E+04  0.7818608E-02  0.8527420E-01
         -2   -1    0    0    0  501 -0.00000000000E+00  0.00000000000E+00  0.41946968946E+03  0.41946968946E+03  0.00000000000E+00 0. -1.
          2   -1    0    0  501    0  0.00000000000E+00 -0.00000000000E+00 -0.28285567532E+04  0.28285567532E+04  0.00000000000E+00 0.  1.
         23    2    1    2    0    0  0.18244041747E+03 -0.90718485436E+03 -0.36271301731E+03  0.10021601056E+04  0.12843394597E+03 0.  0.
         11    1    3    3    0    0  0.64403019412E+02 -0.60282248995E+03 -0.20836127499E+03  0.64105937652E+03  0.00000000000E+00 0. -1.
        -11    1    3    3    0    0  0.11803739806E+03 -0.30436236440E+03 -0.15435174232E+03  0.36110072911E+03  0.00000000000E+00 0.  1.
         22    1    1    2    0    0 -0.18244041747E+03  0.90718485436E+03 -0.20463740464E+04  0.22458663370E+04  0.00000000000E+00 0.  1.
<mgrwt>
<rscale>  0 0.21785259E+04</rscale>
<asrwt>0</asrwt>
<pdfrwt beam="1">  1        2 0.43516258E+00 0.21785259E+04</pdfrwt>
<pdfrwt beam="2">  1       -2 0.64533798E-01 0.21785259E+04</pdfrwt>
<totfact> 0.45146229E+00</totfact>
</mgrwt>
</event>
<event>
 6    1  0.2325157E-005  0.1423620E+04  0.7818608E-02  0.8936896E-01
         -1   -1    0    0    0  501 -0.00000000000E+00  0.00000000000E+00  0.11828738157E+04  0.11828738157E+04  0.00000000000E+00 0. -1.
          1   -1    0    0  501    0  0.00000000000E+00 -0.00000000000E+00 -0.42834139260E+03  0.42834139260E+03  0.00000000000E+00 0.  1.
         23    2    1    2    0    0 -0.58434622810E+02 -0.25610595119E+03  0.11237484010E+04  0.11580868581E+04  0.96694564903E+02 0.  0.
         13    1    3    3    0    0 -0.45157158836E+01 -0.11416950680E+03  0.66829450809E+03  0.67799160579E+03  0.00000000000E+00 0.  1.
        -13    1    3    3    0    0 -0.53918906927E+02 -0.14193644439E+03  0.45545389287E+03  0.48009525232E+03  0.00000000000E+00 0. -1.
         22    1    1    2    0    0  0.58434622810E+02  0.25610595119E+03 -0.36921597790E+03  0.45312835015E+03  0.00000000000E+00 0.  1.
<mgrwt>
<rscale>  0 0.14236205E+04</rscale>
<asrwt>0</asrwt>
<pdfrwt beam="1">  1        1 0.65898676E-01 0.14236205E+04</pdfrwt>
<pdfrwt beam="2">  1       -1 0.18198059E+00 0.14236205E+04</pdfrwt>
<totfact> 0.10728100E+01</totfact>
</mgrwt>
</event>
<event>
 6    1  0.2325157E-005  0.1417969E+04  0.7818608E-02  0.8940914E-01
         -2   -1    0    0    0  501 -0.00000000000E+00  0.00000000000E+00  0.90750543393E+03  0.90750543393E+03  0.00000000000E+00 0. -1.
          2   -1    0    0  501    0  0.00000000000E+00 -0.00000000000E+00 -0.55389062461E+03  0.55389062461E+03  0.00000000000E+00 0.  1.
         23    2    1    2    0    0 -0.79049614148E+02 -0.37052782993E+03 -0.43657903387E+03  0.58507076274E+03  0.90370517059E+02 0.  0.
         13    1    3    3    0    0 -0.39490543183E+02 -0.33147079932E+03 -0.37856378657E+03  0.50472064977E+03  0.00000000000E+00 0.  1.
        -13    1    3    3    0    0 -0.39559070965E+02 -0.39057030615E+02 -0.58015247293E+02  0.80350112972E+02  0.00000000000E+00 0. -1.
         22    1    1    2    0    0  0.79049614148E+02  0.37052782993E+03  0.79019384318E+03  0.87632529580E+03  0.00000000000E+00 0. -1.
<mgrwt>
<rscale>  0 0.14179686E+04</rscale>
<asrwt>0</asrwt>
<pdfrwt beam="1">  1        2 0.85213943E-01 0.14179686E+04</pdfrwt>
<pdfrwt beam="2">  1       -2 0.13961622E+00 0.14179686E+04</pdfrwt>
<totfact> 0.19183374E+01</totfact>
</mgrwt>
</event>
<event>
 6    1  0.2325157E-005  0.2300797E+04  0.7818608E-02  0.8477607E-01
         -2   -1    0    0    0  501 -0.00000000000E+00  0.00000000000E+00  0.23708758662E+04  0.23708758662E+04  0.00000000000E+00 0. -1.
          2   -1    0    0  501    0  0.00000000000E+00 -0.00000000000E+00 -0.55819725345E+03  0.55819725345E+03  0.00000000000E+00 0.  1.
         23    2    1    2    0    0 -0.51207216721E+03 -0.17890196660E+03 -0.38115202834E+03  0.66918004699E+03  0.91111187524E+02 0.  0.
         13    1    3    3    0    0 -0.15183296611E+03 -0.24162354972E+02 -0.71384326057E+02  0.16950749541E+03  0.00000000000E+00 0.  1.
        -13    1    3    3    0    0 -0.36023920111E+03 -0.15473961163E+03 -0.30976770228E+03  0.49967255158E+03  0.00000000000E+00 0. -1.
         22    1    1    2    0    0  0.51207216721E+03  0.17890196660E+03  0.21938306411E+04  0.22598930727E+04  0.00000000000E+00 0. -1.
<mgrwt>
<rscale>  0 0.23007967E+04</rscale>
<asrwt>0</asrwt>
<pdfrwt beam="1">  1        2 0.85876502E-01 0.23007967E+04</pdfrwt>
<pdfrwt beam="2">  1       -2 0.36475013E+00 0.23007967E+04</pdfrwt>
<totfact> 0.61577020E-01</totfact>
</mgrwt>
</event>
<event>
 6    1  0.2325157E-005  0.2226083E+04  0.7818608E-02  0.8507650E-01
          1   -1    0    0  501    0  0.00000000000E+00  0.00000000000E+00  0.90408054386E+03  0.90408054386E+03  0.00000000000E+00 0. -1.
         -1   -1    0    0    0  501 -0.00000000000E+00 -0.00000000000E+00 -0.13702994588E+04  0.13702994588E+04  0.00000000000E+00 0.  1.
         23    2    1    2    0    0  0.73322844904E+03 -0.58840576201E+03  0.37126624138E+03  0.10153221460E+04  0.95891287526E+02 0.  0.
         13    1    3    3    0    0  0.84113821306E+02 -0.41588206323E+02  0.59632997909E+02  0.11117917197E+03  0.00000000000E+00 0. -1.
        -13    1    3    3    0    0  0.64911462773E+03 -0.54681755569E+03  0.31163324347E+03  0.90414297408E+03  0.00000000000E+00 0.  1.
         22    1    1    2    0    0 -0.73322844904E+03  0.58840576201E+03 -0.83748515636E+03  0.12590578566E+04  0.00000000000E+00 0.  1.
<mgrwt>
<rscale>  0 0.22260827E+04</rscale>
<asrwt>0</asrwt>
<pdfrwt beam="1">  1        1 0.13908931E+00 0.22260827E+04</pdfrwt>
<pdfrwt beam="2">  1       -1 0.21081530E+00 0.22260827E+04</pdfrwt>
<totfact> 0.20847614E+00</totfact>
</mgrwt>
</event>
<event>
 6    1  0.2325157E-005  0.1664119E+04  0.7818608E-02  0.8782097E-01
         -2   -1    0    0    0  501 -0.00000000000E+00  0.00000000000E+00  0.45087472714E+03  0.45087472714E+03  0.00000000000E+00 0. -1.
          2   -1    0    0  501    0  0.00000000000E+00 -0.00000000000E+00 -0.15355108016E+04  0.15355108016E+04  0.00000000000E+00 0.  1.
         23    2    1    2    0    0 -0.25487311360E+03 -0.70927590456E+03 -0.13096390829E+03  0.77085140196E+03  0.95014345264E+02 0.  0.
         11    1    3    3    0    0 -0.48822215882E+02 -0.17952194964E+03  0.61064476764E+01  0.18614249345E+03  0.00000000000E+00 0. -1.
        -11    1    3    3    0    0 -0.20605089771E+03 -0.52975395493E+03 -0.13707035596E+03  0.58470890851E+03  0.00000000000E+00 0.  1.
         22    1    1    2    0    0  0.25487311360E+03  0.70927590456E+03 -0.95367216617E+03  0.12155341268E+04  0.00000000000E+00 0.  1.
<mgrwt>
<rscale>  0 0.16641190E+04</rscale>
<asrwt>0</asrwt>
<pdfrwt beam="1">  1        2 0.23623243E+00 0.16641190E+04</pdfrwt>
<pdfrwt beam="2">  1       -2 0.69365342E-01 0.16641190E+04</pdfrwt>
<totfact> 0.21931584E+01</totfact>
</mgrwt>
</event>
<event>
 6    1  0.2325157E-005  0.1520917E+04  0.7818608E-02  0.8870662E-01
         -2   -1    0    0    0  501 -0.00000000000E+00  0.00000000000E+00  0.35317689599E+03  0.35317689599E+03  0.00000000000E+00 0. -1.
          2   -1    0    0  501    0  0.00000000000E+00 -0.00000000000E+00 -0.16374138805E+04  0.16374138805E+04  0.00000000000E+00 0.  1.
         23    2    1    2    0    0 -0.52014845574E+03  0.56892717931E+02  0.72823696818E+02  0.53614762183E+03  0.91431855591E+02 0.  0.
         11    1    3    3    0    0 -0.23597557582E+03  0.45679588463E+02 -0.80078363398E+01  0.24048954786E+03  0.00000000000E+00 0. -1.
        -11    1    3    3    0    0 -0.28417287992E+03  0.11213129468E+02  0.80831533158E+02  0.29565807397E+03  0.00000000000E+00 0.  1.
         22    1    1    2    0    0  0.52014845574E+03 -0.56892717931E+02 -0.13570606813E+04  0.14544431547E+04  0.00000000000E+00 0.  1.
<mgrwt>
<rscale>  0 0.15209165E+04</rscale>
<asrwt>0</asrwt>
<pdfrwt beam="1">  1        2 0.25190983E+00 0.15209165E+04</pdfrwt>
<pdfrwt beam="2">  1       -2 0.54334906E-01 0.15209165E+04</pdfrwt>
<totfact> 0.32684840E+01</totfact>
</mgrwt>
</event>
<event>
 6    1  0.2325157E-005  0.1242733E+04  0.7818608E-02  0.9076253E-01
          2   -1    0    0  501    0  0.00000000000E+00  0.00000000000E+00  0.17019572510E+04  0.17019572510E+04  0.00000000000E+00 0.  1.
         -2   -1    0    0    0  501 -0.00000000000E+00 -0.00000000000E+00 -0.22685428792E+03  0.22685428792E+03  0.00000000000E+00 0. -1.
         23    2    1    2    0    0 -0.55432233109E+03 -0.61575730516E+02  0.32802137348E+03  0.65332692883E+03  0.90405957469E+02 0.  0.
         11    1    3    3    0    0 -0.72318835264E+02 -0.38329978523E+02  0.58418345140E+02  0.10055796456E+03  0.00000000000E+00 0. -1.
        -11    1    3    3    0    0 -0.48200349583E+03 -0.23245751993E+02  0.26960302834E+03  0.55276896427E+03  0.00000000000E+00 0.  1.
         22    1    1    2    0    0  0.55432233109E+03  0.61575730516E+02  0.11470815896E+04  0.12754846100E+04  0.00000000000E+00 0. -1.
<mgrwt>
<rscale>  0 0.12427330E+04</rscale>
<asrwt>0</asrwt>
<pdfrwt beam="1">  1        2 0.26183957E+00 0.12427330E+04</pdfrwt>
<pdfrwt beam="2">  1       -2 0.34900661E-01 0.12427330E+04</pdfrwt>
<totfact> 0.74130384E+01</totfact>
</mgrwt>
</event>
<event>
 6    1  0.2325157E-005  0.3111682E+04  0.7818608E-02  0.8212539E-01
          2   -1    0    0  501    0  0.00000000000E+00  0.00000000000E+00  0.29989991099E+04  0.29989991099E+04  0.00000000000E+00 0.  1.
         -2   -1    0    0    0  501 -0.00000000000E+00 -0.00000000000E+00 -0.80714962159E+03  0.80714962159E+03  0.00000000000E+00 0. -1.
         23    2    1    2    0    0 -0.89505424305E+03 -0.10677184013E+04  0.19401105461E+04  0.23903390065E+04  0.92449729706E+02 0.  0.
         11    1    3    3    0    0 -0.76934799210E+03 -0.91608655815E+03  0.16075562226E+04  0.20038333074E+04  0.00000000000E+00 0. -1.
        -11    1    3    3    0    0 -0.12570625096E+03 -0.15163184311E+03  0.33255432343E+03  0.38650569906E+03  0.00000000000E+00 0.  1.
         22    1    1    2    0    0  0.89505424305E+03  0.10677184013E+04  0.25173894224E+03  0.14158097250E+04  0.00000000000E+00 0.  1.
<mgrwt>
<rscale>  0 0.31116819E+04</rscale>
<asrwt>0</asrwt>
<pdfrwt beam="1">  1        2 0.46138447E+00 0.31116819E+04</pdfrwt>
<pdfrwt beam="2">  1       -2 0.12417687E+00 0.31116819E+04</pdfrwt>
<totfact> 0.72052180E-01</totfact>
</mgrwt>
</event>
<event>
 6    1  0.2325157E-005  0.2122966E+04  0.7818608E-02  0.8551194E-01
         -2   -1    0    0    0  501 -0.00000000000E+00  0.00000000000E+00  0.92553394836E+03  0.92553394836E+03  0.00000000000E+00 0. -1.
          2   -1    0    0  501    0  0.00000000000E+00 -0.00000000000E+00 -0.12174007016E+04  0.12174007016E+04  0.00000000000E+00 0.  1.
         23    2    1    2    0    0 -0.19605388575E+03 -0.33966486796E+03 -0.11396754529E+04  0.12088099581E+04  0.92477176995E+02 0.  0.
         11    1    3    3    0    0 -0.96960335905E+02 -0.24003441228E+03 -0.81219752504E+03  0.85245682911E+03  0.00000000000E+00 0. -1.
        -11    1    3    3    0    0 -0.99093549841E+02 -0.99630455687E+02 -0.32747792787E+03  0.35635312902E+03  0.00000000000E+00 0.  1.
         22    1    1    2    0    0  0.19605388575E+03  0.33966486796E+03  0.84780869967E+03  0.93412469183E+03  0.00000000000E+00 0. -1.
<mgrwt>
<rscale>  0 0.21229655E+04</rscale>
<asrwt>0</asrwt>
<pdfrwt beam="1">  1        2 0.18729242E+00 0.21229655E+04</pdfrwt>
<pdfrwt beam="2">  1       -2 0.14238984E+00 0.21229655E+04</pdfrwt>
<totfact> 0.58463400E+00</totfact>
</mgrwt>
</event>
<event>
 6    1  0.2325157E-005  0.2865852E+04  0.7818608E-02  0.8283111E-01
          2   -1    0    0  501    0  0.00000000000E+00  0.00000000000E+00  0.98215252811E+03  0.98215252811E+03  0.00000000000E+00 0. -1.
         -2   -1    0    0    0  501 -0.00000000000E+00 -0.00000000000E+00 -0.20905879423E+04  0.20905879423E+04  0.00000000000E+00 0.  1.
         23    2    1    2    0    0  0.14179182333E+04 -0.47848765464E+02 -0.35062185372E+03  0.14643055127E+04  0.92050689676E+02 0.  0.
         13    1    3    3    0    0  0.42946297455E+03 -0.16263890618E+02 -0.15004715988E+03  0.45521106186E+03  0.00000000000E+00 0.  1.
        -13    1    3    3    0    0  0.98845525876E+03 -0.31584874846E+02 -0.20057469384E+03  0.10090944508E+04  0.00000000000E+00 0. -1.
         22    1    1    2    0    0 -0.14179182333E+04  0.47848765464E+02 -0.75781356042E+03  0.16084349577E+04  0.00000000000E+00 0. -1.
<mgrwt>
<rscale>  0 0.28658515E+04</rscale>
<asrwt>0</asrwt>
<pdfrwt beam="1">  1        2 0.15110039E+00 0.28658515E+04</pdfrwt>
<pdfrwt beam="2">  1       -2 0.32162891E+00 0.28658515E+04</pdfrwt>
<totfact> 0.52371754E-01</totfact>
</mgrwt>
</event>
<event>
 6    1  0.2325157E-005  0.2047050E+04  0.7818608E-02  0.8584934E-01
         -2   -1    0    0    0  501 -0.00000000000E+00  0.00000000000E+00  0.95013095342E+03  0.95013095342E+03  0.00000000000E+00 0. -1.
          2   -1    0    0  501    0  0.00000000000E+00 -0.00000000000E+00 -0.11025887460E+04  0.11025887460E+04  0.00000000000E+00 0.  1.
         23    2    1    2    0    0  0.99867296632E+03  0.40173503568E+02 -0.28710860154E+03  0.10442096874E+04  0.94767705989E+02 0.  0.
         11    1    3    3    0    0  0.84962149379E+03  0.67497791272E+02 -0.24974970226E+03  0.88813712248E+03  0.00000000000E+00 0.  1.
        -11    1    3    3    0    0  0.14905147253E+03 -0.27324287704E+02 -0.37358899277E+02  0.15607256491E+03  0.00000000000E+00 0. -1.
         22    1    1    2    0    0 -0.99867296632E+03 -0.40173503568E+02  0.13465080894E+03  0.10085100120E+04  0.00000000000E+00 0. -1.
<mgrwt>
<rscale>  0 0.20470503E+04</rscale>
<asrwt>0</asrwt>
<pdfrwt beam="1">  1        2 0.16962904E+00 0.20470503E+04</pdfrwt>
<pdfrwt beam="2">  1       -2 0.14617399E+00 0.20470503E+04</pdfrwt>
<totfact> 0.64448341E+00</totfact>
</mgrwt>
</event>
<event>
 6    1  0.2325157E-005  0.3879463E+04  0.7818608E-02  0.8029314E-01
          2   -1    0    0  501    0  0.00000000000E+00  0.00000000000E+00  0.13518479636E+04  0.13518479636E+04  0.00000000000E+00 0.  1.
         -2   -1    0    0    0  501 -0.00000000000E+00 -0.00000000000E+00 -0.27832700673E+04  0.27832700673E+04  0.00000000000E+00 0. -1.
         23    2    1    2    0    0 -0.37787551053E+03  0.87504227930E+03 -0.25155008725E+04  0.26916099190E+04  0.92360296660E+02 0.  0.
         13    1    3    3    0    0 -0.26729784873E+03  0.54939540672E+03 -0.15099377302E+04  0.16288632239E+04  0.00000000000E+00 0. -1.
        -13    1    3    3    0    0 -0.11057766180E+03  0.32564687258E+03 -0.10055631423E+04  0.10627466951E+04  0.00000000000E+00 0.  1.
         22    1    1    2    0    0  0.37787551053E+03 -0.87504227930E+03  0.10840787688E+04  0.14435081118E+04  0.00000000000E+00 0.  1.
<mgrwt>
<rscale>  0 0.38794628E+04</rscale>
<asrwt>0</asrwt>
<pdfrwt beam="1">  1        2 0.20797661E+00 0.38794628E+04</pdfrwt>
<pdfrwt beam="2">  1       -2 0.42819539E+00 0.38794628E+04</pdfrwt>
<totfact> 0.59433829E-02</totfact>
</mgrwt>
</event>
<event>
 6    1  0.2325157E-005  0.2075621E+04  0.7818608E-02  0.8572059E-01
         -2   -1    0    0    0  501 -0.00000000000E+00  0.00000000000E+00  0.79924800785E+03  0.79924800785E+03  0.00000000000E+00 0. -1.
          2   -1    0    0  501    0  0.00000000000E+00 -0.00000000000E+00 -0.13475796695E+04  0.13475796695E+04  0.00000000000E+00 0.  1.
         23    2    1    2    0    0  0.80523710707E+03  0.51554560816E+03 -0.68692309629E+03  0.11807005333E+04  0.89422236295E+02 0.  0.
         11    1    3    3    0    0  0.44920488087E+03  0.33723821901E+03 -0.41900214113E+03  0.70076917429E+03  0.00000000000E+00 0. -1.
        -11    1    3    3    0    0  0.35603222620E+03  0.17830738915E+03 -0.26792095516E+03  0.47993135898E+03  0.00000000000E+00 0.  1.
         22    1    1    2    0    0 -0.80523710707E+03 -0.51554560816E+03  0.13859143469E+03  0.96612714404E+03  0.00000000000E+00 0. -1.
<mgrwt>
<rscale>  0 0.20756207E+04</rscale>
<asrwt>0</asrwt>
<pdfrwt beam="1">  1        2 0.20731995E+00 0.20756207E+04</pdfrwt>
<pdfrwt beam="2">  1       -2 0.12296123E+00 0.20756207E+04</pdfrwt>
<totfact> 0.71581378E+00</totfact>
</mgrwt>
</event>
<event>
 6    1  0.2325157E-005  0.5145697E+04  0.7818608E-02  0.7806417E-01
         -2   -1    0    0    0  501 -0.00000000000E+00  0.00000000000E+00  0.28320406879E+04  0.28320406879E+04  0.00000000000E+00 0. -1.
          2   -1    0    0  501    0  0.00000000000E+00 -0.00000000000E+00 -0.23373783602E+04  0.23373783602E+04  0.00000000000E+00 0.  1.
         23    2    1    2    0    0  0.45745973409E+03  0.20946756394E+04 -0.11798257453E+04  0.24489694990E+04  0.92343785788E+02 0.  0.
         11    1    3    3    0    0  0.23067969911E+03  0.87399836529E+03 -0.46996073038E+03  0.10187979948E+04  0.00000000000E+00 0. -1.
        -11    1    3    3    0    0  0.22678003498E+03  0.12206772741E+04 -0.70986501496E+03  0.14301715042E+04  0.00000000000E+00 0.  1.
         22    1    1    2    0    0 -0.45745973409E+03 -0.20946756394E+04  0.16744880730E+04  0.27204495491E+04  0.00000000000E+00 0. -1.
<mgrwt>
<rscale>  0 0.51456975E+04</rscale>
<asrwt>0</asrwt>
<pdfrwt beam="1">  1        2 0.35959667E+00 0.51456975E+04</pdfrwt>
<pdfrwt beam="2">  1       -2 0.43569857E+00 0.51456975E+04</pdfrwt>
<totfact> 0.13440899E-02</totfact>
</mgrwt>
</event>
<event>
 6    1  0.2325157E-005  0.2611431E+04  0.7818608E-02  0.8364329E-01
          2   -1    0    0  501    0  0.00000000000E+00  0.00000000000E+00  0.18369379091E+04  0.18369379091E+04  0.00000000000E+00 0.  1.
         -2   -1    0    0    0  501 -0.00000000000E+00 -0.00000000000E+00 -0.92811691276E+03  0.92811691276E+03  0.00000000000E+00 0. -1.
         23    2    1    2    0    0 -0.39731105912E+03 -0.33992384438E+03 -0.81000444258E+03  0.96845659545E+03  0.91633414159E+02 0.  0.
         11    1    3    3    0    0 -0.26142401065E+03 -0.17864262295E+03 -0.43216334088E+03  0.53574327180E+03  0.00000000000E+00 0.  1.
        -11    1    3    3    0    0 -0.13588704847E+03 -0.16128122143E+03 -0.37784110170E+03  0.43271332365E+03  0.00000000000E+00 0. -1.
         22    1    1    2    0    0  0.39731105912E+03  0.33992384438E+03  0.17188254389E+04  0.17965982264E+04  0.00000000000E+00 0.  1.
<mgrwt>
<rscale>  0 0.26114311E+04</rscale>
<asrwt>0</asrwt>
<pdfrwt beam="1">  1        2 0.28260583E+00 0.26114311E+04</pdfrwt>
<pdfrwt beam="2">  1       -2 0.14278722E+00 0.26114311E+04</pdfrwt>
<totfact> 0.24818249E+00</totfact>
</mgrwt>
</event>
<event>
 6    1  0.2325157E-005  0.3472800E+04  0.7818608E-02  0.8120266E-01
          2   -1    0    0  501    0  0.00000000000E+00  0.00000000000E+00  0.27762197332E+04  0.27762197332E+04  0.00000000000E+00 0.  1.
         -2   -1    0    0    0  501 -0.00000000000E+00 -0.00000000000E+00 -0.10860399224E+04  0.10860399224E+04  0.00000000000E+00 0. -1.
         23    2    1    2    0    0  0.15561538682E+04  0.73209999579E+03  0.11026842803E+04  0.20449164674E+04  0.90473594382E+02 0.  0.
         11    1    3    3    0    0  0.96278362483E+03  0.50074378536E+03  0.70206694640E+03  0.12925148525E+04  0.00000000000E+00 0. -1.
        -11    1    3    3    0    0  0.59337024335E+03  0.23135621043E+03  0.40061733388E+03  0.75240161484E+03  0.00000000000E+00 0.  1.
         22    1    1    2    0    0 -0.15561538682E+04 -0.73209999579E+03  0.58749553059E+03  0.18173431882E+04  0.00000000000E+00 0. -1.
<mgrwt>
<rscale>  0 0.34728003E+04</rscale>
<asrwt>0</asrwt>
<pdfrwt beam="1">  1        2 0.42711072E+00 0.34728003E+04</pdfrwt>
<pdfrwt beam="2">  1       -2 0.16708307E+00 0.34728003E+04</pdfrwt>
<totfact> 0.44002719E-01</totfact>
</mgrwt>
</event>
<event>
 6    1  0.2325157E-005  0.2039433E+04  0.7818608E-02  0.8588403E-01
          2   -1    0    0  501    0  0.00000000000E+00  0.00000000000E+00  0.11712286150E+04  0.11712286150E+04  0.00000000000E+00 0.  1.
         -2   -1    0    0    0  501 -0.00000000000E+00 -0.00000000000E+00 -0.88780451795E+03  0.88780451795E+03  0.00000000000E+00 0. -1.
         23    2    1    2    0    0 -0.99358761780E+03 -0.19322461698E+03  0.24803329385E+03  0.10462130029E+04  0.92135908798E+02 0.  0.
         13    1    3    3    0    0 -0.48733238851E+03 -0.68289328739E+02  0.81321036463E+02  0.49876788217E+03  0.00000000000E+00 0.  1.
        -13    1    3    3    0    0 -0.50625522929E+03 -0.12493528825E+03  0.16671225739E+03  0.54744512071E+03  0.00000000000E+00 0. -1.
         22    1    1    2    0    0  0.99358761780E+03  0.19322461698E+03  0.35390803154E+02  0.10128201300E+04  0.00000000000E+00 0.  1.
<mgrwt>
<rscale>  0 0.20394333E+04</rscale>
<asrwt>0</asrwt>
<pdfrwt beam="1">  1        2 0.18018902E+00 0.20394333E+04</pdfrwt>
<pdfrwt beam="2">  1       -2 0.13658531E+00 0.20394333E+04</pdfrwt>
<totfact> 0.69898575E+00</totfact>
</mgrwt>
</event>
<event>
 6    1  0.2325157E-005  0.2396071E+04  0.7818608E-02  0.8440976E-01
          2   -1    0    0  501    0  0.00000000000E+00  0.00000000000E+00  0.15274645099E+04  0.15274645099E+04  0.00000000000E+00 0.  1.
         -2   -1    0    0    0  501 -0.00000000000E+00 -0.00000000000E+00 -0.93965441352E+03  0.93965441352E+03  0.00000000000E+00 0. -1.
         23    2    1    2    0    0 -0.22783463873E+03 -0.89198301160E+03 -0.49140588660E+03  0.10485811363E+04  0.10247115886E+03 0.  0.
         13    1    3    3    0    0 -0.16384501791E+03 -0.56827925104E+03 -0.36640886676E+03  0.69573123741E+03  0.00000000000E+00 0. -1.
        -13    1    3    3    0    0 -0.63989620825E+02 -0.32370376055E+03 -0.12499701985E+03  0.35284989888E+03  0.00000000000E+00 0.  1.
         22    1    1    2    0    0  0.22783463873E+03  0.89198301160E+03  0.10792159830E+04  0.14185377871E+04  0.00000000000E+00 0.  1.
<mgrwt>
<rscale>  0 0.23960708E+04</rscale>
<asrwt>0</asrwt>
<pdfrwt beam="1">  1        2 0.23499454E+00 0.23960708E+04</pdfrwt>
<pdfrwt beam="2">  1       -2 0.14456222E+00 0.23960708E+04</pdfrwt>
<totfact> 0.36397578E+00</totfact>
</mgrwt>
</event>
<event>
 6    1  0.2325157E-005  0.1910738E+04  0.7818608E-02  0.8649530E-01
          2   -1    0    0  501    0  0.00000000000E+00  0.00000000000E+00  0.15833897735E+04  0.15833897735E+04  0.00000000000E+00 0.  1.
         -2   -1    0    0    0  501 -0.00000000000E+00 -0.00000000000E+00 -0.57644029650E+03  0.57644029650E+03  0.00000000000E+00 0. -1.
         23    2    1    2    0    0 -0.55917285859E+03 -0.42321175963E+03 -0.22515520843E+03  0.74213319297E+03  0.91018289140E+02 0.  0.
         13    1    3    3    0    0 -0.17709023749E+03 -0.15962706734E+03 -0.11672871689E+03  0.26545686314E+03  0.00000000000E+00 0. -1.
        -13    1    3    3    0    0 -0.38208262110E+03 -0.26358469228E+03 -0.10842649154E+03  0.47667632983E+03  0.00000000000E+00 0.  1.
         22    1    1    2    0    0  0.55917285859E+03  0.42321175963E+03  0.12321046855E+04  0.14176968770E+04  0.00000000000E+00 0.  1.
<mgrwt>
<rscale>  0 0.19107377E+04</rscale>
<asrwt>0</asrwt>
<pdfrwt beam="1">  1        2 0.24359842E+00 0.19107377E+04</pdfrwt>
<pdfrwt beam="2">  1       -2 0.88683123E-01 0.19107377E+04</pdfrwt>
<totfact> 0.11656943E+01</totfact>
</mgrwt>
</event>
<event>
 6    1  0.2325157E-005  0.6709262E+03  0.7818608E-02  0.9768286E-01
         -2   -1    0    0    0  501 -0.00000000000E+00  0.00000000000E+00  0.18466116942E+03  0.18466116942E+03  0.00000000000E+00 0. -1.
          2   -1    0    0  501    0  0.00000000000E+00 -0.00000000000E+00 -0.60941602620E+03  0.60941602620E+03  0.00000000000E+00 0.  1.
         23    2    1    2    0    0  0.25178417836E+03 -0.98643312621E+02 -0.43880991848E+03  0.52329440379E+03  0.90316736429E+02 0.  0.
         13    1    3    3    0    0  0.10488313632E+03 -0.16976209933E+02 -0.24318825743E+03  0.26538498928E+03  0.00000000000E+00 0. -1.
        -13    1    3    3    0    0  0.14690104204E+03 -0.81667102688E+02 -0.19562166106E+03  0.25790941450E+03  0.00000000000E+00 0.  1.
         22    1    1    2    0    0 -0.25178417836E+03  0.98643312621E+02  0.14055061704E+02  0.27078279184E+03  0.00000000000E+00 0. -1.
<mgrwt>
<rscale>  0 0.67092615E+03</rscale>
<asrwt>0</asrwt>
<pdfrwt beam="1">  1        2 0.93756310E-01 0.67092615E+03</pdfrwt>
<pdfrwt beam="2">  1       -2 0.28409411E-01 0.67092615E+03</pdfrwt>
<totfact> 0.55542697E+02</totfact>
</mgrwt>
</event>
<event>
 6    1  0.2325157E-005  0.2752709E+04  0.7818608E-02  0.8318102E-01
          2   -1    0    0  501    0  0.00000000000E+00  0.00000000000E+00  0.92192456606E+03  0.92192456606E+03  0.00000000000E+00 0.  1.
         -2   -1    0    0    0  501 -0.00000000000E+00 -0.00000000000E+00 -0.20547798741E+04  0.20547798741E+04  0.00000000000E+00 0. -1.
         23    2    1    2    0    0  0.13437747013E+04  0.28662378405E+03 -0.61924127562E+03  0.15098428189E+04  0.91005158122E+02 0.  0.
         13    1    3    3    0    0  0.61981561365E+03  0.14155337051E+03 -0.33533751980E+03  0.71879065368E+03  0.00000000000E+00 0. -1.
        -13    1    3    3    0    0  0.72395908770E+03  0.14507041355E+03 -0.28390375582E+03  0.79105216523E+03  0.00000000000E+00 0.  1.
         22    1    1    2    0    0 -0.13437747013E+04 -0.28662378405E+03 -0.51361403240E+03  0.14668616212E+04  0.00000000000E+00 0.  1.
<mgrwt>
<rscale>  0 0.27527092E+04</rscale>
<asrwt>0</asrwt>
<pdfrwt beam="1">  1        2 0.14183455E+00 0.27527092E+04</pdfrwt>
<pdfrwt beam="2">  1       -2 0.31611997E+00 0.27527092E+04</pdfrwt>
<totfact> 0.62640844E-01</totfact>
</mgrwt>
</event>
<event>
 6    1  0.2325157E-005  0.1787494E+04  0.7818608E-02  0.8712978E-01
          2   -1    0    0  501    0  0.00000000000E+00  0.00000000000E+00  0.12677128462E+04  0.12677128462E+04  0.00000000000E+00 0.  1.
         -2   -1    0    0    0  501 -0.00000000000E+00 -0.00000000000E+00 -0.63009855291E+03  0.63009855291E+03  0.00000000000E+00 0. -1.
         23    2    1    2    0    0 -0.11181914898E+03 -0.78591936060E+03 -0.11101772835E+03  0.80665482591E+03  0.90522421096E+02 0.  0.
         13    1    3    3    0    0 -0.36068959137E+02 -0.13540560815E+03 -0.50524333493E+02  0.14895756714E+03  0.00000000000E+00 0.  1.
        -13    1    3    3    0    0 -0.75750189840E+02 -0.65051375244E+03 -0.60493394858E+02  0.65769725877E+03  0.00000000000E+00 0. -1.
         22    1    1    2    0    0  0.11181914898E+03  0.78591936060E+03  0.74863202167E+03  0.10911565732E+04  0.00000000000E+00 0.  1.
<mgrwt>
<rscale>  0 0.17874944E+04</rscale>
<asrwt>0</asrwt>
<pdfrwt beam="1">  1        2 0.19503274E+00 0.17874944E+04</pdfrwt>
<pdfrwt beam="2">  1       -2 0.96938239E-01 0.17874944E+04</pdfrwt>
<totfact> 0.14507301E+01</totfact>
</mgrwt>
</event>
<event>
 6    1  0.2325157E-005  0.1216309E+04  0.7818608E-02  0.9098700E-01
          4   -1    0    0  501    0  0.00000000000E+00  0.00000000000E+00  0.58771166761E+03  0.58771166761E+03  0.00000000000E+00 0.  1.
         -4   -1    0    0    0  501 -0.00000000000E+00 -0.00000000000E+00 -0.62930881364E+03  0.62930881364E+03  0.00000000000E+00 0. -1.
         23    2    1    2    0    0 -0.36722068006E+03  0.38230195354E+03 -0.31151922319E+03  0.62215600990E+03  0.95016118107E+02 0.  0.
         13    1    3    3    0    0 -0.13219827075E+03  0.19677253961E+03 -0.11076346196E+03  0.26165695030E+03  0.00000000000E+00 0.  1.
        -13    1    3    3    0    0 -0.23502240931E+03  0.18552941393E+03 -0.20075576122E+03  0.36049905960E+03  0.00000000000E+00 0. -1.
         22    1    1    2    0    0  0.36722068006E+03 -0.38230195354E+03  0.26992207715E+03  0.59486447135E+03  0.00000000000E+00 0.  1.
<mgrwt>
<rscale>  0 0.12163094E+04</rscale>
<asrwt>0</asrwt>
<pdfrwt beam="1">  1        4 0.90417179E-01 0.12163094E+04</pdfrwt>
<pdfrwt beam="2">  1       -4 0.96816741E-01 0.12163094E+04</pdfrwt>
<totfact> 0.18353516E+00</totfact>
</mgrwt>
</event>
<event>
 6    1  0.2325157E-005  0.3394816E+04  0.7818608E-02  0.8139180E-01
          2   -1    0    0  501    0  0.00000000000E+00  0.00000000000E+00  0.27115661627E+04  0.27115661627E+04  0.00000000000E+00 0.  1.
         -2   -1    0    0    0  501 -0.00000000000E+00 -0.00000000000E+00 -0.10625574186E+04  0.10625574186E+04  0.00000000000E+00 0. -1.
         23    2    1    2    0    0  0.76699985156E+03  0.83553176442E+03  0.22272535253E+04  0.25010292688E+04  0.89927945647E+02 0.  0.
         13    1    3    3    0    0  0.16289580659E+03  0.18110403307E+03  0.56339774099E+03  0.61380023554E+03  0.00000000000E+00 0. -1.
        -13    1    3    3    0    0  0.60410404497E+03  0.65442773134E+03  0.16638557844E+04  0.18872290332E+04  0.00000000000E+00 0.  1.
         22    1    1    2    0    0 -0.76699985156E+03 -0.83553176442E+03 -0.57824478126E+03  0.12730943126E+04  0.00000000000E+00 0. -1.
<mgrwt>
<rscale>  0 0.33948165E+04</rscale>
<asrwt>0</asrwt>
<pdfrwt beam="1">  1        2 0.41716402E+00 0.33948165E+04</pdfrwt>
<pdfrwt beam="2">  1       -2 0.16347037E+00 0.33948165E+04</pdfrwt>
<totfact> 0.51434160E-01</totfact>
</mgrwt>
</event>
<event>
 6    1  0.2325157E-005  0.2948205E+04  0.7818608E-02  0.8258678E-01
         -2   -1    0    0    0  501 -0.00000000000E+00  0.00000000000E+00  0.12228246941E+04  0.12228246941E+04  0.00000000000E+00 0. -1.
          2   -1    0    0  501    0  0.00000000000E+00 -0.00000000000E+00 -0.17770157948E+04  0.17770157948E+04  0.00000000000E+00 0.  1.
         23    2    1    2    0    0 -0.45397721630E+03  0.51470673241E+03  0.10483719443E+04  0.12565026999E+04  0.93257535450E+02 0.  0.
         13    1    3    3    0    0 -0.33147191039E+03  0.35971423727E+03  0.81723361776E+03  0.95243831604E+03  0.00000000000E+00 0. -1.
        -13    1    3    3    0    0 -0.12250530591E+03  0.15499249514E+03  0.23113832655E+03  0.30406438385E+03  0.00000000000E+00 0.  1.
         22    1    1    2    0    0  0.45397721630E+03 -0.51470673241E+03 -0.16025630450E+04  0.17433377890E+04  0.00000000000E+00 0.  1.
<mgrwt>
<rscale>  0 0.29482054E+04</rscale>
<asrwt>0</asrwt>
<pdfrwt beam="1">  1        2 0.27338705E+00 0.29482054E+04</pdfrwt>
<pdfrwt beam="2">  1       -2 0.18812688E+00 0.29482054E+04</pdfrwt>
<totfact> 0.12191088E+00</totfact>
</mgrwt>
</event>
<event>
 6    1  0.2325157E-005  0.1518928E+04  0.7818608E-02  0.8871963E-01
         -2   -1    0    0    0  501 -0.00000000000E+00  0.00000000000E+00  0.42540821450E+03  0.42540821450E+03  0.00000000000E+00 0. -1.
          2   -1    0    0  501    0  0.00000000000E+00 -0.00000000000E+00 -0.13558405500E+04  0.13558405500E+04  0.00000000000E+00 0.  1.
         23    2    1    2    0    0  0.36856323660E+03 -0.66458319657E+02  0.30415057373E+03  0.49111290831E+03  0.91808221760E+02 0.  0.
         11    1    3    3    0    0  0.18287155480E+03  0.12796711825E+02  0.13387714287E+03  0.22699967130E+03  0.00000000000E+00 0.  1.
        -11    1    3    3    0    0  0.18569168180E+03 -0.79255031481E+02  0.17027343087E+03  0.26411323701E+03  0.00000000000E+00 0. -1.
         22    1    1    2    0    0 -0.36856323660E+03  0.66458319657E+02 -0.12345829092E+04  0.12901358562E+04  0.00000000000E+00 0.  1.
<mgrwt>
<rscale>  0 0.15189282E+04</rscale>
<asrwt>0</asrwt>
<pdfrwt beam="1">  1        2 0.20859085E+00 0.15189282E+04</pdfrwt>
<pdfrwt beam="2">  1       -2 0.65447418E-01 0.15189282E+04</pdfrwt>
<totfact> 0.31840827E+01</totfact>
</mgrwt>
</event>
<event>
 6    1  0.2325157E-005  0.2570026E+04  0.7818608E-02  0.8378455E-01
          2   -1    0    0  501    0  0.00000000000E+00  0.00000000000E+00  0.20688434170E+04  0.20688434170E+04  0.00000000000E+00 0.  1.
         -2   -1    0    0    0  501 -0.00000000000E+00 -0.00000000000E+00 -0.79815504719E+03  0.79815504719E+03  0.00000000000E+00 0. -1.
         23    2    1    2    0    0 -0.19693490751E+03  0.56987947857E+03  0.18999957191E+04  0.19954631994E+04  0.91343689092E+02 0.  0.
         13    1    3    3    0    0 -0.10332267126E+03  0.37265161625E+03  0.10901692223E+04  0.11567254362E+04  0.00000000000E+00 0.  1.
        -13    1    3    3    0    0 -0.93612236250E+02  0.19722786232E+03  0.80982649681E+03  0.83873776318E+03  0.00000000000E+00 0. -1.
         22    1    1    2    0    0  0.19693490751E+03 -0.56987947857E+03 -0.62930734931E+03  0.87153526480E+03  0.00000000000E+00 0. -1.
<mgrwt>
<rscale>  0 0.25700255E+04</rscale>
<asrwt>0</asrwt>
<pdfrwt beam="1">  1        2 0.31828360E+00 0.25700255E+04</pdfrwt>
<pdfrwt beam="2">  1       -2 0.12279309E+00 0.25700255E+04</pdfrwt>
<totfact> 0.27191843E+00</totfact>
</mgrwt>
</event>
<event>
 6    1  0.2325157E-005  0.3387137E+04  0.7818608E-02  0.8141070E-01
         -2   -1    0    0    0  501 -0.00000000000E+00  0.00000000000E+00  0.13097229247E+04  0.13097229247E+04  0.00000000000E+00 0. -1.
          2   -1    0    0  501    0  0.00000000000E+00 -0.00000000000E+00 -0.21899095612E+04  0.21899095612E+04  0.00000000000E+00 0.  1.
         23    2    1    2    0    0  0.83617692019E+03  0.21896027180E+03  0.10628564899E+04  0.13730032202E+04  0.91315289474E+02 0.  0.
         11    1    3    3    0    0  0.21180392489E+03  0.60544335213E+02  0.21119795718E+03  0.30517387870E+03  0.00000000000E+00 0. -1.
        -11    1    3    3    0    0  0.62437299530E+03  0.15841593659E+03  0.85165853271E+03  0.10678293415E+04  0.00000000000E+00 0.  1.
         22    1    1    2    0    0 -0.83617692019E+03 -0.21896027180E+03 -0.19430431264E+04  0.21266292657E+04  0.00000000000E+00 0.  1.
<mgrwt>
<rscale>  0 0.33871373E+04</rscale>
<asrwt>0</asrwt>
<pdfrwt beam="1">  1        2 0.33690916E+00 0.33871373E+04</pdfrwt>
<pdfrwt beam="2">  1       -2 0.20149583E+00 0.33871373E+04</pdfrwt>
<totfact> 0.56417126E-01</totfact>
</mgrwt>
</event>
<event>
 6    1  0.2325157E-005  0.1438536E+04  0.7818608E-02  0.8926387E-01
         -2   -1    0    0    0  501 -0.00000000000E+00  0.00000000000E+00  0.34505608519E+03  0.34505608519E+03  0.00000000000E+00 0. -1.
          2   -1    0    0  501    0  0.00000000000E+00 -0.00000000000E+00 -0.14993111457E+04  0.14993111457E+04  0.00000000000E+00 0.  1.
         23    2    1    2    0    0  0.63149766834E+03 -0.26827324096E+03 -0.31519713006E+03  0.76049544530E+03  0.90797877721E+02 0.  0.
         13    1    3    3    0    0  0.42041843275E+03 -0.19574568599E+03 -0.25540374983E+03  0.52943281690E+03  0.00000000000E+00 0. -1.
        -13    1    3    3    0    0  0.21107923559E+03 -0.72527554968E+02 -0.59793380221E+02  0.23106262841E+03  0.00000000000E+00 0.  1.
         22    1    1    2    0    0 -0.63149766834E+03  0.26827324096E+03 -0.83905793048E+03  0.10838717856E+04  0.00000000000E+00 0.  1.
<mgrwt>
<rscale>  0 0.14385360E+04</rscale>
<asrwt>0</asrwt>
<pdfrwt beam="1">  1        2 0.23066325E+00 0.14385360E+04</pdfrwt>
<pdfrwt beam="2">  1       -2 0.53085552E-01 0.14385360E+04</pdfrwt>
<totfact> 0.41254398E+01</totfact>
</mgrwt>
</event>
<event>
 6    1  0.2325157E-005  0.1924741E+04  0.7818608E-02  0.8642638E-01
         -2   -1    0    0    0  501 -0.00000000000E+00  0.00000000000E+00  0.60619804099E+03  0.60619804099E+03  0.00000000000E+00 0. -1.
          2   -1    0    0  501    0  0.00000000000E+00 -0.00000000000E+00 -0.15278132523E+04  0.15278132523E+04  0.00000000000E+00 0.  1.
         23    2    1    2    0    0  0.75286514239E+03 -0.52858842267E+03 -0.76707724663E+03  0.12012232007E+04  0.91203247417E+02 0.  0.
         13    1    3    3    0    0  0.42830722266E+03 -0.24512906888E+03 -0.40885140772E+03  0.64085475031E+03  0.00000000000E+00 0. -1.
        -13    1    3    3    0    0  0.32455791973E+03 -0.28345935379E+03 -0.35822583891E+03  0.56036845037E+03  0.00000000000E+00 0.  1.
         22    1    1    2    0    0 -0.75286514239E+03  0.52858842267E+03 -0.15453796468E+03  0.93278809262E+03  0.00000000000E+00 0.  1.
<mgrwt>
<rscale>  0 0.19247414E+04</rscale>
<asrwt>0</asrwt>
<pdfrwt beam="1">  1        2 0.23504819E+00 0.19247414E+04</pdfrwt>
<pdfrwt beam="2">  1       -2 0.93261238E-01 0.19247414E+04</pdfrwt>
<totfact> 0.11136350E+01</totfact>
</mgrwt>
</event>
<event>
 6    1  0.5233216E-005  0.3067717E+04  0.7818608E-02  0.8224654E-01
          2   -1    0    0  501    0  0.00000000000E+00  0.00000000000E+00  0.24579038607E+04  0.24579038607E+04  0.00000000000E+00 0. -1.
         -2   -1    0    0    0  501 -0.00000000000E+00 -0.00000000000E+00 -0.95720649148E+03  0.95720649148E+03  0.00000000000E+00 0.  1.
         23    2    1    2    0    0 -0.47530850151E+03 -0.36170319457E+03  0.23221512794E+04  0.23994657788E+04  0.91115786488E+02 0.  0.
         11    1    3    3    0    0 -0.12966027448E+03 -0.14675072636E+03  0.68146105123E+03  0.70903929849E+03  0.00000000000E+00 0. -1.
        -11    1    3    3    0    0 -0.34564822704E+03 -0.21495246821E+03  0.16406902282E+04  0.16904264803E+04  0.00000000000E+00 0.  1.
         22    1    1    2    0    0  0.47530850151E+03  0.36170319457E+03 -0.82145391027E+03  0.10156445733E+04  0.00000000000E+00 0.  1.
<mgrwt>
<rscale>  0 0.30677168E+04</rscale>
<asrwt>0</asrwt>
<pdfrwt beam="1">  1        2 0.37813905E+00 0.30677168E+04</pdfrwt>
<pdfrwt beam="2">  1       -2 0.14726254E+00 0.30677168E+04</pdfrwt>
<totfact> 0.98584158E-01</totfact>
</mgrwt>
</event>
<event>
 6    1  0.2325157E-005  0.2306289E+04  0.7818608E-02  0.8475446E-01
          2   -1    0    0  501    0  0.00000000000E+00  0.00000000000E+00  0.10559812979E+04  0.10559812979E+04  0.00000000000E+00 0.  1.
         -2   -1    0    0    0  501 -0.00000000000E+00 -0.00000000000E+00 -0.12592479888E+04  0.12592479888E+04  0.00000000000E+00 0. -1.
         23    2    1    2    0    0 -0.58481964160E+03 -0.65487190153E+02 -0.10952106252E+04  0.12466477187E+04  0.91332556162E+02 0.  0.
         13    1    3    3    0    0 -0.35632900276E+03  0.17940593724E+01 -0.69138102951E+03  0.77780544150E+03  0.00000000000E+00 0.  1.
        -13    1    3    3    0    0 -0.22849063884E+03 -0.67281249525E+02 -0.40382959569E+03  0.46884227725E+03  0.00000000000E+00 0. -1.
         22    1    1    2    0    0  0.58481964160E+03  0.65487190153E+02  0.89194393434E+03  0.10685815679E+04  0.00000000000E+00 0.  1.
<mgrwt>
<rscale>  0 0.23062891E+04</rscale>
<asrwt>0</asrwt>
<pdfrwt beam="1">  1        2 0.16245866E+00 0.23062891E+04</pdfrwt>
<pdfrwt beam="2">  1       -2 0.19373046E+00 0.23062891E+04</pdfrwt>
<totfact> 0.30768141E+00</totfact>
</mgrwt>
</event>
<event>
 6    1  0.2325157E-005  0.4552250E+04  0.7818608E-02  0.7901553E-01
          2   -1    0    0  501    0  0.00000000000E+00  0.00000000000E+00  0.22089134744E+04  0.22089134744E+04  0.00000000000E+00 0.  1.
         -2   -1    0    0    0  501 -0.00000000000E+00 -0.00000000000E+00 -0.23453814007E+04  0.23453814007E+04  0.00000000000E+00 0. -1.
         23    2    1    2    0    0 -0.98219698231E+03  0.15335860179E+04 -0.14326734943E+04  0.23189546637E+04  0.91653722712E+02 0.  0.
         11    1    3    3    0    0 -0.36923438723E+03  0.65804812927E+03 -0.60587629866E+03  0.96770215585E+03  0.00000000000E+00 0.  1.
        -11    1    3    3    0    0 -0.61296259508E+03  0.87553788864E+03 -0.82679719562E+03  0.13512525079E+04  0.00000000000E+00 0. -1.
         22    1    1    2    0    0  0.98219698231E+03 -0.15335860179E+04  0.12962055679E+04  0.22353402114E+04  0.00000000000E+00 0.  1.
<mgrwt>
<rscale>  0 0.45522498E+04</rscale>
<asrwt>0</asrwt>
<pdfrwt beam="1">  1        2 0.33983284E+00 0.45522498E+04</pdfrwt>
<pdfrwt beam="2">  1       -2 0.36082791E+00 0.45522498E+04</pdfrwt>
<totfact> 0.51168285E-02</totfact>
</mgrwt>
</event>
<event>
 6    1  0.2325157E-005  0.3614580E+04  0.7818608E-02  0.8087160E-01
         -2   -1    0    0    0  501 -0.00000000000E+00  0.00000000000E+00  0.82781058684E+03  0.82781058684E+03  0.00000000000E+00 0. -1.
          2   -1    0    0  501    0  0.00000000000E+00 -0.00000000000E+00 -0.39457054356E+04  0.39457054356E+04  0.00000000000E+00 0.  1.
         23    2    1    2    0    0  0.25843836120E+03 -0.71386515252E+03  0.60579469655E+03  0.97321897189E+03  0.61433788374E+02 0.  0.
         11    1    3    3    0    0  0.13881786792E+03 -0.45673854897E+03  0.35929132627E+03  0.59747030027E+03  0.00000000000E+00 0. -1.
        -11    1    3    3    0    0  0.11962049328E+03 -0.25712660355E+03  0.24650337028E+03  0.37574867162E+03  0.00000000000E+00 0.  1.
         22    1    1    2    0    0 -0.25843836120E+03  0.71386515252E+03 -0.37236895453E+04  0.38002970505E+04  0.00000000000E+00 0.  1.
<mgrwt>
<rscale>  0 0.36145798E+04</rscale>
<asrwt>0</asrwt>
<pdfrwt beam="1">  1        2 0.60703160E+00 0.36145798E+04</pdfrwt>
<pdfrwt beam="2">  1       -2 0.12735548E+00 0.36145798E+04</pdfrwt>
<totfact> 0.14047229E-01</totfact>
</mgrwt>
</event>
<event>
 6    1  0.2325157E-005  0.2519746E+04  0.7818608E-02  0.8395984E-01
         -2   -1    0    0    0  501 -0.00000000000E+00  0.00000000000E+00  0.63878634923E+03  0.63878634923E+03  0.00000000000E+00 0. -1.
          2   -1    0    0  501    0  0.00000000000E+00 -0.00000000000E+00 -0.24848374276E+04  0.24848374276E+04  0.00000000000E+00 0.  1.
         23    2    1    2    0    0  0.61432893886E+02 -0.11837593433E+04 -0.39745483575E+03  0.12518622382E+04  0.64253665893E+02 0.  0.
         11    1    3    3    0    0  0.54571841518E+02 -0.88578732264E+03 -0.26929202213E+03  0.92742409932E+03  0.00000000000E+00 0.  1.
        -11    1    3    3    0    0  0.68610523680E+01 -0.29797202070E+03 -0.12816281362E+03  0.32443813887E+03  0.00000000000E+00 0. -1.
         22    1    1    2    0    0 -0.61432893886E+02  0.11837593433E+04 -0.14485962426E+04  0.18717615386E+04  0.00000000000E+00 0.  1.
<mgrwt>
<rscale>  0 0.25197462E+04</rscale>
<asrwt>0</asrwt>
<pdfrwt beam="1">  1        2 0.38228269E+00 0.25197462E+04</pdfrwt>
<pdfrwt beam="2">  1       -2 0.98274821E-01 0.25197462E+04</pdfrwt>
<totfact> 0.27219418E+00</totfact>
</mgrwt>
</event>
<event>
 6    1  0.2325157E-005  0.8540289E+03  0.7818608E-02  0.9484945E-01
         -1   -1    0    0    0  501 -0.00000000000E+00  0.00000000000E+00  0.20114020754E+03  0.20114020754E+03  0.00000000000E+00 0. -1.
          1   -1    0    0  501    0  0.00000000000E+00 -0.00000000000E+00 -0.90653847901E+03  0.90653847901E+03  0.00000000000E+00 0.  1.
         23    2    1    2    0    0  0.24839413622E+03 -0.30169782260E+03 -0.14983484054E+03  0.42843502714E+03  0.91568935621E+02 0.  0.
         11    1    3    3    0    0  0.14062838890E+03 -0.23706048705E+03 -0.10692917764E+03  0.29564821548E+03  0.00000000000E+00 0. -1.
        -11    1    3    3    0    0  0.10776574732E+03 -0.64637335553E+02 -0.42905662898E+02  0.13278681166E+03  0.00000000000E+00 0.  1.
         22    1    1    2    0    0 -0.24839413622E+03  0.30169782260E+03 -0.55556343093E+03  0.67924365942E+03  0.00000000000E+00 0.  1.
<mgrwt>
<rscale>  0 0.85402889E+03</rscale>
<asrwt>0</asrwt>
<pdfrwt beam="1">  1        1 0.13946746E+00 0.85402889E+03</pdfrwt>
<pdfrwt beam="2">  1       -1 0.30944647E-01 0.85402889E+03</pdfrwt>
<totfact> 0.17504060E+02</totfact>
</mgrwt>
</event>
<event>
 6    1  0.2325157E-005  0.3974436E+04  0.7818608E-02  0.8009723E-01
          2   -1    0    0  501    0  0.00000000000E+00  0.00000000000E+00  0.23488515804E+04  0.23488515804E+04  0.00000000000E+00 0.  1.
         -2   -1    0    0    0  501 -0.00000000000E+00 -0.00000000000E+00 -0.16812626122E+04  0.16812626122E+04  0.00000000000E+00 0. -1.
         23    2    1    2    0    0 -0.39937398342E+03  0.95305084119E+03 -0.13859787573E+04  0.17312131752E+04  0.91413663307E+02 0.  0.
         11    1    3    3    0    0 -0.17741533742E+03  0.31560269416E+03 -0.50529667793E+03  0.62161563304E+03  0.00000000000E+00 0. -1.
        -11    1    3    3    0    0 -0.22195864600E+03  0.63744814703E+03 -0.88068207938E+03  0.11095975422E+04  0.00000000000E+00 0.  1.
         22    1    1    2    0    0  0.39937398342E+03 -0.95305084119E+03  0.20535677255E+04  0.22989010174E+04  0.00000000000E+00 0.  1.
<mgrwt>
<rscale>  0 0.39744365E+04</rscale>
<asrwt>0</asrwt>
<pdfrwt beam="1">  1        2 0.36136178E+00 0.39744365E+04</pdfrwt>
<pdfrwt beam="2">  1       -2 0.25865579E+00 0.39744365E+04</pdfrwt>
<totfact> 0.19115495E-01</totfact>
</mgrwt>
</event>
<event>
 6    1  0.2325157E-005  0.1476434E+04  0.7818608E-02  0.8900277E-01
          2   -1    0    0  501    0  0.00000000000E+00  0.00000000000E+00  0.18181039497E+04  0.18181039497E+04  0.00000000000E+00 0.  1.
         -2   -1    0    0    0  501 -0.00000000000E+00 -0.00000000000E+00 -0.29974304807E+03  0.29974304807E+03  0.00000000000E+00 0. -1.
         23    2    1    2    0    0 -0.28792223335E+03 -0.14285158242E+02 -0.20882094872E+03  0.36677292099E+03  0.88390659831E+02 0.  0.
         13    1    3    3    0    0 -0.53973274452E+02 -0.27252077989E+02 -0.77091484798E+02  0.97973910498E+02  0.00000000000E+00 0.  1.
        -13    1    3    3    0    0 -0.23394895890E+03  0.12966919747E+02 -0.13172946392E+03  0.26879901049E+03  0.00000000000E+00 0. -1.
         22    1    1    2    0    0  0.28792223335E+03  0.14285158242E+02  0.17271818504E+04  0.17510740768E+04  0.00000000000E+00 0.  1.
<mgrwt>
<rscale>  0 0.14764336E+04</rscale>
<asrwt>0</asrwt>
<pdfrwt beam="1">  1        2 0.27970829E+00 0.14764336E+04</pdfrwt>
<pdfrwt beam="2">  1       -2 0.46114316E-01 0.14764336E+04</pdfrwt>
<totfact> 0.36387091E+01</totfact>
</mgrwt>
</event>
<event>
 6    1  0.2325157E-005  0.3872559E+04  0.7818608E-02  0.8030761E-01
          2   -1    0    0  501    0  0.00000000000E+00  0.00000000000E+00  0.25026773186E+04  0.25026773186E+04  0.00000000000E+00 0. -1.
         -2   -1    0    0    0  501 -0.00000000000E+00 -0.00000000000E+00 -0.14980668483E+04  0.14980668483E+04  0.00000000000E+00 0.  1.
         23    2    1    2    0    0 -0.14304517297E+04 -0.98913129363E+03  0.13795446971E+04  0.22216577324E+04  0.89703075748E+02 0.  0.
         13    1    3    3    0    0 -0.61417749249E+03 -0.38500967834E+03  0.53665911963E+03  0.90191432818E+03  0.00000000000E+00 0.  1.
        -13    1    3    3    0    0 -0.81627423720E+03 -0.60412161529E+03  0.84288557742E+03  0.13197434042E+04  0.00000000000E+00 0. -1.
         22    1    1    2    0    0  0.14304517297E+04  0.98913129363E+03 -0.37493422681E+03  0.17790864345E+04  0.00000000000E+00 0. -1.
<mgrwt>
<rscale>  0 0.38725588E+04</rscale>
<asrwt>0</asrwt>
<pdfrwt beam="1">  1        2 0.38502728E+00 0.38725588E+04</pdfrwt>
<pdfrwt beam="2">  1       -2 0.23047182E+00 0.38725588E+04</pdfrwt>
<totfact> 0.23477743E-01</totfact>
</mgrwt>
</event>
<event>
 6    1  0.2325157E-005  0.7553354E+03  0.7818608E-02  0.9627017E-01
          2   -1    0    0  501    0  0.00000000000E+00  0.00000000000E+00  0.41597377271E+03  0.41597377271E+03  0.00000000000E+00 0.  1.
         -2   -1    0    0    0  501 -0.00000000000E+00 -0.00000000000E+00 -0.34288916471E+03  0.34288916471E+03  0.00000000000E+00 0. -1.
         23    2    1    2    0    0 -0.12095043075E+03  0.62766063034E+02 -0.31073439548E+03  0.35157236204E+03  0.92079725519E+02 0.  0.
         11    1    3    3    0    0 -0.80956084626E+02  0.42969162213E+02 -0.28647409041E+03  0.30077839187E+03  0.00000000000E+00 0.  1.
        -11    1    3    3    0    0 -0.39994346123E+02  0.19796900821E+02 -0.24260305068E+02  0.50793970173E+02  0.00000000000E+00 0. -1.
         22    1    1    2    0    0  0.12095043075E+03 -0.62766063034E+02  0.38381900347E+03  0.40729057538E+03  0.00000000000E+00 0.  1.
<mgrwt>
<rscale>  0 0.75533542E+03</rscale>
<asrwt>0</asrwt>
<pdfrwt beam="1">  1        2 0.63995965E-01 0.75533542E+03</pdfrwt>
<pdfrwt beam="2">  1       -2 0.52752179E-01 0.75533542E+03</pdfrwt>
<totfact> 0.26005507E+02</totfact>
</mgrwt>
</event>
<event>
 6    1  0.2325157E-005  0.2127000E+04  0.7818608E-02  0.8549442E-01
         -2   -1    0    0    0  501 -0.00000000000E+00  0.00000000000E+00  0.87108051333E+03  0.87108051333E+03  0.00000000000E+00 0. -1.
          2   -1    0    0  501    0  0.00000000000E+00 -0.00000000000E+00 -0.12984248852E+04  0.12984248852E+04  0.00000000000E+00 0.  1.
         23    2    1    2    0    0 -0.81423337234E+03  0.31062027408E+03  0.40435555078E+03  0.96485370587E+03  0.89321458635E+02 0.  0.
         11    1    3    3    0    0 -0.31176509362E+03  0.73279695604E+02  0.15382308242E+03  0.35528710653E+03  0.00000000000E+00 0. -1.
        -11    1    3    3    0    0 -0.50246827873E+03  0.23734057848E+03  0.25053246836E+03  0.60956659933E+03  0.00000000000E+00 0.  1.
         22    1    1    2    0    0  0.81423337234E+03 -0.31062027408E+03 -0.83169992262E+03  0.12046516926E+04  0.00000000000E+00 0.  1.
<mgrwt>
<rscale>  0 0.21270003E+04</rscale>
<asrwt>0</asrwt>
<pdfrwt beam="1">  1        2 0.19975768E+00 0.21270003E+04</pdfrwt>
<pdfrwt beam="2">  1       -2 0.13401239E+00 0.21270003E+04</pdfrwt>
<totfact> 0.61245474E+00</totfact>
</mgrwt>
</event>
<event>
 6    1  0.2325157E-005  0.1623962E+04  0.7818608E-02  0.8805961E-01
         -2   -1    0    0    0  501 -0.00000000000E+00  0.00000000000E+00  0.16857954688E+04  0.16857954688E+04  0.00000000000E+00 0. -1.
          2   -1    0    0  501    0  0.00000000000E+00 -0.00000000000E+00 -0.39109890331E+03  0.39109890331E+03  0.00000000000E+00 0.  1.
         23    2    1    2    0    0  0.34351151798E+03 -0.64876639193E+03  0.10854260869E+04  0.13135516394E+04  0.91488388155E+02 0.  0.
         11    1    3    3    0    0  0.19903713191E+03 -0.41083592535E+03  0.59924985580E+03  0.75332750323E+03  0.00000000000E+00 0. -1.
        -11    1    3    3    0    0  0.14447438607E+03 -0.23793046659E+03  0.48617623105E+03  0.56022413621E+03  0.00000000000E+00 0.  1.
         22    1    1    2    0    0 -0.34351151798E+03  0.64876639193E+03  0.20927047864E+03  0.76334273267E+03  0.00000000000E+00 0. -1.
<mgrwt>
<rscale>  0 0.16239615E+04</rscale>
<asrwt>0</asrwt>
<pdfrwt beam="1">  1        2 0.60169063E-01 0.16239615E+04</pdfrwt>
<pdfrwt beam="2">  1       -2 0.25935315E+00 0.16239615E+04</pdfrwt>
<totfact> 0.43985347E+00</totfact>
</mgrwt>
</event>
<event>
 6    1  0.2325157E-005  0.2993335E+04  0.7818608E-02  0.8245637E-01
         -2   -1    0    0    0  501 -0.00000000000E+00  0.00000000000E+00  0.53081640248E+03  0.53081640248E+03  0.00000000000E+00 0. -1.
          2   -1    0    0  501    0  0.00000000000E+00 -0.00000000000E+00 -0.42199402441E+04  0.42199402441E+04  0.00000000000E+00 0.  1.
         23    2    1    2    0    0 -0.12614488639E+04  0.70999907202E+02 -0.57707544227E+03  0.13920158910E+04  0.91640339585E+02 0.  0.
         11    1    3    3    0    0 -0.47383321852E+03  0.16333467256E+02 -0.16944860110E+03  0.50348538166E+03  0.00000000000E+00 0.  1.
        -11    1    3    3    0    0 -0.78761564536E+03  0.54666439946E+02 -0.40762684117E+03  0.88853050939E+03  0.00000000000E+00 0. -1.
         22    1    1    2    0    0  0.12614488639E+04 -0.70999907202E+02 -0.31120483993E+04  0.33587407555E+04  0.00000000000E+00 0.  1.
<mgrwt>
<rscale>  0 0.29933349E+04</rscale>
<asrwt>0</asrwt>
<pdfrwt beam="1">  1        2 0.64922159E+00 0.29933349E+04</pdfrwt>
<pdfrwt beam="2">  1       -2 0.81664061E-01 0.29933349E+04</pdfrwt>
<totfact> 0.25235592E-01</totfact>
</mgrwt>
</event>
<event>
 6    1  0.2325157E-005  0.3522424E+04  0.7818608E-02  0.8108496E-01
         -2   -1    0    0    0  501 -0.00000000000E+00  0.00000000000E+00  0.21870876372E+04  0.21870876372E+04  0.00000000000E+00 0. -1.
          2   -1    0    0  501    0  0.00000000000E+00 -0.00000000000E+00 -0.14182643256E+04  0.14182643256E+04  0.00000000000E+00 0.  1.
         23    2    1    2    0    0  0.44357799500E+02  0.14661967254E+04  0.13801890896E+04  0.20161796731E+04  0.91422639845E+02 0.  0.
         13    1    3    3    0    0  0.12908304172E+02  0.13091764535E+04  0.12429406268E+04  0.18052731130E+04  0.00000000000E+00 0. -1.
        -13    1    3    3    0    0  0.31449495328E+02  0.15702027186E+03  0.13724846280E+03  0.21090656005E+03  0.00000000000E+00 0.  1.
         22    1    1    2    0    0 -0.44357799500E+02 -0.14661967254E+04 -0.61136577796E+03  0.15891722897E+04  0.00000000000E+00 0.  1.
<mgrwt>
<rscale>  0 0.35224244E+04</rscale>
<asrwt>0</asrwt>
<pdfrwt beam="1">  1        2 0.21819451E+00 0.35224244E+04</pdfrwt>
<pdfrwt beam="2">  1       -2 0.33647502E+00 0.35224244E+04</pdfrwt>
<totfact> 0.21911611E-01</totfact>
</mgrwt>
</event>
<event>
 6    1  0.2325157E-005  0.2026776E+04  0.7818608E-02  0.8594203E-01
         -2   -1    0    0    0  501 -0.00000000000E+00  0.00000000000E+00  0.38860776900E+03  0.38860776900E+03  0.00000000000E+00 0. -1.
          2   -1    0    0  501    0  0.00000000000E+00 -0.00000000000E+00 -0.26426525849E+04  0.26426525849E+04  0.00000000000E+00 0.  1.
         23    2    1    2    0    0  0.26726023630E+03 -0.48622408531E+03 -0.23940135224E+04  0.24590426211E+04  0.88022563530E+02 0.  0.
         13    1    3    3    0    0  0.23350308184E+03 -0.44531190470E+03 -0.20386721214E+04  0.20997643678E+04  0.00000000000E+00 0.  1.
        -13    1    3    3    0    0  0.33757154465E+02 -0.40912180603E+02 -0.35534140099E+03  0.35927825325E+03  0.00000000000E+00 0. -1.
         22    1    1    2    0    0 -0.26726023630E+03  0.48622408531E+03  0.13996870646E+03  0.57221773289E+03  0.00000000000E+00 0. -1.
<mgrwt>
<rscale>  0 0.20267761E+04</rscale>
<asrwt>0</asrwt>
<pdfrwt beam="1">  1        2 0.40656193E+00 0.20267761E+04</pdfrwt>
<pdfrwt beam="2">  1       -2 0.59785811E-01 0.20267761E+04</pdfrwt>
<totfact> 0.69541781E+00</totfact>
</mgrwt>
</event>
<event>
 6    1  0.2325157E-005  0.1830642E+04  0.7818608E-02  0.8690172E-01
          2   -1    0    0  501    0  0.00000000000E+00  0.00000000000E+00  0.79519857558E+03  0.79519857558E+03  0.00000000000E+00 0.  1.
         -2   -1    0    0    0  501 -0.00000000000E+00 -0.00000000000E+00 -0.10535895305E+04  0.10535895305E+04  0.00000000000E+00 0. -1.
         23    2    1    2    0    0  0.30432459102E+03  0.39303060954E+03 -0.90305784930E+03  0.10347353305E+04  0.89873290081E+02 0.  0.
         11    1    3    3    0    0  0.14075599125E+03  0.13732300598E+03 -0.28634060613E+03  0.34736263438E+03  0.00000000000E+00 0. -1.
        -11    1    3    3    0    0  0.16356859977E+03  0.25570760356E+03 -0.61671724317E+03  0.68737269612E+03  0.00000000000E+00 0.  1.
         22    1    1    2    0    0 -0.30432459102E+03 -0.39303060954E+03  0.64466689437E+03  0.81405277558E+03  0.00000000000E+00 0.  1.
<mgrwt>
<rscale>  0 0.18306424E+04</rscale>
<asrwt>0</asrwt>
<pdfrwt beam="1">  1        2 0.12233824E+00 0.18306424E+04</pdfrwt>
<pdfrwt beam="2">  1       -2 0.16209070E+00 0.18306424E+04</pdfrwt>
<totfact> 0.79463470E+00</totfact>
</mgrwt>
</event>
<event>
 6    1  0.2325157E-005  0.3427064E+04  0.7818608E-02  0.8131296E-01
          1   -1    0    0  501    0  0.00000000000E+00  0.00000000000E+00  0.19982044510E+04  0.19982044510E+04  0.00000000000E+00 0. -1.
         -1   -1    0    0    0  501 -0.00000000000E+00 -0.00000000000E+00 -0.14694154798E+04  0.14694154798E+04  0.00000000000E+00 0.  1.
         23    2    1    2    0    0  0.22247541919E+03  0.82342245574E+03 -0.12377086794E+04  0.15059793413E+04  0.92364216906E+02 0.  0.
         13    1    3    3    0    0  0.79310827612E+02  0.46264101662E+03 -0.70019033597E+03  0.84296703626E+03  0.00000000000E+00 0. -1.
        -13    1    3    3    0    0  0.14316459158E+03  0.36078143911E+03 -0.53751834345E+03  0.66301230504E+03  0.00000000000E+00 0.  1.
         22    1    1    2    0    0 -0.22247541919E+03 -0.82342245574E+03  0.17664976506E+04  0.19616405895E+04  0.00000000000E+00 0. -1.
<mgrwt>
<rscale>  0 0.34270644E+04</rscale>
<asrwt>0</asrwt>
<pdfrwt beam="1">  1        1 0.30741607E+00 0.34270644E+04</pdfrwt>
<pdfrwt beam="2">  1       -1 0.22606392E+00 0.34270644E+04</pdfrwt>
<totfact> 0.24593063E-01</totfact>
</mgrwt>
</event>
<event>
 6    1  0.2459173E-005  0.1612749E+04  0.7818608E-02  0.8812754E-01
          1   -1    0    0  501    0  0.00000000000E+00  0.00000000000E+00  0.68794079799E+03  0.68794079799E+03  0.00000000000E+00 0.  1.
         -1   -1    0    0    0  501 -0.00000000000E+00 -0.00000000000E+00 -0.94519718417E+03  0.94519718417E+03  0.00000000000E+00 0. -1.
         23    2    1    2    0    0 -0.39395252303E+03  0.42186390221E+01  0.58031364484E+03  0.70753550583E+03  0.92877221668E+02 0.  0.
         11    1    3    3    0    0 -0.25179266568E+03  0.58865577160E+00  0.28856694408E+03  0.38297620581E+03  0.00000000000E+00 0.  1.
        -11    1    3    3    0    0 -0.14215985735E+03  0.36299832505E+01  0.29174670076E+03  0.32455930001E+03  0.00000000000E+00 0. -1.
         22    1    1    2    0    0  0.39395252303E+03 -0.42186390221E+01 -0.83757003103E+03  0.92560247633E+03  0.00000000000E+00 0. -1.
<mgrwt>
<rscale>  0 0.16127488E+04</rscale>
<asrwt>0</asrwt>
<pdfrwt beam="1">  1        1 0.10583705E+00 0.16127488E+04</pdfrwt>
<pdfrwt beam="2">  1       -1 0.14541495E+00 0.16127488E+04</pdfrwt>
<totfact> 0.10168099E+01</totfact>
</mgrwt>
</event>
<event>
 6    1  0.2325157E-005  0.2345918E+04  0.7818608E-02  0.8460033E-01
         -2   -1    0    0    0  501 -0.00000000000E+00  0.00000000000E+00  0.88216602122E+03  0.88216602122E+03  0.00000000000E+00 0. -1.
          2   -1    0    0  501    0  0.00000000000E+00 -0.00000000000E+00 -0.15596070363E+04  0.15596070363E+04  0.00000000000E+00 0.  1.
         23    2    1    2    0    0 -0.97395189436E+03  0.63670080912E+03 -0.19706896831E+03  0.11829134481E+04  0.80484996226E+02 0.  0.
         13    1    3    3    0    0 -0.54122019083E+03  0.36414902759E+03 -0.70859345530E+02  0.65615916979E+03  0.00000000000E+00 0. -1.
        -13    1    3    3    0    0 -0.43273170353E+03  0.27255178154E+03 -0.12620962278E+03  0.52675427833E+03  0.00000000000E+00 0.  1.
         22    1    1    2    0    0  0.97395189436E+03 -0.63670080912E+03 -0.48037204677E+03  0.12588596094E+04  0.00000000000E+00 0.  1.
<mgrwt>
<rscale>  0 0.23459176E+04</rscale>
<asrwt>0</asrwt>
<pdfrwt beam="1">  1        2 0.23993954E+00 0.23459176E+04</pdfrwt>
<pdfrwt beam="2">  1       -2 0.13571785E+00 0.23459176E+04</pdfrwt>
<totfact> 0.41308574E+00</totfact>
</mgrwt>
</event>
<event>
 6    1  0.2325157E-005  0.2242751E+04  0.7818608E-02  0.8500842E-01
         -2   -1    0    0    0  501 -0.00000000000E+00  0.00000000000E+00  0.48848274722E+03  0.48848274722E+03  0.00000000000E+00 0. -1.
          2   -1    0    0  501    0  0.00000000000E+00 -0.00000000000E+00 -0.25742639526E+04  0.25742639526E+04  0.00000000000E+00 0.  1.
         23    2    1    2    0    0 -0.45631985781E+03  0.55450497130E+03  0.12805463517E+03  0.73535057869E+03  0.92945726963E+02 0.  0.
         11    1    3    3    0    0 -0.18838098587E+03  0.30085088998E+03  0.71251938489E+02  0.36204349542E+03  0.00000000000E+00 0. -1.
        -11    1    3    3    0    0 -0.26793887194E+03  0.25365408132E+03  0.56802696679E+02  0.37330708327E+03  0.00000000000E+00 0.  1.
         22    1    1    2    0    0  0.45631985781E+03 -0.55450497130E+03 -0.22138358406E+04  0.23273961212E+04  0.00000000000E+00 0.  1.
<mgrwt>
<rscale>  0 0.22427515E+04</rscale>
<asrwt>0</asrwt>
<pdfrwt beam="1">  1        2 0.39604061E+00 0.22427515E+04</pdfrwt>
<pdfrwt beam="2">  1       -2 0.75151192E-01 0.22427515E+04</pdfrwt>
<totfact> 0.45629501E+00</totfact>
</mgrwt>
</event>
<event>
 6    1  0.2325157E-005  0.7049867E+03  0.7818608E-02  0.9708742E-01
         -2   -1    0    0    0  501 -0.00000000000E+00  0.00000000000E+00  0.53616992910E+02  0.53616992910E+02  0.00000000000E+00 0. -1.
          2   -1    0    0  501    0  0.00000000000E+00 -0.00000000000E+00 -0.23173912645E+04  0.23173912645E+04  0.00000000000E+00 0.  1.
         23    2    1    2    0    0  0.28612422819E+03 -0.93512687016E+02 -0.56952091555E+03  0.65022177122E+03  0.88445361277E+02 0.  0.
         13    1    3    3    0    0  0.19508276372E+03 -0.28914648824E+02 -0.41627518764E+03  0.46062823781E+03  0.00000000000E+00 0.  1.
        -13    1    3    3    0    0  0.91041464475E+02 -0.64598038192E+02 -0.15324572791E+03  0.18959353342E+03  0.00000000000E+00 0. -1.
         22    1    1    2    0    0 -0.28612422819E+03  0.93512687016E+02 -0.16942533560E+04  0.17207864862E+04  0.00000000000E+00 0.  1.
<mgrwt>
<rscale>  0 0.70498667E+03</rscale>
<asrwt>0</asrwt>
<pdfrwt beam="1">  1        2 0.35652170E+00 0.70498667E+03</pdfrwt>
<pdfrwt beam="2">  1       -2 0.82487689E-02 0.70498667E+03</pdfrwt>
<totfact> 0.43019540E+02</totfact>
</mgrwt>
</event>
<event>
 6    1  0.2325157E-005  0.1925894E+04  0.7818608E-02  0.8642073E-01
         -2   -1    0    0    0  501 -0.00000000000E+00  0.00000000000E+00  0.63034955133E+03  0.63034955133E+03  0.00000000000E+00 0. -1.
          2   -1    0    0  501    0  0.00000000000E+00 -0.00000000000E+00 -0.14710367699E+04  0.14710367699E+04  0.00000000000E+00 0.  1.
         23    2    1    2    0    0  0.68410676970E+03  0.55514703459E+03 -0.83960176896E+03  0.12203690226E+04  0.90438479241E+02 0.  0.
         13    1    3    3    0    0  0.44897270719E+03  0.33972115442E+03 -0.48123808465E+03  0.74065987382E+03  0.00000000000E+00 0.  1.
        -13    1    3    3    0    0  0.23513406251E+03  0.21542588017E+03 -0.35836368431E+03  0.47970914879E+03  0.00000000000E+00 0. -1.
         22    1    1    2    0    0 -0.68410676970E+03 -0.55514703459E+03 -0.10854496544E+01  0.88101729867E+03  0.00000000000E+00 0. -1.
<mgrwt>
<rscale>  0 0.19258945E+04</rscale>
<asrwt>0</asrwt>
<pdfrwt beam="1">  1        2 0.22631335E+00 0.19258945E+04</pdfrwt>
<pdfrwt beam="2">  1       -2 0.96976854E-01 0.19258945E+04</pdfrwt>
<totfact> 0.10942547E+01</totfact>
</mgrwt>
</event>
<event>
 6    1  0.2325157E-005  0.1514533E+04  0.7818608E-02  0.8874846E-01
          2   -1    0    0  501    0  0.00000000000E+00  0.00000000000E+00  0.19509664479E+04  0.19509664479E+04  0.00000000000E+00 0. -1.
         -2   -1    0    0    0  501 -0.00000000000E+00 -0.00000000000E+00 -0.29393253074E+03  0.29393253074E+03  0.00000000000E+00 0.  1.
         23    2    1    2    0    0 -0.17248057047E+03 -0.64031289350E+03  0.29146951739E+03  0.72683564705E+03  0.59878455882E+02 0.  0.
         13    1    3    3    0    0 -0.10253730701E+03 -0.31280863298E+03  0.11808993485E+03  0.34972613987E+03  0.00000000000E+00 0.  1.
        -13    1    3    3    0    0 -0.69943263464E+02 -0.32750426053E+03  0.17337958253E+03  0.37710950718E+03  0.00000000000E+00 0. -1.
         22    1    1    2    0    0  0.17248057047E+03  0.64031289350E+03  0.13655643997E+04  0.15180633316E+04  0.00000000000E+00 0.  1.
<mgrwt>
<rscale>  0 0.15145329E+04</rscale>
<asrwt>0</asrwt>
<pdfrwt beam="1">  1        2 0.30014868E+00 0.15145329E+04</pdfrwt>
<pdfrwt beam="2">  1       -2 0.45220391E-01 0.15145329E+04</pdfrwt>
<totfact> 0.31849773E+01</totfact>
</mgrwt>
</event>
<event>
 6    1  0.2325157E-005  0.2173957E+04  0.7818608E-02  0.8529347E-01
          2   -1    0    0  501    0  0.00000000000E+00  0.00000000000E+00  0.34850353771E+04  0.34850353771E+04  0.00000000000E+00 0.  1.
         -2   -1    0    0    0  501 -0.00000000000E+00 -0.00000000000E+00 -0.33902738227E+03  0.33902738227E+03  0.00000000000E+00 0. -1.
         23    2    1    2    0    0  0.41377546937E+03 -0.56319579166E+03  0.11585161762E+03  0.71436063390E+03  0.92140540316E+02 0.  0.
         11    1    3    3    0    0  0.18178697645E+03 -0.21261891783E+03  0.87144893337E+02  0.29299751101E+03  0.00000000000E+00 0.  1.
        -11    1    3    3    0    0  0.23198849292E+03 -0.35057687383E+03  0.28706724285E+02  0.42136312289E+03  0.00000000000E+00 0. -1.
         22    1    1    2    0    0 -0.41377546937E+03  0.56319579166E+03  0.30301563772E+04  0.31097021254E+04  0.00000000000E+00 0.  1.
<mgrwt>
<rscale>  0 0.21739571E+04</rscale>
<asrwt>0</asrwt>
<pdfrwt beam="1">  1        2 0.53615926E+00 0.21739571E+04</pdfrwt>
<pdfrwt beam="2">  1       -2 0.52158061E-01 0.21739571E+04</pdfrwt>
<totfact> 0.26568601E+00</totfact>
</mgrwt>
</event>
<event>
 6    1  0.2325157E-005  0.9862936E+03  0.7818608E-02  0.9323707E-01
         -2   -1    0    0    0  501 -0.00000000000E+00  0.00000000000E+00  0.33999407457E+03  0.33999407457E+03  0.00000000000E+00 0. -1.
          2   -1    0    0  501    0  0.00000000000E+00 -0.00000000000E+00 -0.71528829721E+03  0.71528829721E+03  0.00000000000E+00 0.  1.
         23    2    1    2    0    0  0.40873663707E+02 -0.46989395307E+03 -0.32715419456E+03  0.58116377288E+03  0.90832154907E+02 0.  0.
         11    1    3    3    0    0 -0.18584090432E+02 -0.29401883262E+03 -0.20569251854E+03  0.35930746518E+03  0.00000000000E+00 0. -1.
        -11    1    3    3    0    0  0.59457754139E+02 -0.17587512046E+03 -0.12146167602E+03  0.22185630769E+03  0.00000000000E+00 0.  1.
         22    1    1    2    0    0 -0.40873663707E+02  0.46989395307E+03 -0.48140028079E+02  0.47411859890E+03  0.00000000000E+00 0. -1.
<mgrwt>
<rscale>  0 0.98629363E+03</rscale>
<asrwt>0</asrwt>
<pdfrwt beam="1">  1        2 0.11004435E+00 0.98629363E+03</pdfrwt>
<pdfrwt beam="2">  1       -2 0.52306781E-01 0.98629363E+03</pdfrwt>
<totfact> 0.13741381E+02</totfact>
</mgrwt>
</event>
<event>
 6    1  0.2325157E-005  0.1893609E+04  0.7818608E-02  0.8658044E-01
          2   -1    0    0  501    0  0.00000000000E+00  0.00000000000E+00  0.14095151016E+04  0.14095151016E+04  0.00000000000E+00 0.  1.
         -2   -1    0    0    0  501 -0.00000000000E+00 -0.00000000000E+00 -0.63599108582E+03  0.63599108582E+03  0.00000000000E+00 0. -1.
         23    2    1    2    0    0  0.85396422562E+03 -0.40321705981E+03  0.40900510109E+03  0.10332251320E+04  0.91815602077E+02 0.  0.
         11    1    3    3    0    0  0.69598758052E+03 -0.36327028951E+03  0.35437163109E+03  0.86136128796E+03  0.00000000000E+00 0. -1.
        -11    1    3    3    0    0  0.15797664510E+03 -0.39946770304E+02  0.54633469998E+02  0.17186384407E+03  0.00000000000E+00 0.  1.
         22    1    1    2    0    0 -0.85396422562E+03  0.40321705981E+03  0.36451891470E+03  0.10122810554E+04  0.00000000000E+00 0.  1.
<mgrwt>
<rscale>  0 0.18936093E+04</rscale>
<asrwt>0</asrwt>
<pdfrwt beam="1">  1        2 0.21684848E+00 0.18936093E+04</pdfrwt>
<pdfrwt beam="2">  1       -2 0.97844783E-01 0.18936093E+04</pdfrwt>
<totfact> 0.11646387E+01</totfact>
</mgrwt>
</event>
<event>
 6    1  0.2325157E-005  0.1962509E+04  0.7818608E-02  0.8624352E-01
          2   -1    0    0  501    0  0.00000000000E+00  0.00000000000E+00  0.20815515877E+04  0.20815515877E+04  0.00000000000E+00 0.  1.
         -2   -1    0    0    0  501 -0.00000000000E+00 -0.00000000000E+00 -0.46256880877E+03  0.46256880877E+03  0.00000000000E+00 0. -1.
         23    2    1    2    0    0 -0.96308907749E+03 -0.30412428258E+02  0.58606600186E+03  0.11315402907E+04  0.91894417296E+02 0.  0.
         11    1    3    3    0    0 -0.77871952961E+03 -0.89061699301E+01  0.51020599659E+03  0.93101749963E+03  0.00000000000E+00 0. -1.
        -11    1    3    3    0    0 -0.18436954787E+03 -0.21506258328E+02  0.75860005269E+02  0.20052279105E+03  0.00000000000E+00 0.  1.
         22    1    1    2    0    0  0.96308907749E+03  0.30412428258E+02  0.10329167771E+04  0.14125801058E+04  0.00000000000E+00 0.  1.
<mgrwt>
<rscale>  0 0.19625095E+04</rscale>
<asrwt>0</asrwt>
<pdfrwt beam="1">  1        2 0.32023870E+00 0.19625095E+04</pdfrwt>
<pdfrwt beam="2">  1       -2 0.71164433E-01 0.19625095E+04</pdfrwt>
<totfact> 0.10052861E+01</totfact>
</mgrwt>
</event>
<event>
 6    1  0.2325157E-005  0.4296859E+04  0.7818608E-02  0.7947199E-01
         -2   -1    0    0    0  501 -0.00000000000E+00  0.00000000000E+00  0.13128488183E+04  0.13128488183E+04  0.00000000000E+00 0. -1.
          2   -1    0    0  501    0  0.00000000000E+00 -0.00000000000E+00 -0.35158267007E+04  0.35158267007E+04  0.00000000000E+00 0.  1.
         23    2    1    2    0    0  0.14001813919E+04  0.12695772523E+04 -0.22475981407E+04  0.29380869076E+04  0.91230175171E+02 0.  0.
         13    1    3    3    0    0  0.81228809862E+03  0.75046689735E+03 -0.12466692407E+04  0.16664923387E+04  0.00000000000E+00 0.  1.
        -13    1    3    3    0    0  0.58789329332E+03  0.51911035498E+03 -0.10009289000E+04  0.12715945690E+04  0.00000000000E+00 0. -1.
         22    1    1    2    0    0 -0.14001813919E+04 -0.12695772523E+04  0.44620258337E+02  0.18905886114E+04  0.00000000000E+00 0. -1.
<mgrwt>
<rscale>  0 0.42968588E+04</rscale>
<asrwt>0</asrwt>
<pdfrwt beam="1">  1        2 0.54089640E+00 0.42968588E+04</pdfrwt>
<pdfrwt beam="2">  1       -2 0.20197675E+00 0.42968588E+04</pdfrwt>
<totfact> 0.78639105E-02</totfact>
</mgrwt>
</event>
<event>
 6    1  0.2325157E-005  0.1441347E+04  0.7818608E-02  0.8924422E-01
          2   -1    0    0  501    0  0.00000000000E+00  0.00000000000E+00  0.20771316953E+04  0.20771316953E+04  0.00000000000E+00 0.  1.
         -2   -1    0    0    0  501 -0.00000000000E+00 -0.00000000000E+00 -0.25004192256E+03  0.25004192256E+03  0.00000000000E+00 0. -1.
         23    2    1    2    0    0  0.29583547444E+03  0.62416573152E+03  0.60232938307E+03  0.92106569154E+03  0.91977356312E+02 0.  0.
         11    1    3    3    0    0  0.21869821189E+03  0.46503126116E+03  0.49872696318E+03  0.71610862691E+03  0.00000000000E+00 0. -1.
        -11    1    3    3    0    0  0.77137262552E+02  0.15913447037E+03  0.10360241989E+03  0.20495706463E+03  0.00000000000E+00 0.  1.
         22    1    1    2    0    0 -0.29583547444E+03 -0.62416573152E+03  0.12247603896E+04  0.14061079263E+04  0.00000000000E+00 0.  1.
<mgrwt>
<rscale>  0 0.14413466E+04</rscale>
<asrwt>0</asrwt>
<pdfrwt beam="1">  1        2 0.31955871E+00 0.14413466E+04</pdfrwt>
<pdfrwt beam="2">  1       -2 0.38467989E-01 0.14413466E+04</pdfrwt>
<totfact> 0.37512756E+01</totfact>
</mgrwt>
</event>
<event>
 6    1  0.2325157E-005  0.1182812E+04  0.7818608E-02  0.9128036E-01
         -2   -1    0    0    0  501 -0.00000000000E+00  0.00000000000E+00  0.99406474121E+03  0.99406474121E+03  0.00000000000E+00 0. -1.
          2   -1    0    0  501    0  0.00000000000E+00 -0.00000000000E+00 -0.35184909425E+03  0.35184909425E+03  0.00000000000E+00 0.  1.
         23    2    1    2    0    0  0.19915994098E+03 -0.25941143842E+03  0.87841024879E+03  0.94249486416E+03  0.98656106244E+02 0.  0.
         11    1    3    3    0    0  0.60118260890E+02 -0.13130173940E+03  0.28184361247E+03  0.31668623897E+03  0.00000000000E+00 0. -1.
        -11    1    3    3    0    0  0.13904168009E+03 -0.12810969903E+03  0.59656663632E+03  0.62580862519E+03  0.00000000000E+00 0.  1.
         22    1    1    2    0    0 -0.19915994098E+03  0.25941143842E+03 -0.23619460184E+03  0.40341897131E+03  0.00000000000E+00 0.  1.
<mgrwt>
<rscale>  0 0.11828115E+04</rscale>
<asrwt>0</asrwt>
<pdfrwt beam="1">  1        2 0.54130630E-01 0.11828115E+04</pdfrwt>
<pdfrwt beam="2">  1       -2 0.15293304E+00 0.11828115E+04</pdfrwt>
<totfact> 0.25794581E+01</totfact>
</mgrwt>
</event>
<event>
 6    1  0.4757618E-005  0.3027353E+04  0.7818608E-02  0.8235963E-01
          2   -1    0    0  501    0  0.00000000000E+00  0.00000000000E+00  0.11514747461E+04  0.11514747461E+04  0.00000000000E+00 0. -1.
         -2   -1    0    0    0  501 -0.00000000000E+00 -0.00000000000E+00 -0.19898101882E+04  0.19898101882E+04  0.00000000000E+00 0.  1.
         23    2    1    2    0    0 -0.87535858414E+03 -0.15912749867E+03  0.84942123598E+03  0.12333811589E+04  0.90213276907E+02 0.  0.
         11    1    3    3    0    0 -0.32572934105E+03 -0.56585791267E+02  0.25669882339E+03  0.41856402297E+03  0.00000000000E+00 0. -1.
        -11    1    3    3    0    0 -0.54962924309E+03 -0.10254170740E+03  0.59272241259E+03  0.81481713593E+03  0.00000000000E+00 0.  1.
         22    1    1    2    0    0  0.87535858414E+03  0.15912749867E+03 -0.16877566781E+04  0.19079037754E+04  0.00000000000E+00 0.  1.
<mgrwt>
<rscale>  0 0.30273528E+04</rscale>
<asrwt>0</asrwt>
<pdfrwt beam="1">  1        2 0.17714996E+00 0.30273528E+04</pdfrwt>
<pdfrwt beam="2">  1       -2 0.30612464E+00 0.30273528E+04</pdfrwt>
<totfact> 0.50438935E-01</totfact>
</mgrwt>
</event>
<event>
 6    1  0.2325157E-005  0.2005715E+04  0.7818608E-02  0.8603953E-01
         -2   -1    0    0    0  501 -0.00000000000E+00  0.00000000000E+00  0.37805833029E+03  0.37805833029E+03  0.00000000000E+00 0. -1.
          2   -1    0    0  501    0  0.00000000000E+00 -0.00000000000E+00 -0.26602336917E+04  0.26602336917E+04  0.00000000000E+00 0.  1.
         23    2    1    2    0    0 -0.79084775314E+03 -0.46033687007E+03 -0.53061814444E+03  0.10621081017E+04  0.95748638838E+02 0.  0.
         11    1    3    3    0    0 -0.45784709540E+03 -0.30740752669E+03 -0.35410237303E+03  0.65537152884E+03  0.00000000000E+00 0.  1.
        -11    1    3    3    0    0 -0.33300065774E+03 -0.15292934338E+03 -0.17651577142E+03  0.40673657284E+03  0.00000000000E+00 0. -1.
         22    1    1    2    0    0  0.79084775314E+03  0.46033687007E+03 -0.17515572169E+04  0.19761839203E+04  0.00000000000E+00 0.  1.
<mgrwt>
<rscale>  0 0.20057153E+04</rscale>
<asrwt>0</asrwt>
<pdfrwt beam="1">  1        2 0.40926673E+00 0.20057153E+04</pdfrwt>
<pdfrwt beam="2">  1       -2 0.58162819E-01 0.20057153E+04</pdfrwt>
<totfact> 0.72086167E+00</totfact>
</mgrwt>
</event>
<event>
 6    1  0.2325157E-005  0.1306875E+04  0.7818608E-02  0.9024131E-01
         -2   -1    0    0    0  501 -0.00000000000E+00  0.00000000000E+00  0.18896667014E+03  0.18896667014E+03  0.00000000000E+00 0. -1.
          2   -1    0    0  501    0  0.00000000000E+00 -0.00000000000E+00 -0.22595556065E+04  0.22595556065E+04  0.00000000000E+00 0.  1.
         23    2    1    2    0    0  0.24207513168E+02  0.57114065718E+03 -0.45896298432E+03  0.73851471429E+03  0.89270982241E+02 0.  0.
         11    1    3    3    0    0  0.48129122347E+02  0.36660602571E+03 -0.25871101454E+03  0.45127350858E+03  0.00000000000E+00 0.  1.
        -11    1    3    3    0    0 -0.23921609179E+02  0.20453463148E+03 -0.20025196977E+03  0.28724120571E+03  0.00000000000E+00 0. -1.
         22    1    1    2    0    0 -0.24207513168E+02 -0.57114065718E+03 -0.16116259521E+04  0.17100075624E+04  0.00000000000E+00 0.  1.
<mgrwt>
<rscale>  0 0.13068752E+04</rscale>
<asrwt>0</asrwt>
<pdfrwt beam="1">  1        2 0.34762398E+00 0.13068752E+04</pdfrwt>
<pdfrwt beam="2">  1       -2 0.29071792E-01 0.13068752E+04</pdfrwt>
<totfact> 0.51039094E+01</totfact>
</mgrwt>
</event>
<event>
 6    1  0.2325157E-005  0.1256808E+04  0.7818608E-02  0.9064536E-01
          2   -1    0    0  501    0  0.00000000000E+00  0.00000000000E+00  0.35008188540E+04  0.35008188540E+04  0.00000000000E+00 0.  1.
         -2   -1    0    0    0  501 -0.00000000000E+00 -0.00000000000E+00 -0.11279984325E+03  0.11279984325E+03  0.00000000000E+00 0. -1.
         23    2    1    2    0    0  0.39697361831E+03  0.39243987059E+03  0.25115253663E+04  0.25744660548E+04  0.92296780971E+02 0.  0.
         13    1    3    3    0    0  0.97195744135E+02  0.12561999970E+03  0.88663450905E+03  0.90074866064E+03  0.00000000000E+00 0. -1.
        -13    1    3    3    0    0  0.29977787417E+03  0.26681987089E+03  0.16248908573E+04  0.16737173941E+04  0.00000000000E+00 0.  1.
         22    1    1    2    0    0 -0.39697361831E+03 -0.39243987059E+03  0.87649364438E+03  0.10391526424E+04  0.00000000000E+00 0. -1.
<mgrwt>
<rscale>  0 0.12568084E+04</rscale>
<asrwt>0</asrwt>
<pdfrwt beam="1">  1        2 0.53858743E+00 0.12568084E+04</pdfrwt>
<pdfrwt beam="2">  1       -2 0.17353825E-01 0.12568084E+04</pdfrwt>
<totfact> 0.22349033E+01</totfact>
</mgrwt>
</event>
<event>
 6    1  0.2325157E-005  0.2835104E+04  0.7818608E-02  0.8292452E-01
          2   -1    0    0  501    0  0.00000000000E+00  0.00000000000E+00  0.10545328473E+04  0.10545328473E+04  0.00000000000E+00 0.  1.
         -2   -1    0    0    0  501 -0.00000000000E+00 -0.00000000000E+00 -0.19055393719E+04  0.19055393719E+04  0.00000000000E+00 0. -1.
         23    2    1    2    0    0  0.24863561193E+03  0.92376535294E+03 -0.15160533443E+04  0.17949759282E+04  0.91426172521E+02 0.  0.
         11    1    3    3    0    0  0.21365469719E+03  0.64298572323E+03 -0.10954128494E+04  0.12880249534E+04  0.00000000000E+00 0. -1.
        -11    1    3    3    0    0  0.34980914745E+02  0.28077962971E+03 -0.42064049494E+03  0.50695097479E+03  0.00000000000E+00 0.  1.
         22    1    1    2    0    0 -0.24863561193E+03 -0.92376535294E+03  0.66504681977E+03  0.11650962910E+04  0.00000000000E+00 0.  1.
<mgrwt>
<rscale>  0 0.28351041E+04</rscale>
<asrwt>0</asrwt>
<pdfrwt beam="1">  1        2 0.16223582E+00 0.28351041E+04</pdfrwt>
<pdfrwt beam="2">  1       -2 0.29315990E+00 0.28351041E+04</pdfrwt>
<totfact> 0.70616284E-01</totfact>
</mgrwt>
</event>
<event>
 6    1  0.2325157E-005  0.3860534E+04  0.7818608E-02  0.8033288E-01
          2   -1    0    0  501    0  0.00000000000E+00  0.00000000000E+00  0.17912754655E+04  0.17912754655E+04  0.00000000000E+00 0.  1.
         -2   -1    0    0    0  501 -0.00000000000E+00 -0.00000000000E+00 -0.20800431777E+04  0.20800431777E+04  0.00000000000E+00 0. -1.
         23    2    1    2    0    0  0.67005108003E+03  0.72483546665E+03  0.15176578099E+04  0.18127929400E+04  0.92618097634E+02 0.  0.
         11    1    3    3    0    0  0.17774137595E+03  0.25048800800E+03  0.50096282112E+03  0.58762231665E+03  0.00000000000E+00 0. -1.
        -11    1    3    3    0    0  0.49230970408E+03  0.47434745865E+03  0.10166949888E+04  0.12251706234E+04  0.00000000000E+00 0.  1.
         22    1    1    2    0    0 -0.67005108003E+03 -0.72483546665E+03 -0.18064255221E+04  0.20585257031E+04  0.00000000000E+00 0. -1.
<mgrwt>
<rscale>  0 0.38605338E+04</rscale>
<asrwt>0</asrwt>
<pdfrwt beam="1">  1        2 0.27558084E+00 0.38605338E+04</pdfrwt>
<pdfrwt beam="2">  1       -2 0.32000664E+00 0.38605338E+04</pdfrwt>
<totfact> 0.16665854E-01</totfact>
</mgrwt>
</event>
<event>
 6    1  0.2325157E-005  0.5013052E+04  0.7818608E-02  0.7826497E-01
         -2   -1    0    0    0  501 -0.00000000000E+00  0.00000000000E+00  0.26480423852E+04  0.26480423852E+04  0.00000000000E+00 0. -1.
          2   -1    0    0  501    0  0.00000000000E+00 -0.00000000000E+00 -0.23725727437E+04  0.23725727437E+04  0.00000000000E+00 0.  1.
         23    2    1    2    0    0  0.20700136714E+04  0.13721830222E+04 -0.19440290834E+03  0.24930425663E+04  0.98111671892E+02 0.  0.
         13    1    3    3    0    0  0.86876521456E+03  0.62328629587E+03 -0.11201660218E+03  0.10750751247E+04  0.00000000000E+00 0. -1.
        -13    1    3    3    0    0  0.12012484568E+04  0.74889672638E+03 -0.82386306158E+02  0.14179674415E+04  0.00000000000E+00 0.  1.
         22    1    1    2    0    0 -0.20700136714E+04 -0.13721830222E+04  0.46987254976E+03  0.25275725626E+04  0.00000000000E+00 0.  1.
<mgrwt>
<rscale>  0 0.50130522E+04</rscale>
<asrwt>0</asrwt>
<pdfrwt beam="1">  1        2 0.36501119E+00 0.50130522E+04</pdfrwt>
<pdfrwt beam="2">  1       -2 0.40739114E+00 0.50130522E+04</pdfrwt>
<totfact> 0.19919567E-02</totfact>
</mgrwt>
</event>
<event>
 6    1  0.2325157E-005  0.8788002E+03  0.7818608E-02  0.9452477E-01
         -2   -1    0    0    0  501 -0.00000000000E+00  0.00000000000E+00  0.32884855666E+03  0.32884855666E+03  0.00000000000E+00 0. -1.
          2   -1    0    0  501    0  0.00000000000E+00 -0.00000000000E+00 -0.58711654694E+03  0.58711654694E+03  0.00000000000E+00 0.  1.
         23    2    1    2    0    0 -0.33257579265E+03 -0.10637222056E+03  0.14005881691E+03  0.38626145769E+03  0.87519908221E+02 0.  0.
         11    1    3    3    0    0 -0.11237055898E+03 -0.76926423291E+02  0.71202186377E+02  0.15367032398E+03  0.00000000000E+00 0. -1.
        -11    1    3    3    0    0 -0.22020523367E+03 -0.29445797273E+02  0.68856630535E+02  0.23259113371E+03  0.00000000000E+00 0.  1.
         22    1    1    2    0    0  0.33257579265E+03  0.10637222056E+03 -0.39832680719E+03  0.52970364592E+03  0.00000000000E+00 0.  1.
<mgrwt>
<rscale>  0 0.87880016E+03</rscale>
<asrwt>0</asrwt>
<pdfrwt beam="1">  1        2 0.90325622E-01 0.87880016E+03</pdfrwt>
<pdfrwt beam="2">  1       -2 0.50592086E-01 0.87880016E+03</pdfrwt>
<totfact> 0.18889524E+02</totfact>
</mgrwt>
</event>
<event>
 6    1  0.2325157E-005  0.1039937E+04  0.7818608E-02  0.9265796E-01
          2   -1    0    0  501    0  0.00000000000E+00  0.00000000000E+00  0.81793563304E+03  0.81793563304E+03  0.00000000000E+00 0.  1.
         -2   -1    0    0    0  501 -0.00000000000E+00 -0.00000000000E+00 -0.33054816468E+03  0.33054816468E+03  0.00000000000E+00 0. -1.
         23    2    1    2    0    0  0.29312616922E+03 -0.16734622260E+03 -0.18495446778E+03  0.39617309834E+03  0.93900263008E+02 0.  0.
         13    1    3    3    0    0  0.36630495342E+02 -0.44263476179E+02 -0.11532569882E+01  0.57466325045E+02  0.00000000000E+00 0.  1.
        -13    1    3    3    0    0  0.25649567388E+03 -0.12308274643E+03 -0.18380121079E+03  0.33870677329E+03  0.00000000000E+00 0. -1.
         22    1    1    2    0    0 -0.29312616922E+03  0.16734622260E+03  0.67234193614E+03  0.75231069938E+03  0.00000000000E+00 0.  1.
<mgrwt>
<rscale>  0 0.10399368E+04</rscale>
<asrwt>0</asrwt>
<pdfrwt beam="1">  1        2 0.12583625E+00 0.10399368E+04</pdfrwt>
<pdfrwt beam="2">  1       -2 0.50853564E-01 0.10399368E+04</pdfrwt>
<totfact> 0.12177551E+02</totfact>
</mgrwt>
</event>
<event>
 6    1  0.2325157E-005  0.3602702E+04  0.7818608E-02  0.8089873E-01
         -2   -1    0    0    0  501 -0.00000000000E+00  0.00000000000E+00  0.93092940910E+03  0.93092940910E+03  0.00000000000E+00 0. -1.
          2   -1    0    0  501    0  0.00000000000E+00 -0.00000000000E+00 -0.34856190304E+04  0.34856190304E+04  0.00000000000E+00 0.  1.
         23    2    1    2    0    0  0.97127031197E+03  0.70109136978E+03 -0.29255734902E+04  0.31625747668E+04  0.89463856722E+02 0.  0.
         11    1    3    3    0    0  0.53022105461E+03  0.37650613366E+03 -0.14709074741E+04  0.16082475036E+04  0.00000000000E+00 0. -1.
        -11    1    3    3    0    0  0.44104925736E+03  0.32458523612E+03 -0.14546660160E+04  0.15543272632E+04  0.00000000000E+00 0.  1.
         22    1    1    2    0    0 -0.97127031197E+03 -0.70109136978E+03  0.37088386884E+03  0.12539736727E+04  0.00000000000E+00 0. -1.
<mgrwt>
<rscale>  0 0.36027019E+04</rscale>
<asrwt>0</asrwt>
<pdfrwt beam="1">  1        2 0.53624908E+00 0.36027019E+04</pdfrwt>
<pdfrwt beam="2">  1       -2 0.14321991E+00 0.36027019E+04</pdfrwt>
<totfact> 0.22909594E-01</totfact>
</mgrwt>
</event>
<event>
 6    1  0.2325157E-005  0.2736144E+04  0.7818608E-02  0.8323372E-01
         -2   -1    0    0    0  501 -0.00000000000E+00  0.00000000000E+00  0.58898959821E+03  0.58898959821E+03  0.00000000000E+00 0. -1.
          2   -1    0    0  501    0  0.00000000000E+00 -0.00000000000E+00 -0.31776815091E+04  0.31776815091E+04  0.00000000000E+00 0.  1.
         23    2    1    2    0    0 -0.40706545738E+03 -0.12034552237E+04 -0.19881818469E+04  0.23614597000E+04  0.98071894411E+02 0.  0.
         11    1    3    3    0    0 -0.25245589186E+03 -0.60542910342E+03 -0.98861704152E+03  0.11864409094E+04  0.00000000000E+00 0. -1.
        -11    1    3    3    0    0 -0.15460956552E+03 -0.59802612033E+03 -0.99956480536E+03  0.11750187907E+04  0.00000000000E+00 0.  1.
         22    1    1    2    0    0  0.40706545738E+03  0.12034552237E+04 -0.60051006401E+03  0.14052114073E+04  0.00000000000E+00 0. -1.
<mgrwt>
<rscale>  0 0.27361443E+04</rscale>
<asrwt>0</asrwt>
<pdfrwt beam="1">  1        2 0.48887407E+00 0.27361443E+04</pdfrwt>
<pdfrwt beam="2">  1       -2 0.90613786E-01 0.27361443E+04</pdfrwt>
<totfact> 0.12199120E+00</totfact>
</mgrwt>
</event>
<event>
 6    1  0.2325157E-005  0.3893948E+04  0.7818608E-02  0.8026289E-01
         -2   -1    0    0    0  501 -0.00000000000E+00  0.00000000000E+00  0.12115511324E+04  0.12115511324E+04  0.00000000000E+00 0. -1.
          2   -1    0    0  501    0  0.00000000000E+00 -0.00000000000E+00 -0.31288051420E+04  0.31288051420E+04  0.00000000000E+00 0.  1.
         23    2    1    2    0    0 -0.21687696320E+03 -0.15476107520E+04 -0.22516198858E+04  0.27422526495E+04  0.89570231876E+02 0.  0.
         11    1    3    3    0    0 -0.18717872452E+03 -0.11945039072E+04 -0.17958633262E+04  0.21649481624E+04  0.00000000000E+00 0.  1.
        -11    1    3    3    0    0 -0.29698238674E+02 -0.35310684479E+03 -0.45575655961E+03  0.57730448712E+03  0.00000000000E+00 0. -1.
         22    1    1    2    0    0  0.21687696320E+03  0.15476107520E+04  0.33436587622E+03  0.15981036250E+04  0.00000000000E+00 0. -1.
<mgrwt>
<rscale>  0 0.38939478E+04</rscale>
<asrwt>0</asrwt>
<pdfrwt beam="1">  1        2 0.48135464E+00 0.38939478E+04</pdfrwt>
<pdfrwt beam="2">  1       -2 0.18639248E+00 0.38939478E+04</pdfrwt>
<totfact> 0.18795281E-01</totfact>
</mgrwt>
</event>
<event>
 6    1  0.2325157E-005  0.6875469E+03  0.7818608E-02  0.9738769E-01
         -2   -1    0    0    0  501 -0.00000000000E+00  0.00000000000E+00  0.88981954936E+02  0.88981954936E+02  0.00000000000E+00 0. -1.
          2   -1    0    0  501    0  0.00000000000E+00 -0.00000000000E+00 -0.13281365035E+04  0.13281365035E+04  0.00000000000E+00 0.  1.
         23    2    1    2    0    0 -0.33641278561E+03 -0.78769142101E+01 -0.68887019536E+03  0.77210025909E+03  0.91438809780E+02 0.  0.
         11    1    3    3    0    0 -0.47934911314E+02 -0.16788951839E+02 -0.18056435057E+03  0.18757161119E+03  0.00000000000E+00 0.  1.
        -11    1    3    3    0    0 -0.28847787429E+03  0.89120376291E+01 -0.50830584479E+03  0.58452864790E+03  0.00000000000E+00 0. -1.
         22    1    1    2    0    0  0.33641278561E+03  0.78769142101E+01 -0.55028435315E+03  0.64501819930E+03  0.00000000000E+00 0.  1.
<mgrwt>
<rscale>  0 0.68754689E+03</rscale>
<asrwt>0</asrwt>
<pdfrwt beam="1">  1        2 0.20432870E+00 0.68754689E+03</pdfrwt>
<pdfrwt beam="2">  1       -2 0.13689531E-01 0.68754689E+03</pdfrwt>
<totfact> 0.65846372E+02</totfact>
</mgrwt>
</event>
<event>
 6    1  0.2325157E-005  0.2552403E+04  0.7818608E-02  0.8384551E-01
         -2   -1    0    0    0  501 -0.00000000000E+00  0.00000000000E+00  0.11626596691E+04  0.11626596691E+04  0.00000000000E+00 0. -1.
          2   -1    0    0  501    0  0.00000000000E+00 -0.00000000000E+00 -0.14008315823E+04  0.14008315823E+04  0.00000000000E+00 0.  1.
         23    2    1    2    0    0 -0.95699067366E+03  0.79099634352E+03 -0.40909152994E+03  0.13102076122E+04  0.88214184015E+02 0.  0.
         13    1    3    3    0    0 -0.44124947414E+03  0.37988274867E+03 -0.14719833740E+03  0.60056585959E+03  0.00000000000E+00 0. -1.
        -13    1    3    3    0    0 -0.51574119951E+03  0.41111359484E+03 -0.26189319254E+03  0.70964175261E+03  0.00000000000E+00 0.  1.
         22    1    1    2    0    0  0.95699067366E+03 -0.79099634352E+03  0.17091961668E+03  0.12532836392E+04  0.00000000000E+00 0.  1.
<mgrwt>
<rscale>  0 0.25524031E+04</rscale>
<asrwt>0</asrwt>
<pdfrwt beam="1">  1        2 0.21551255E+00 0.25524031E+04</pdfrwt>
<pdfrwt beam="2">  1       -2 0.17887072E+00 0.25524031E+04</pdfrwt>
<totfact> 0.23701744E+00</totfact>
</mgrwt>
</event>
<event>
 6    1  0.2798748E-005  0.4180943E+04  0.7818608E-02  0.7969007E-01
          2   -1    0    0  501    0  0.00000000000E+00  0.00000000000E+00  0.22053858429E+04  0.22053858429E+04  0.00000000000E+00 0.  1.
         -2   -1    0    0    0  501 -0.00000000000E+00 -0.00000000000E+00 -0.19815446865E+04  0.19815446865E+04  0.00000000000E+00 0. -1.
         23    2    1    2    0    0  0.52346638334E+02  0.65689663642E+03  0.20979627516E+04  0.22003291313E+04  0.75810405146E+02 0.  0.
         11    1    3    3    0    0  0.34679999192E+02  0.38585732217E+03  0.11077973262E+04  0.11735857409E+04  0.00000000000E+00 0. -1.
        -11    1    3    3    0    0  0.17666639142E+02  0.27103931425E+03  0.99016542543E+03  0.10267433904E+04  0.00000000000E+00 0.  1.
         22    1    1    2    0    0 -0.52346638334E+02 -0.65689663642E+03 -0.18741215951E+04  0.19866013981E+04  0.00000000000E+00 0. -1.
<mgrwt>
<rscale>  0 0.41809428E+04</rscale>
<asrwt>0</asrwt>
<pdfrwt beam="1">  1        2 0.33929013E+00 0.41809428E+04</pdfrwt>
<pdfrwt beam="2">  1       -2 0.30485303E+00 0.41809428E+04</pdfrwt>
<totfact> 0.11832612E-01</totfact>
</mgrwt>
</event>
<event>
 6    1  0.2325157E-005  0.1242706E+04  0.7818608E-02  0.9076276E-01
          2   -1    0    0  501    0  0.00000000000E+00  0.00000000000E+00  0.84796520620E+03  0.84796520620E+03  0.00000000000E+00 0.  1.
         -2   -1    0    0    0  501 -0.00000000000E+00 -0.00000000000E+00 -0.45530130251E+03  0.45530130251E+03  0.00000000000E+00 0. -1.
         23    2    1    2    0    0  0.49659096423E+03 -0.36441389647E+03  0.24188855328E+03  0.66912671340E+03  0.99097995380E+02 0.  0.
         13    1    3    3    0    0  0.34243840178E+03 -0.30060440224E+03  0.15711977307E+03  0.48198930357E+03  0.00000000000E+00 0. -1.
        -13    1    3    3    0    0  0.15415256245E+03 -0.63809494227E+02  0.84768780201E+02  0.18713740984E+03  0.00000000000E+00 0.  1.
         22    1    1    2    0    0 -0.49659096423E+03  0.36441389647E+03  0.15077535041E+03  0.63413979531E+03  0.00000000000E+00 0. -1.
<mgrwt>
<rscale>  0 0.12427062E+04</rscale>
<asrwt>0</asrwt>
<pdfrwt beam="1">  1        2 0.13045619E+00 0.12427062E+04</pdfrwt>
<pdfrwt beam="2">  1       -2 0.70046354E-01 0.12427062E+04</pdfrwt>
<totfact> 0.58183513E+01</totfact>
</mgrwt>
</event>
<event>
 6    1  0.2325157E-005  0.1193934E+04  0.7818608E-02  0.9118182E-01
         -2   -1    0    0    0  501 -0.00000000000E+00  0.00000000000E+00  0.14148762349E+03  0.14148762349E+03  0.00000000000E+00 0. -1.
          2   -1    0    0  501    0  0.00000000000E+00 -0.00000000000E+00 -0.25187350363E+04  0.25187350363E+04  0.00000000000E+00 0.  1.
         23    2    1    2    0    0 -0.43036840830E+03  0.73352888585E+02 -0.20912819592E+04  0.21383281745E+04  0.91594410210E+02 0.  0.
         11    1    3    3    0    0 -0.14485939589E+03 -0.18544222932E+02 -0.66331240251E+03  0.67919914318E+03  0.00000000000E+00 0.  1.
        -11    1    3    3    0    0 -0.28550901241E+03  0.91897111517E+02 -0.14279695566E+04  0.14591290313E+04  0.00000000000E+00 0. -1.
         22    1    1    2    0    0  0.43036840830E+03 -0.73352888585E+02 -0.28596545368E+03  0.52189448533E+03  0.00000000000E+00 0. -1.
<mgrwt>
<rscale>  0 0.11939344E+04</rscale>
<asrwt>0</asrwt>
<pdfrwt beam="1">  1        2 0.38749769E+00 0.11939344E+04</pdfrwt>
<pdfrwt beam="2">  1       -2 0.21767327E-01 0.11939344E+04</pdfrwt>
<totfact> 0.62085854E+01</totfact>
</mgrwt>
</event>
<event>
 6    1  0.2623804E-005  0.4422228E+04  0.7818608E-02  0.7924396E-01
          2   -1    0    0  501    0  0.00000000000E+00  0.00000000000E+00  0.32177200100E+04  0.32177200100E+04  0.00000000000E+00 0.  1.
         -2   -1    0    0    0  501 -0.00000000000E+00 -0.00000000000E+00 -0.15194064086E+04  0.15194064086E+04  0.00000000000E+00 0. -1.
         23    2    1    2    0    0 -0.94023364022E+03  0.19933535256E+04  0.67186951984E+03  0.23058541120E+04  0.89760558555E+02 0.  0.
         13    1    3    3    0    0 -0.39491608591E+03  0.83325404897E+03  0.23493453844E+03  0.95155938458E+03  0.00000000000E+00 0.  1.
        -13    1    3    3    0    0 -0.54531755432E+03  0.11600994766E+04  0.43693498140E+03  0.13542947274E+04  0.00000000000E+00 0. -1.
         22    1    1    2    0    0  0.94023364022E+03 -0.19933535256E+04  0.10264440816E+04  0.24312723066E+04  0.00000000000E+00 0.  1.
<mgrwt>
<rscale>  0 0.44222277E+04</rscale>
<asrwt>0</asrwt>
<pdfrwt beam="1">  1        2 0.49503384E+00 0.44222277E+04</pdfrwt>
<pdfrwt beam="2">  1       -2 0.23375483E+00 0.44222277E+04</pdfrwt>
<totfact> 0.77900169E-02</totfact>
</mgrwt>
</event>
<event>
 6    1  0.2325157E-005  0.2540080E+04  0.7818608E-02  0.8388844E-01
          2   -1    0    0  501    0  0.00000000000E+00  0.00000000000E+00  0.21451817079E+04  0.21451817079E+04  0.00000000000E+00 0.  1.
         -2   -1    0    0    0  501 -0.00000000000E+00 -0.00000000000E+00 -0.75191853829E+03  0.75191853829E+03  0.00000000000E+00 0. -1.
         23    2    1    2    0    0  0.90950775848E+03 -0.89373220198E+01  0.17058410270E+04  0.19353366809E+04  0.91379541485E+02 0.  0.
         13    1    3    3    0    0  0.10653498130E+03 -0.15894831733E+02  0.15237144447E+03  0.18659958469E+03  0.00000000000E+00 0. -1.
        -13    1    3    3    0    0  0.80297277718E+03  0.69575097135E+01  0.15534695826E+04  0.17487370962E+04  0.00000000000E+00 0.  1.
         22    1    1    2    0    0 -0.90950775848E+03  0.89373220198E+01 -0.31257785743E+03  0.96176356524E+03  0.00000000000E+00 0. -1.
<mgrwt>
<rscale>  0 0.25400802E+04</rscale>
<asrwt>0</asrwt>
<pdfrwt beam="1">  1        2 0.33002795E+00 0.25400802E+04</pdfrwt>
<pdfrwt beam="2">  1       -2 0.11567978E+00 0.25400802E+04</pdfrwt>
<totfact> 0.28638161E+00</totfact>
</mgrwt>
</event>
<event>
 6    1  0.2325157E-005  0.1899590E+04  0.7818608E-02  0.8655061E-01
         -2   -1    0    0    0  501 -0.00000000000E+00  0.00000000000E+00  0.93903228826E+03  0.93903228826E+03  0.00000000000E+00 0. -1.
          2   -1    0    0  501    0  0.00000000000E+00 -0.00000000000E+00 -0.96068066764E+03  0.96068066764E+03  0.00000000000E+00 0.  1.
         23    2    1    2    0    0 -0.14162647458E+02 -0.89268094819E+03 -0.32842913090E+03  0.95568208492E+03  0.91557072671E+02 0.  0.
         11    1    3    3    0    0 -0.76738586974E+00 -0.41828369459E+03 -0.20221419716E+03  0.46459920316E+03  0.00000000000E+00 0.  1.
        -11    1    3    3    0    0 -0.13395261588E+02 -0.47439725360E+03 -0.12621493375E+03  0.49108288176E+03  0.00000000000E+00 0. -1.
         22    1    1    2    0    0  0.14162647458E+02  0.89268094819E+03  0.30678075152E+03  0.94403087098E+03  0.00000000000E+00 0. -1.
<mgrwt>
<rscale>  0 0.18995896E+04</rscale>
<asrwt>0</asrwt>
<pdfrwt beam="1">  1        2 0.14779703E+00 0.18995896E+04</pdfrwt>
<pdfrwt beam="2">  1       -2 0.14446651E+00 0.18995896E+04</pdfrwt>
<totfact> 0.82773826E+00</totfact>
</mgrwt>
</event>
<event>
 6    1  0.2325157E-005  0.9292331E+03  0.7818608E-02  0.9389759E-01
          2   -1    0    0  501    0  0.00000000000E+00  0.00000000000E+00  0.89046701299E+03  0.89046701299E+03  0.00000000000E+00 0.  1.
         -2   -1    0    0    0  501 -0.00000000000E+00 -0.00000000000E+00 -0.24242173796E+03  0.24242173796E+03  0.00000000000E+00 0. -1.
         23    2    1    2    0    0 -0.22807787099E+03  0.37435957181E+03  0.49722983807E+03  0.66930499340E+03  0.92558403665E+02 0.  0.
         13    1    3    3    0    0 -0.40741990523E+02  0.11050762066E+03  0.85046433058E+02  0.14527470458E+03  0.00000000000E+00 0.  1.
        -13    1    3    3    0    0 -0.18733588047E+03  0.26385195115E+03  0.41218340501E+03  0.52403028882E+03  0.00000000000E+00 0. -1.
         22    1    1    2    0    0  0.22807787099E+03 -0.37435957181E+03  0.15081543696E+03  0.46358375755E+03  0.00000000000E+00 0.  1.
<mgrwt>
<rscale>  0 0.92923315E+03</rscale>
<asrwt>0</asrwt>
<pdfrwt beam="1">  1        2 0.13699492E+00 0.92923315E+03</pdfrwt>
<pdfrwt beam="2">  1       -2 0.37295652E-01 0.92923315E+03</pdfrwt>
<totfact> 0.20187638E+02</totfact>
</mgrwt>
</event>
<event>
 6    1  0.2431742E-005  0.3236439E+04  0.7818608E-02  0.8179259E-01
         -2   -1    0    0    0  501 -0.00000000000E+00  0.00000000000E+00  0.10172692293E+04  0.10172692293E+04  0.00000000000E+00 0. -1.
          2   -1    0    0  501    0  0.00000000000E+00 -0.00000000000E+00 -0.25741808613E+04  0.25741808613E+04  0.00000000000E+00 0.  1.
         23    2    1    2    0    0  0.50288841121E+03  0.33858363455E+01  0.92644182964E+03  0.10576875458E+04  0.86604057989E+02 0.  0.
         13    1    3    3    0    0  0.28268639515E+03  0.15936112368E+02  0.60347674808E+03  0.66659563691E+03  0.00000000000E+00 0.  1.
        -13    1    3    3    0    0  0.22020201606E+03 -0.12550276023E+02  0.32296508156E+03  0.39109190891E+03  0.00000000000E+00 0. -1.
         22    1    1    2    0    0 -0.50288841121E+03 -0.33858363455E+01 -0.24833534617E+04  0.25337625448E+04  0.00000000000E+00 0.  1.
<mgrwt>
<rscale>  0 0.32364394E+04</rscale>
<asrwt>0</asrwt>
<pdfrwt beam="1">  1        2 0.39602782E+00 0.32364394E+04</pdfrwt>
<pdfrwt beam="2">  1       -2 0.15650296E+00 0.32364394E+04</pdfrwt>
<totfact> 0.70743216E-01</totfact>
</mgrwt>
</event>
<event>
 6    1  0.2325157E-005  0.1035398E+04  0.7818608E-02  0.9270551E-01
         -2   -1    0    0    0  501 -0.00000000000E+00  0.00000000000E+00  0.47117596970E+03  0.47117596970E+03  0.00000000000E+00 0. -1.
          2   -1    0    0  501    0  0.00000000000E+00 -0.00000000000E+00 -0.56881573321E+03  0.56881573321E+03  0.00000000000E+00 0.  1.
         23    2    1    2    0    0  0.32440473374E+03  0.33296658190E+03  0.17068008796E+03  0.50324155748E+03  0.89527631568E+02 0.  0.
         13    1    3    3    0    0  0.57953959342E+02  0.11648399533E+03  0.47242072782E+02  0.13841602513E+03  0.00000000000E+00 0. -1.
        -13    1    3    3    0    0  0.26645077440E+03  0.21648258657E+03  0.12343801517E+03  0.36482553235E+03  0.00000000000E+00 0.  1.
         22    1    1    2    0    0 -0.32440473374E+03 -0.33296658190E+03 -0.26831985147E+03  0.53675014543E+03  0.00000000000E+00 0.  1.
<mgrwt>
<rscale>  0 0.10353981E+04</rscale>
<asrwt>0</asrwt>
<pdfrwt beam="1">  1        2 0.87510113E-01 0.10353981E+04</pdfrwt>
<pdfrwt beam="2">  1       -2 0.72488611E-01 0.10353981E+04</pdfrwt>
<totfact> 0.90808320E+01</totfact>
</mgrwt>
</event>
<event>
 6    1  0.2325157E-005  0.8284109E+03  0.7818608E-02  0.9519780E-01
          2   -1    0    0  501    0  0.00000000000E+00  0.00000000000E+00  0.14176920634E+04  0.14176920634E+04  0.00000000000E+00 0.  1.
         -2   -1    0    0    0  501 -0.00000000000E+00 -0.00000000000E+00 -0.12101794163E+03  0.12101794163E+03  0.00000000000E+00 0. -1.
         23    2    1    2    0    0 -0.33295194222E+02  0.38081855249E+03  0.92712694093E+03  0.10070179337E+04  0.91593745717E+02 0.  0.
         13    1    3    3    0    0  0.14033057475E+02  0.28484467350E+03  0.70343018272E+03  0.75904376467E+03  0.00000000000E+00 0.  1.
        -13    1    3    3    0    0 -0.47328251697E+02  0.95973878986E+02  0.22369675821E+03  0.24797416900E+03  0.00000000000E+00 0. -1.
         22    1    1    2    0    0  0.33295194222E+02 -0.38081855249E+03  0.36954718083E+03  0.53169207135E+03  0.00000000000E+00 0. -1.
<mgrwt>
<rscale>  0 0.82841095E+03</rscale>
<asrwt>0</asrwt>
<pdfrwt beam="1">  1        2 0.21810646E+00 0.82841095E+03</pdfrwt>
<pdfrwt beam="2">  1       -2 0.18618146E-01 0.82841095E+03</pdfrwt>
<totfact> 0.34431207E+02</totfact>
</mgrwt>
</event>
<event>
 6    1  0.2325157E-005  0.1814585E+04  0.7818608E-02  0.8698582E-01
         -2   -1    0    0    0  501 -0.00000000000E+00  0.00000000000E+00  0.25128771630E+03  0.25128771630E+03  0.00000000000E+00 0. -1.
          2   -1    0    0  501    0  0.00000000000E+00 -0.00000000000E+00 -0.32758449313E+04  0.32758449313E+04  0.00000000000E+00 0.  1.
         23    2    1    2    0    0  0.71439556212E+02 -0.60254546502E+03 -0.21108618375E+03  0.64897631215E+03  0.91914248961E+02 0.  0.
         13    1    3    3    0    0  0.79636151571E+02 -0.56313744664E+03 -0.17537177584E+03  0.59516464966E+03  0.00000000000E+00 0.  1.
        -13    1    3    3    0    0 -0.81965953592E+01 -0.39408018377E+02 -0.35714407908E+02  0.53811662492E+02  0.00000000000E+00 0. -1.
         22    1    1    2    0    0 -0.71439556212E+02  0.60254546502E+03 -0.28134710313E+04  0.28781563355E+04  0.00000000000E+00 0.  1.
<mgrwt>
<rscale>  0 0.18145849E+04</rscale>
<asrwt>0</asrwt>
<pdfrwt beam="1">  1        2 0.50397616E+00 0.18145849E+04</pdfrwt>
<pdfrwt beam="2">  1       -2 0.38659647E-01 0.18145849E+04</pdfrwt>
<totfact> 0.69309541E+00</totfact>
</mgrwt>
</event>
<event>
 6    1  0.2325157E-005  0.1625699E+04  0.7818608E-02  0.8804914E-01
         -2   -1    0    0    0  501 -0.00000000000E+00  0.00000000000E+00  0.14353433963E+04  0.14353433963E+04  0.00000000000E+00 0. -1.
          2   -1    0    0  501    0  0.00000000000E+00 -0.00000000000E+00 -0.46032493985E+03  0.46032493985E+03  0.00000000000E+00 0.  1.
         23    2    1    2    0    0  0.60127513253E+03  0.17058747869E+03  0.10904019439E+04  0.12601014852E+04  0.90815641309E+02 0.  0.
         13    1    3    3    0    0  0.23995269997E+03  0.30742241937E+02  0.36872564476E+03  0.44099998272E+03  0.00000000000E+00 0. -1.
        -13    1    3    3    0    0  0.36132243256E+03  0.13984523675E+03  0.72167629916E+03  0.81910150243E+03  0.00000000000E+00 0.  1.
         22    1    1    2    0    0 -0.60127513253E+03 -0.17058747869E+03 -0.11538348748E+03  0.63556685099E+03  0.00000000000E+00 0.  1.
<mgrwt>
<rscale>  0 0.16256991E+04</rscale>
<asrwt>0</asrwt>
<pdfrwt beam="1">  1        2 0.70819222E-01 0.16256991E+04</pdfrwt>
<pdfrwt beam="2">  1       -2 0.22082206E+00 0.16256991E+04</pdfrwt>
<totfact> 0.63288309E+00</totfact>
</mgrwt>
</event>
<event>
 6    1  0.2325157E-005  0.3661278E+04  0.7818608E-02  0.8076598E-01
         -2   -1    0    0    0  501 -0.00000000000E+00  0.00000000000E+00  0.14826497444E+04  0.14826497444E+04  0.00000000000E+00 0. -1.
          2   -1    0    0  501    0  0.00000000000E+00 -0.00000000000E+00 -0.22603044305E+04  0.22603044305E+04  0.00000000000E+00 0.  1.
         23    2    1    2    0    0 -0.12472474076E+04 -0.12950259743E+04 -0.73331232695E+03  0.19444312770E+04  0.10172340967E+03 0.  0.
         11    1    3    3    0    0 -0.83017984667E+03 -0.85054649035E+03 -0.43307342176E+03  0.12649824104E+04  0.00000000000E+00 0. -1.
        -11    1    3    3    0    0 -0.41706756089E+03 -0.44447948399E+03 -0.30023890520E+03  0.67944886653E+03  0.00000000000E+00 0.  1.
         22    1    1    2    0    0  0.12472474076E+04  0.12950259743E+04 -0.44342359150E+02  0.17985228980E+04  0.00000000000E+00 0. -1.
<mgrwt>
<rscale>  0 0.36612783E+04</rscale>
<asrwt>0</asrwt>
<pdfrwt beam="1">  1        2 0.34773914E+00 0.36612783E+04</pdfrwt>
<pdfrwt beam="2">  1       -2 0.22809996E+00 0.36612783E+04</pdfrwt>
<totfact> 0.34027286E-01</totfact>
</mgrwt>
</event>
<event>
 6    1  0.2325157E-005  0.1810948E+04  0.7818608E-02  0.8700499E-01
         -2   -1    0    0    0  501 -0.00000000000E+00  0.00000000000E+00  0.42621135092E+03  0.42621135092E+03  0.00000000000E+00 0. -1.
          2   -1    0    0  501    0  0.00000000000E+00 -0.00000000000E+00 -0.19236535007E+04  0.19236535007E+04  0.00000000000E+00 0.  1.
         23    2    1    2    0    0 -0.77244085517E+03  0.34311773084E+03 -0.33751620287E+03  0.91465655514E+03  0.91020737767E+02 0.  0.
         13    1    3    3    0    0 -0.64985685574E+03  0.32190779770E+03 -0.27704417785E+03  0.77633242857E+03  0.00000000000E+00 0.  1.
        -13    1    3    3    0    0 -0.12258399943E+03  0.21209933142E+02 -0.60472025023E+02  0.13832412657E+03  0.00000000000E+00 0. -1.
         22    1    1    2    0    0  0.77244085517E+03 -0.34311773084E+03 -0.11599259469E+04  0.14352082965E+04  0.00000000000E+00 0.  1.
<mgrwt>
<rscale>  0 0.18109478E+04</rscale>
<asrwt>0</asrwt>
<pdfrwt beam="1">  1        2 0.29594669E+00 0.18109478E+04</pdfrwt>
<pdfrwt beam="2">  1       -2 0.65570978E-01 0.18109478E+04</pdfrwt>
<totfact> 0.14886672E+01</totfact>
</mgrwt>
</event>
<event>
 6    1  0.2325157E-005  0.3647191E+04  0.7818608E-02  0.8079767E-01
          2   -1    0    0  501    0  0.00000000000E+00  0.00000000000E+00  0.27015299352E+04  0.27015299352E+04  0.00000000000E+00 0.  1.
         -2   -1    0    0    0  501 -0.00000000000E+00 -0.00000000000E+00 -0.12309691943E+04  0.12309691943E+04  0.00000000000E+00 0. -1.
         23    2    1    2    0    0 -0.24275856023E+03  0.11851052902E+04 -0.73391409810E+03  0.14179185317E+04  0.91960816599E+02 0.  0.
         11    1    3    3    0    0 -0.63615079679E+02  0.33346842219E+03 -0.25488745737E+03  0.42451817733E+03  0.00000000000E+00 0.  1.
        -11    1    3    3    0    0 -0.17914348056E+03  0.85163686799E+03 -0.47902664073E+03  0.99340035438E+03  0.00000000000E+00 0. -1.
         22    1    1    2    0    0  0.24275856023E+03 -0.11851052902E+04  0.22044748389E+04  0.25145805978E+04  0.00000000000E+00 0.  1.
<mgrwt>
<rscale>  0 0.36471908E+04</rscale>
<asrwt>0</asrwt>
<pdfrwt beam="1">  1        2 0.41561999E+00 0.36471908E+04</pdfrwt>
<pdfrwt beam="2">  1       -2 0.18937988E+00 0.36471908E+04</pdfrwt>
<totfact> 0.33660906E-01</totfact>
</mgrwt>
</event>
<event>
 6    1  0.2325157E-005  0.4127510E+04  0.7818608E-02  0.7979306E-01
         -2   -1    0    0    0  501 -0.00000000000E+00  0.00000000000E+00  0.87128268411E+03  0.87128268411E+03  0.00000000000E+00 0. -1.
          2   -1    0    0  501    0  0.00000000000E+00 -0.00000000000E+00 -0.48882930158E+04  0.48882930158E+04  0.00000000000E+00 0.  1.
         23    2    1    2    0    0  0.66737972814E+01 -0.68210341397E+03 -0.47259234984E+04  0.47757731360E+04  0.91359324388E+02 0.  0.
         13    1    3    3    0    0 -0.38774139571E+02 -0.42188692422E+03 -0.29901058711E+04  0.30199710481E+04  0.00000000000E+00 0. -1.
        -13    1    3    3    0    0  0.45447936852E+02 -0.26021648975E+03 -0.17358176273E+04  0.17558020879E+04  0.00000000000E+00 0.  1.
         22    1    1    2    0    0 -0.66737972814E+01  0.68210341397E+03  0.70891316672E+03  0.98380256397E+03  0.00000000000E+00 0. -1.
<mgrwt>
<rscale>  0 0.41275102E+04</rscale>
<asrwt>0</asrwt>
<pdfrwt beam="1">  1        2 0.75204508E+00 0.41275102E+04</pdfrwt>
<pdfrwt beam="2">  1       -2 0.13404349E+00 0.41275102E+04</pdfrwt>
<totfact> 0.14587837E-02</totfact>
</mgrwt>
</event>
<event>
 6    1  0.2325157E-005  0.3071309E+04  0.7818608E-02  0.8223656E-01
         -2   -1    0    0    0  501 -0.00000000000E+00  0.00000000000E+00  0.13611101168E+04  0.13611101168E+04  0.00000000000E+00 0. -1.
          2   -1    0    0  501    0  0.00000000000E+00 -0.00000000000E+00 -0.17325818784E+04  0.17325818784E+04  0.00000000000E+00 0.  1.
         23    2    1    2    0    0  0.12147216628E+04  0.40206092948E+03  0.66668324774E+03  0.14459761421E+04  0.95805749875E+02 0.  0.
         11    1    3    3    0    0  0.88471426495E+03  0.32615085712E+03  0.52168460072E+03  0.10776124233E+04  0.00000000000E+00 0. -1.
        -11    1    3    3    0    0  0.33000739781E+03  0.75910072368E+02  0.14499864701E+03  0.36836371881E+03  0.00000000000E+00 0.  1.
         22    1    1    2    0    0 -0.12147216628E+04 -0.40206092948E+03 -0.10381550093E+04  0.16477158530E+04  0.00000000000E+00 0.  1.
<mgrwt>
<rscale>  0 0.30713090E+04</rscale>
<asrwt>0</asrwt>
<pdfrwt beam="1">  1        2 0.26655106E+00 0.30713090E+04</pdfrwt>
<pdfrwt beam="2">  1       -2 0.20940156E+00 0.30713090E+04</pdfrwt>
<totfact> 0.92487533E-01</totfact>
</mgrwt>
</event>
<event>
 6    1  0.2325157E-005  0.2285497E+04  0.7818608E-02  0.8483662E-01
          2   -1    0    0  501    0  0.00000000000E+00  0.00000000000E+00  0.17216235287E+04  0.17216235287E+04  0.00000000000E+00 0.  1.
         -2   -1    0    0    0  501 -0.00000000000E+00 -0.00000000000E+00 -0.75851285719E+03  0.75851285719E+03  0.00000000000E+00 0. -1.
         23    2    1    2    0    0  0.46535740386E+03  0.62701720561E+03  0.13849696075E+04  0.15926269203E+04  0.92798729522E+02 0.  0.
         13    1    3    3    0    0  0.14115099376E+03  0.18775242752E+03  0.33420158966E+03  0.40849146823E+03  0.00000000000E+00 0.  1.
        -13    1    3    3    0    0  0.32420641010E+03  0.43926477808E+03  0.10507680178E+04  0.11841354521E+04  0.00000000000E+00 0. -1.
         22    1    1    2    0    0 -0.46535740386E+03 -0.62701720561E+03 -0.42185893603E+03  0.88750946551E+03  0.00000000000E+00 0. -1.
<mgrwt>
<rscale>  0 0.22854965E+04</rscale>
<asrwt>0</asrwt>
<pdfrwt beam="1">  1        2 0.26486516E+00 0.22854965E+04</pdfrwt>
<pdfrwt beam="2">  1       -2 0.11669429E+00 0.22854965E+04</pdfrwt>
<totfact> 0.49263491E+00</totfact>
</mgrwt>
</event>
<event>
 6    1  0.2325157E-005  0.2641958E+04  0.7818608E-02  0.8354087E-01
         -1   -1    0    0    0  501 -0.00000000000E+00  0.00000000000E+00  0.14639125654E+04  0.14639125654E+04  0.00000000000E+00 0. -1.
          1   -1    0    0  501    0  0.00000000000E+00 -0.00000000000E+00 -0.11920009764E+04  0.11920009764E+04  0.00000000000E+00 0.  1.
         23    2    1    2    0    0 -0.70128485661E+03 -0.10871781235E+04 -0.12414330609E+03  0.13029108802E+04  0.91697759515E+02 0.  0.
         11    1    3    3    0    0 -0.70078961575E+03 -0.10798599719E+04 -0.11693065422E+03  0.12926238518E+04  0.00000000000E+00 0. -1.
        -11    1    3    3    0    0 -0.49524086643E+00 -0.73181515617E+01 -0.72126518772E+01  0.10287028380E+02  0.00000000000E+00 0.  1.
         22    1    1    2    0    0  0.70128485661E+03  0.10871781235E+04  0.39605489516E+03  0.13530026616E+04  0.00000000000E+00 0.  1.
<mgrwt>
<rscale>  0 0.26419578E+04</rscale>
<asrwt>0</asrwt>
<pdfrwt beam="1">  1        1 0.18338477E+00 0.26419578E+04</pdfrwt>
<pdfrwt beam="2">  1       -1 0.22521732E+00 0.26419578E+04</pdfrwt>
<totfact> 0.96528667E-01</totfact>
</mgrwt>
</event>
<event>
 6    1  0.2325157E-005  0.1233157E+04  0.7818608E-02  0.9084320E-01
         -2   -1    0    0    0  501 -0.00000000000E+00  0.00000000000E+00  0.46192344382E+03  0.46192344382E+03  0.00000000000E+00 0. -1.
          2   -1    0    0  501    0  0.00000000000E+00 -0.00000000000E+00 -0.82301264936E+03  0.82301264936E+03  0.00000000000E+00 0.  1.
         23    2    1    2    0    0 -0.27378691846E+02 -0.18530402553E+03  0.42552023835E+03  0.47633137401E+03  0.10361915835E+03 0.  0.
         13    1    3    3    0    0  0.19936552207E+02 -0.76809021566E+02  0.87193299897E+02  0.11789725805E+03  0.00000000000E+00 0. -1.
        -13    1    3    3    0    0 -0.47315244053E+02 -0.10849500396E+03  0.33832693845E+03  0.35843411596E+03  0.00000000000E+00 0.  1.
         22    1    1    2    0    0  0.27378691846E+02  0.18530402553E+03 -0.78660944389E+03  0.80860471917E+03  0.00000000000E+00 0.  1.
<mgrwt>
<rscale>  0 0.12331567E+04</rscale>
<asrwt>0</asrwt>
<pdfrwt beam="1">  1        2 0.12661733E+00 0.12331567E+04</pdfrwt>
<pdfrwt beam="2">  1       -2 0.71065146E-01 0.12331567E+04</pdfrwt>
<totfact> 0.58744047E+01</totfact>
</mgrwt>
</event>
<event>
 6    1  0.2325157E-005  0.3116847E+04  0.7818608E-02  0.8211130E-01
         -2   -1    0    0    0  501 -0.00000000000E+00  0.00000000000E+00  0.98683661540E+03  0.98683661540E+03  0.00000000000E+00 0. -1.
          2   -1    0    0  501    0  0.00000000000E+00 -0.00000000000E+00 -0.24610800943E+04  0.24610800943E+04  0.00000000000E+00 0.  1.
         23    2    1    2    0    0  0.67316798786E+03 -0.14879973544E+03  0.80634913236E+03  0.10653972114E+04  0.97855984611E+02 0.  0.
         11    1    3    3    0    0  0.16388928739E+03  0.59005658468E+01  0.18330564727E+03  0.24595828003E+03  0.00000000000E+00 0.  1.
        -11    1    3    3    0    0  0.50927870047E+03 -0.15470030129E+03  0.62304348509E+03  0.81943893140E+03  0.00000000000E+00 0. -1.
         22    1    1    2    0    0 -0.67316798786E+03  0.14879973544E+03 -0.22805926113E+04  0.23825194983E+04  0.00000000000E+00 0.  1.
<mgrwt>
<rscale>  0 0.31168471E+04</rscale>
<asrwt>0</asrwt>
<pdfrwt beam="1">  1        2 0.37862770E+00 0.31168471E+04</pdfrwt>
<pdfrwt beam="2">  1       -2 0.15182102E+00 0.31168471E+04</pdfrwt>
<totfact> 0.90181706E-01</totfact>
</mgrwt>
</event>
<event>
 6    1  0.2325157E-005  0.1726959E+04  0.7818608E-02  0.8746136E-01
         -2   -1    0    0    0  501 -0.00000000000E+00  0.00000000000E+00  0.16066120727E+04  0.16066120727E+04  0.00000000000E+00 0. -1.
          2   -1    0    0  501    0  0.00000000000E+00 -0.00000000000E+00 -0.46408000538E+03  0.46408000538E+03  0.00000000000E+00 0.  1.
         23    2    1    2    0    0  0.30901404670E+03  0.67490202268E+03  0.49848403485E+02  0.74973030328E+03  0.92888336470E+02 0.  0.
         11    1    3    3    0    0  0.24250029685E+03  0.46657055997E+03  0.18381684726E+01  0.52583063839E+03  0.00000000000E+00 0. -1.
        -11    1    3    3    0    0  0.66513749855E+02  0.20833146271E+03  0.48010235013E+02  0.22389966489E+03  0.00000000000E+00 0.  1.
         22    1    1    2    0    0 -0.30901404670E+03 -0.67490202268E+03  0.10926836638E+04  0.13209617748E+04  0.00000000000E+00 0. -1.
<mgrwt>
<rscale>  0 0.17269586E+04</rscale>
<asrwt>0</asrwt>
<pdfrwt beam="1">  1        2 0.71396925E-01 0.17269586E+04</pdfrwt>
<pdfrwt beam="2">  1       -2 0.24717109E+00 0.17269586E+04</pdfrwt>
<totfact> 0.42637469E+00</totfact>
</mgrwt>
</event>
<event>
 6    1  0.2325157E-005  0.1952472E+04  0.7818608E-02  0.8629170E-01
         -2   -1    0    0    0  501 -0.00000000000E+00  0.00000000000E+00  0.12920574241E+04  0.12920574241E+04  0.00000000000E+00 0. -1.
          2   -1    0    0  501    0  0.00000000000E+00 -0.00000000000E+00 -0.73761175502E+03  0.73761175502E+03  0.00000000000E+00 0.  1.
         23    2    1    2    0    0 -0.34456146346E+03  0.88699926015E+03  0.49431929217E+03  0.10761989537E+04  0.91445807508E+02 0.  0.
         13    1    3    3    0    0 -0.89811140119E+02  0.15690677399E+03  0.12091742765E+03  0.21750126648E+03  0.00000000000E+00 0. -1.
        -13    1    3    3    0    0 -0.25475032334E+03  0.73009248616E+03  0.37340186452E+03  0.85869768720E+03  0.00000000000E+00 0.  1.
         22    1    1    2    0    0  0.34456146346E+03 -0.88699926015E+03  0.60126376926E+02  0.95347022544E+03  0.00000000000E+00 0.  1.
<mgrwt>
<rscale>  0 0.19524720E+04</rscale>
<asrwt>0</asrwt>
<pdfrwt beam="1">  1        2 0.11347873E+00 0.19524720E+04</pdfrwt>
<pdfrwt beam="2">  1       -2 0.19877806E+00 0.19524720E+04</pdfrwt>
<totfact> 0.48388023E+00</totfact>
</mgrwt>
</event>
<event>
 6    1  0.2325157E-005  0.1468267E+04  0.7818608E-02  0.8905834E-01
          2   -1    0    0  501    0  0.00000000000E+00  0.00000000000E+00  0.27480577950E+04  0.27480577950E+04  0.00000000000E+00 0.  1.
         -2   -1    0    0    0  501 -0.00000000000E+00 -0.00000000000E+00 -0.19612099745E+03  0.19612099745E+03  0.00000000000E+00 0. -1.
         23    2    1    2    0    0  0.45502342107E+03  0.35809994424E+03  0.38544958872E+03  0.70164702906E+03  0.91952619049E+02 0.  0.
         13    1    3    3    0    0  0.13779571014E+03  0.64604156162E+02  0.76003151544E+02  0.17011123940E+03  0.00000000000E+00 0. -1.
        -13    1    3    3    0    0  0.31722771094E+03  0.29349578808E+03  0.30944643718E+03  0.53153578966E+03  0.00000000000E+00 0.  1.
         22    1    1    2    0    0 -0.45502342107E+03 -0.35809994424E+03  0.21664872088E+04  0.22425317633E+04  0.00000000000E+00 0.  1.
<mgrwt>
<rscale>  0 0.14682668E+04</rscale>
<asrwt>0</asrwt>
<pdfrwt beam="1">  1        2 0.42277810E+00 0.14682668E+04</pdfrwt>
<pdfrwt beam="2">  1       -2 0.30172463E-01 0.14682668E+04</pdfrwt>
<totfact> 0.24546182E+01</totfact>
</mgrwt>
</event>
<event>
 6    1  0.2325157E-005  0.2191776E+04  0.7818608E-02  0.8521859E-01
          2   -1    0    0  501    0  0.00000000000E+00  0.00000000000E+00  0.27929434075E+04  0.27929434075E+04  0.00000000000E+00 0.  1.
         -2   -1    0    0    0  501 -0.00000000000E+00 -0.00000000000E+00 -0.43000173254E+03  0.43000173254E+03  0.00000000000E+00 0. -1.
         23    2    1    2    0    0  0.20493652708E+03  0.70984740629E+03 -0.16287109534E+01  0.74563300180E+03  0.10041713166E+03 0.  0.
         11    1    3    3    0    0  0.20383847845E+03  0.62587843584E+03 -0.24187113613E+02  0.65867970836E+03  0.00000000000E+00 0. -1.
        -11    1    3    3    0    0  0.10980486308E+01  0.83968970450E+02  0.22558402660E+02  0.86953293439E+02  0.00000000000E+00 0.  1.
         22    1    1    2    0    0 -0.20493652708E+03 -0.70984740629E+03  0.23645703859E+04  0.24773121382E+04  0.00000000000E+00 0.  1.
<mgrwt>
<rscale>  0 0.21917760E+04</rscale>
<asrwt>0</asrwt>
<pdfrwt beam="1">  1        2 0.42968359E+00 0.21917760E+04</pdfrwt>
<pdfrwt beam="2">  1       -2 0.66154115E-01 0.21917760E+04</pdfrwt>
<totfact> 0.44924744E+00</totfact>
</mgrwt>
</event>
<event>
 6    1  0.2325157E-005  0.1178087E+04  0.7818608E-02  0.9132256E-01
         -2   -1    0    0    0  501 -0.00000000000E+00  0.00000000000E+00  0.26332544199E+03  0.26332544199E+03  0.00000000000E+00 0. -1.
          2   -1    0    0  501    0  0.00000000000E+00 -0.00000000000E+00 -0.13176564269E+04  0.13176564269E+04  0.00000000000E+00 0.  1.
         23    2    1    2    0    0  0.19136216949E+03 -0.51332185871E+03 -0.25305618216E+03  0.61033253982E+03  0.91375966708E+02 0.  0.
         11    1    3    3    0    0  0.85264777460E+02 -0.11501007459E+03 -0.68019487626E+02  0.15850567885E+03  0.00000000000E+00 0.  1.
        -11    1    3    3    0    0  0.10609739203E+03 -0.39831178412E+03 -0.18503669453E+03  0.45182686096E+03  0.00000000000E+00 0. -1.
         22    1    1    2    0    0 -0.19136216949E+03  0.51332185871E+03 -0.80127480279E+03  0.97064932912E+03  0.00000000000E+00 0.  1.
<mgrwt>
<rscale>  0 0.11780874E+04</rscale>
<asrwt>0</asrwt>
<pdfrwt beam="1">  1        2 0.20271638E+00 0.11780874E+04</pdfrwt>
<pdfrwt beam="2">  1       -2 0.40511606E-01 0.11780874E+04</pdfrwt>
<totfact> 0.91964168E+01</totfact>
</mgrwt>
</event>
<event>
 6    1  0.2325157E-005  0.1176497E+04  0.7818608E-02  0.9133681E-01
          2   -1    0    0  501    0  0.00000000000E+00  0.00000000000E+00  0.58743921354E+03  0.58743921354E+03  0.00000000000E+00 0.  1.
         -2   -1    0    0    0  501 -0.00000000000E+00 -0.00000000000E+00 -0.58905899257E+03  0.58905899257E+03  0.00000000000E+00 0. -1.
         23    2    1    2    0    0 -0.14147952761E+03  0.15205376781E+03 -0.54716833575E+03  0.59275165770E+03  0.93938996297E+02 0.  0.
         11    1    3    3    0    0 -0.47967427926E+02  0.11904569208E+03 -0.32673685776E+03  0.35104091665E+03  0.00000000000E+00 0. -1.
        -11    1    3    3    0    0 -0.93512099688E+02  0.33008075726E+02 -0.22043147799E+03  0.24171074105E+03  0.00000000000E+00 0.  1.
         22    1    1    2    0    0  0.14147952761E+03 -0.15205376781E+03  0.54554855672E+03  0.58374654841E+03  0.00000000000E+00 0.  1.
<mgrwt>
<rscale>  0 0.11764971E+04</rscale>
<asrwt>0</asrwt>
<pdfrwt beam="1">  1        2 0.90375264E-01 0.11764971E+04</pdfrwt>
<pdfrwt beam="2">  1       -2 0.90624460E-01 0.11764971E+04</pdfrwt>
<totfact> 0.52318929E+01</totfact>
</mgrwt>
</event>
<event>
 6    1  0.2325157E-005  0.3281707E+04  0.7818608E-02  0.8167566E-01
         -2   -1    0    0    0  501 -0.00000000000E+00  0.00000000000E+00  0.80801071624E+03  0.80801071624E+03  0.00000000000E+00 0. -1.
          2   -1    0    0  501    0  0.00000000000E+00 -0.00000000000E+00 -0.33321336604E+04  0.33321336604E+04  0.00000000000E+00 0.  1.
         23    2    1    2    0    0  0.16161775773E+04 -0.23595955119E+03 -0.14439893702E+04  0.21819831451E+04  0.90764933887E+02 0.  0.
         11    1    3    3    0    0  0.67328535118E+03 -0.12016182439E+03 -0.55241362696E+03  0.87915461860E+03  0.00000000000E+00 0. -1.
        -11    1    3    3    0    0  0.94289222608E+03 -0.11579772680E+03 -0.89157574326E+03  0.13028285265E+04  0.00000000000E+00 0.  1.
         22    1    1    2    0    0 -0.16161775773E+04  0.23595955119E+03 -0.10801335739E+04  0.19581612315E+04  0.00000000000E+00 0.  1.
<mgrwt>
<rscale>  0 0.32817067E+04</rscale>
<asrwt>0</asrwt>
<pdfrwt beam="1">  1        2 0.51263596E+00 0.32817067E+04</pdfrwt>
<pdfrwt beam="2">  1       -2 0.12430934E+00 0.32817067E+04</pdfrwt>
<totfact> 0.43056223E-01</totfact>
</mgrwt>
</event>
<event>
 6    1  0.2325157E-005  0.5072889E+04  0.7818608E-02  0.7817361E-01
          2   -1    0    0  501    0  0.00000000000E+00  0.00000000000E+00  0.31236114620E+04  0.31236114620E+04  0.00000000000E+00 0. -1.
         -2   -1    0    0    0  501 -0.00000000000E+00 -0.00000000000E+00 -0.20596509947E+04  0.20596509947E+04  0.00000000000E+00 0.  1.
         23    2    1    2    0    0  0.19936905097E+04  0.15149823863E+04  0.94004780546E+03  0.26762068476E+04  0.91759116185E+02 0.  0.
         13    1    3    3    0    0  0.14859019342E+04  0.10853751540E+04  0.66827780299E+03  0.19576871571E+04  0.00000000000E+00 0.  1.
        -13    1    3    3    0    0  0.50778857544E+03  0.42960723237E+03  0.27177000247E+03  0.71851969054E+03  0.00000000000E+00 0. -1.
         22    1    1    2    0    0 -0.19936905097E+04 -0.15149823863E+04  0.12391266187E+03  0.25070556091E+04  0.00000000000E+00 0. -1.
<mgrwt>
<rscale>  0 0.50728885E+04</rscale>
<asrwt>0</asrwt>
<pdfrwt beam="1">  1        2 0.48055561E+00 0.50728885E+04</pdfrwt>
<pdfrwt beam="2">  1       -2 0.31686938E+00 0.50728885E+04</pdfrwt>
<totfact> 0.26314255E-02</totfact>
</mgrwt>
</event>
<event>
 6    1  0.2325157E-005  0.2219016E+04  0.7818608E-02  0.8510554E-01
          2   -1    0    0  501    0  0.00000000000E+00  0.00000000000E+00  0.24074274728E+04  0.24074274728E+04  0.00000000000E+00 0.  1.
         -2   -1    0    0    0  501 -0.00000000000E+00 -0.00000000000E+00 -0.51133774502E+03  0.51133774502E+03  0.00000000000E+00 0. -1.
         23    2    1    2    0    0 -0.65088685685E+03  0.77001593932E+02 -0.22472558421E+03  0.69898132440E+03  0.92143137364E+02 0.  0.
         11    1    3    3    0    0 -0.59990442051E+03  0.93990492737E+02 -0.21624074452E+03  0.64457705984E+03  0.00000000000E+00 0. -1.
        -11    1    3    3    0    0 -0.50982436341E+02 -0.16988898804E+02 -0.84848396899E+01  0.54404264561E+02  0.00000000000E+00 0.  1.
         22    1    1    2    0    0  0.65088685685E+03 -0.77001593932E+02  0.21208153120E+04  0.22197838934E+04  0.00000000000E+00 0.  1.
<mgrwt>
<rscale>  0 0.22190165E+04</rscale>
<asrwt>0</asrwt>
<pdfrwt beam="1">  1        2 0.37037345E+00 0.22190165E+04</pdfrwt>
<pdfrwt beam="2">  1       -2 0.78667347E-01 0.22190165E+04</pdfrwt>
<totfact> 0.51570324E+00</totfact>
</mgrwt>
</event>
<event>
 6    1  0.2325157E-005  0.5236410E+03  0.7818608E-02  0.1007786E+00
         -2   -1    0    0    0  501 -0.00000000000E+00  0.00000000000E+00  0.11278543537E+03  0.11278543537E+03  0.00000000000E+00 0. -1.
          2   -1    0    0  501    0  0.00000000000E+00 -0.00000000000E+00 -0.60779102798E+03  0.60779102798E+03  0.00000000000E+00 0.  1.
         23    2    1    2    0    0  0.23809319614E+03  0.73533911206E+02 -0.31821526550E+03  0.41504344401E+03  0.94363653346E+02 0.  0.
         13    1    3    3    0    0  0.11879060820E+03  0.13138092112E+01 -0.19808689924E+03  0.23097912101E+03  0.00000000000E+00 0. -1.
        -13    1    3    3    0    0  0.11930258794E+03  0.72220101995E+02 -0.12012836625E+03  0.18406432300E+03  0.00000000000E+00 0.  1.
         22    1    1    2    0    0 -0.23809319614E+03 -0.73533911206E+02 -0.17679032711E+03  0.30553301934E+03  0.00000000000E+00 0. -1.
<mgrwt>
<rscale>  0 0.52364101E+03</rscale>
<asrwt>0</asrwt>
<pdfrwt beam="1">  1        2 0.93506311E-01 0.52364101E+03</pdfrwt>
<pdfrwt beam="2">  1       -2 0.17351606E-01 0.52364101E+03</pdfrwt>
<totfact> 0.13356789E+03</totfact>
</mgrwt>
</event>
<event>
 6    1  0.2325157E-005  0.3695006E+04  0.7818608E-02  0.8069069E-01
          2   -1    0    0  501    0  0.00000000000E+00  0.00000000000E+00  0.21843035129E+04  0.21843035129E+04  0.00000000000E+00 0.  1.
         -2   -1    0    0    0  501 -0.00000000000E+00 -0.00000000000E+00 -0.15626341287E+04  0.15626341287E+04  0.00000000000E+00 0. -1.
         23    2    1    2    0    0  0.16837764088E+04 -0.25960156149E+03  0.10327794220E+04  0.19943659801E+04  0.91467821785E+02 0.  0.
         11    1    3    3    0    0  0.73295239138E+03 -0.14555912715E+03  0.41534502645E+03  0.85493751732E+03  0.00000000000E+00 0. -1.
        -11    1    3    3    0    0  0.95082401742E+03 -0.11404243435E+03  0.61743439551E+03  0.11394284627E+04  0.00000000000E+00 0.  1.
         22    1    1    2    0    0 -0.16837764088E+04  0.25960156149E+03 -0.41111003775E+03  0.17525716615E+04  0.00000000000E+00 0. -1.
<mgrwt>
<rscale>  0 0.36950059E+04</rscale>
<asrwt>0</asrwt>
<pdfrwt beam="1">  1        2 0.33604670E+00 0.36950059E+04</pdfrwt>
<pdfrwt beam="2">  1       -2 0.24040525E+00 0.36950059E+04</pdfrwt>
<totfact> 0.31390294E-01</totfact>
</mgrwt>
</event>
<event>
 6    1  0.2325157E-005  0.3106589E+04  0.7818608E-02  0.8213932E-01
         -2   -1    0    0    0  501 -0.00000000000E+00  0.00000000000E+00  0.79744367188E+03  0.79744367188E+03  0.00000000000E+00 0. -1.
          2   -1    0    0  501    0  0.00000000000E+00 -0.00000000000E+00 -0.30255736130E+04  0.30255736130E+04  0.00000000000E+00 0.  1.
         23    2    1    2    0    0  0.71939575744E+03  0.61116370295E+03 -0.26310713152E+04  0.27966581477E+04  0.87802060398E+02 0.  0.
         13    1    3    3    0    0  0.70220159487E+02  0.53212952763E+02 -0.32890345334E+03  0.34049958996E+03  0.00000000000E+00 0. -1.
        -13    1    3    3    0    0  0.64917559795E+03  0.55795075019E+03 -0.23021678618E+04  0.24561585577E+04  0.00000000000E+00 0.  1.
         22    1    1    2    0    0 -0.71939575744E+03 -0.61116370295E+03  0.40294137404E+03  0.10263591372E+04  0.00000000000E+00 0. -1.
<mgrwt>
<rscale>  0 0.31065895E+04</rscale>
<asrwt>0</asrwt>
<pdfrwt beam="1">  1        2 0.46547286E+00 0.31065895E+04</pdfrwt>
<pdfrwt beam="2">  1       -2 0.12268364E+00 0.31065895E+04</pdfrwt>
<totfact> 0.71493990E-01</totfact>
</mgrwt>
</event>
<event>
 6    1  0.2325157E-005  0.3385534E+04  0.7818608E-02  0.8141466E-01
          2   -1    0    0  501    0  0.00000000000E+00  0.00000000000E+00  0.89080122301E+03  0.89080122301E+03  0.00000000000E+00 0.  1.
         -2   -1    0    0    0  501 -0.00000000000E+00 -0.00000000000E+00 -0.32167227922E+04  0.32167227922E+04  0.00000000000E+00 0. -1.
         23    2    1    2    0    0  0.78064226587E+03 -0.14447317814E+04 -0.67026151222E+03  0.17756015268E+04  0.82813162724E+02 0.  0.
         13    1    3    3    0    0  0.36384470467E+03 -0.58955899272E+03 -0.27249432797E+03  0.74445680451E+03  0.00000000000E+00 0.  1.
        -13    1    3    3    0    0  0.41679756120E+03 -0.85517278868E+03 -0.39776718425E+03  0.10311447223E+04  0.00000000000E+00 0. -1.
         22    1    1    2    0    0 -0.78064226587E+03  0.14447317814E+04 -0.16556600569E+04  0.23319224883E+04  0.00000000000E+00 0. -1.
<mgrwt>
<rscale>  0 0.33855343E+04</rscale>
<asrwt>0</asrwt>
<pdfrwt beam="1">  1        2 0.13704634E+00 0.33855343E+04</pdfrwt>
<pdfrwt beam="2">  1       -2 0.49488043E+00 0.33855343E+04</pdfrwt>
<totfact> 0.43729145E-02</totfact>
</mgrwt>
</event>
<event>
 6    1  0.2325157E-005  0.1513286E+04  0.7818608E-02  0.8875666E-01
          2   -1    0    0  501    0  0.00000000000E+00  0.00000000000E+00  0.23681667198E+04  0.23681667198E+04  0.00000000000E+00 0.  1.
         -2   -1    0    0    0  501 -0.00000000000E+00 -0.00000000000E+00 -0.24175172855E+03  0.24175172855E+03  0.00000000000E+00 0. -1.
         23    2    1    2    0    0  0.44110447546E+03 -0.45093862640E+03  0.17786350559E+04  0.18895923511E+04  0.95382325165E+02 0.  0.
         13    1    3    3    0    0  0.18023051306E+03 -0.16846126367E+03  0.56527255966E+03  0.61676194914E+03  0.00000000000E+00 0. -1.
        -13    1    3    3    0    0  0.26087396240E+03 -0.28247736273E+03  0.12133624963E+04  0.12728304019E+04  0.00000000000E+00 0.  1.
         22    1    1    2    0    0 -0.44110447546E+03  0.45093862640E+03  0.34777993535E+03  0.72032609732E+03  0.00000000000E+00 0. -1.
<mgrwt>
<rscale>  0 0.15132857E+04</rscale>
<asrwt>0</asrwt>
<pdfrwt beam="1">  1        2 0.36433333E+00 0.15132857E+04</pdfrwt>
<pdfrwt beam="2">  1       -2 0.37192575E-01 0.15132857E+04</pdfrwt>
<totfact> 0.27322552E+01</totfact>
</mgrwt>
</event>
<event>
 6    1  0.2325157E-005  0.2785132E+04  0.7818608E-02  0.8307899E-01
          2   -1    0    0  501    0  0.00000000000E+00  0.00000000000E+00  0.22340026548E+04  0.22340026548E+04  0.00000000000E+00 0.  1.
         -2   -1    0    0    0  501 -0.00000000000E+00 -0.00000000000E+00 -0.86805620309E+03  0.86805620309E+03  0.00000000000E+00 0. -1.
         23    2    1    2    0    0  0.97302900434E+03  0.10849819559E+03  0.17842262142E+04  0.20373921206E+04  0.94584182382E+02 0.  0.
         13    1    3    3    0    0  0.52945083374E+03  0.13862798423E+02  0.99090991755E+03  0.11235714607E+04  0.00000000000E+00 0. -1.
        -13    1    3    3    0    0  0.44357817060E+03  0.94635397171E+02  0.79331629669E+03  0.91382065989E+03  0.00000000000E+00 0.  1.
         22    1    1    2    0    0 -0.97302900434E+03 -0.10849819559E+03 -0.41827976256E+03  0.10646667373E+04  0.00000000000E+00 0. -1.
<mgrwt>
<rscale>  0 0.27851319E+04</rscale>
<asrwt>0</asrwt>
<pdfrwt beam="1">  1        2 0.34369271E+00 0.27851319E+04</pdfrwt>
<pdfrwt beam="2">  1       -2 0.13354711E+00 0.27851319E+04</pdfrwt>
<totfact> 0.17456704E+00</totfact>
</mgrwt>
</event>
<event>
 6    1  0.2325157E-005  0.2801776E+04  0.7818608E-02  0.8302717E-01
          2   -1    0    0  501    0  0.00000000000E+00  0.00000000000E+00  0.13527156406E+04  0.13527156406E+04  0.00000000000E+00 0.  1.
         -2   -1    0    0    0  501 -0.00000000000E+00 -0.00000000000E+00 -0.14507758742E+04  0.14507758742E+04  0.00000000000E+00 0. -1.
         23    2    1    2    0    0 -0.37630295579E+03 -0.12281608705E+04  0.50688489105E+03  0.13836529175E+04  0.87063568953E+02 0.  0.
         13    1    3    3    0    0 -0.12536868444E+03 -0.54379022449E+03  0.23862657383E+03  0.60693307459E+03  0.00000000000E+00 0.  1.
        -13    1    3    3    0    0 -0.25093427135E+03 -0.68437064602E+03  0.26825831722E+03  0.77671984295E+03  0.00000000000E+00 0. -1.
         22    1    1    2    0    0  0.37630295579E+03  0.12281608705E+04 -0.60494512473E+03  0.14198385973E+04  0.00000000000E+00 0. -1.
<mgrwt>
<rscale>  0 0.28017760E+04</rscale>
<asrwt>0</asrwt>
<pdfrwt beam="1">  1        2 0.20811010E+00 0.28017760E+04</pdfrwt>
<pdfrwt beam="2">  1       -2 0.22319629E+00 0.28017760E+04</pdfrwt>
<totfact> 0.12645681E+00</totfact>
</mgrwt>
</event>
<event>
 6    1  0.2325157E-005  0.2962621E+04  0.7818608E-02  0.8254486E-01
         -1   -1    0    0    0  501 -0.00000000000E+00  0.00000000000E+00  0.71707227571E+03  0.71707227571E+03  0.00000000000E+00 0. -1.
          1   -1    0    0  501    0  0.00000000000E+00 -0.00000000000E+00 -0.30600544983E+04  0.30600544983E+04  0.00000000000E+00 0.  1.
         23    2    1    2    0    0  0.56192561653E+03 -0.33462748067E+03  0.51978680478E+03  0.84060119887E+03  0.93252902293E+02 0.  0.
         11    1    3    3    0    0  0.35166326661E+03 -0.18441008066E+03  0.26286916129E+03  0.47620828100E+03  0.00000000000E+00 0. -1.
        -11    1    3    3    0    0  0.21026234992E+03 -0.15021740001E+03  0.25691764350E+03  0.36439291788E+03  0.00000000000E+00 0.  1.
         22    1    1    2    0    0 -0.56192561653E+03  0.33462748067E+03 -0.28627690274E+04  0.29365255752E+04  0.00000000000E+00 0.  1.
<mgrwt>
<rscale>  0 0.29626206E+04</rscale>
<asrwt>0</asrwt>
<pdfrwt beam="1">  1        1 0.47077762E+00 0.29626206E+04</pdfrwt>
<pdfrwt beam="2">  1       -1 0.11031881E+00 0.29626206E+04</pdfrwt>
<totfact> 0.34925823E-01</totfact>
</mgrwt>
</event>
<event>
 6    1  0.2325157E-005  0.2512834E+04  0.7818608E-02  0.8398427E-01
         -2   -1    0    0    0  501 -0.00000000000E+00  0.00000000000E+00  0.48950661124E+03  0.48950661124E+03  0.00000000000E+00 0. -1.
          2   -1    0    0  501    0  0.00000000000E+00 -0.00000000000E+00 -0.32248471951E+04  0.32248471951E+04  0.00000000000E+00 0.  1.
         23    2    1    2    0    0  0.53904171259E+03  0.10954346612E+04 -0.94287543406E+03  0.15456043099E+04  0.96620566541E+02 0.  0.
         13    1    3    3    0    0  0.34390843882E+03  0.60123231941E+03 -0.55979294124E+03  0.89057366526E+03  0.00000000000E+00 0. -1.
        -13    1    3    3    0    0  0.19513327377E+03  0.49420234179E+03 -0.38308249283E+03  0.65503064468E+03  0.00000000000E+00 0.  1.
         22    1    1    2    0    0 -0.53904171259E+03 -0.10954346612E+04 -0.17924651498E+04  0.21687494964E+04  0.00000000000E+00 0. -1.
<mgrwt>
<rscale>  0 0.25128343E+04</rscale>
<asrwt>0</asrwt>
<pdfrwt beam="1">  1        2 0.49613035E+00 0.25128343E+04</pdfrwt>
<pdfrwt beam="2">  1       -2 0.75308707E-01 0.25128343E+04</pdfrwt>
<totfact> 0.17617772E+00</totfact>
</mgrwt>
</event>
<event>
 6    1  0.2325157E-005  0.2041041E+04  0.7818608E-02  0.8587669E-01
         -1   -1    0    0    0  501 -0.00000000000E+00  0.00000000000E+00  0.42278050525E+03  0.42278050525E+03  0.00000000000E+00 0. -1.
          1   -1    0    0  501    0  0.00000000000E+00 -0.00000000000E+00 -0.24633645313E+04  0.24633645313E+04  0.00000000000E+00 0.  1.
         23    2    1    2    0    0  0.43985129888E+03 -0.18597386599E+03  0.24985770586E+03  0.54644873762E+03  0.90121616207E+02 0.  0.
         13    1    3    3    0    0  0.35223092010E+03 -0.18607354810E+03  0.20528702731E+03  0.44814367111E+03  0.00000000000E+00 0. -1.
        -13    1    3    3    0    0  0.87620378783E+02  0.99682106667E-01  0.44570678553E+02  0.98305066509E+02  0.00000000000E+00 0.  1.
         22    1    1    2    0    0 -0.43985129888E+03  0.18597386599E+03 -0.22904417319E+04  0.23396962989E+04  0.00000000000E+00 0.  1.
<mgrwt>
<rscale>  0 0.20410414E+04</rscale>
<asrwt>0</asrwt>
<pdfrwt beam="1">  1        1 0.37897916E+00 0.20410414E+04</pdfrwt>
<pdfrwt beam="2">  1       -1 0.65043155E-01 0.20410414E+04</pdfrwt>
<totfact> 0.31828740E+00</totfact>
</mgrwt>
</event>
<event>
 6    1  0.2325157E-005  0.2027169E+04  0.7818608E-02  0.8594022E-01
         -2   -1    0    0    0  501 -0.00000000000E+00  0.00000000000E+00  0.93679575729E+03  0.93679575729E+03  0.00000000000E+00 0. -1.
          2   -1    0    0  501    0  0.00000000000E+00 -0.00000000000E+00 -0.10966678380E+04  0.10966678380E+04  0.00000000000E+00 0.  1.
         23    2    1    2    0    0 -0.40230467004E+03  0.70196024795E+03 -0.68908184852E+03  0.10666853293E+04  0.91578166161E+02 0.  0.
         13    1    3    3    0    0 -0.25781487424E+03  0.52975349787E+03 -0.48602970458E+03  0.76376184221E+03  0.00000000000E+00 0.  1.
        -13    1    3    3    0    0 -0.14448979579E+03  0.17220675008E+03 -0.20305214393E+03  0.30292348707E+03  0.00000000000E+00 0. -1.
         22    1    1    2    0    0  0.40230467004E+03 -0.70196024795E+03  0.52920976782E+03  0.96677826599E+03  0.00000000000E+00 0. -1.
<mgrwt>
<rscale>  0 0.20271692E+04</rscale>
<asrwt>0</asrwt>
<pdfrwt beam="1">  1        2 0.16871813E+00 0.20271692E+04</pdfrwt>
<pdfrwt beam="2">  1       -2 0.14412242E+00 0.20271692E+04</pdfrwt>
<totfact> 0.67562691E+00</totfact>
</mgrwt>
</event>
<event>
 6    1  0.2325157E-005  0.6752732E+03  0.7818608E-02  0.9760478E-01
          2   -1    0    0  501    0  0.00000000000E+00  0.00000000000E+00  0.22171352635E+04  0.22171352635E+04  0.00000000000E+00 0.  1.
         -2   -1    0    0    0  501 -0.00000000000E+00 -0.00000000000E+00 -0.51417007436E+02  0.51417007436E+02  0.00000000000E+00 0. -1.
         23    2    1    2    0    0  0.15640323461E+03 -0.19050580303E+03  0.18468103477E+04  0.18654931105E+04  0.92745092310E+02 0.  0.
         11    1    3    3    0    0  0.14244922094E+03 -0.18702183832E+03  0.14934817836E+04  0.15118719478E+04  0.00000000000E+00 0.  1.
        -11    1    3    3    0    0  0.13954013668E+02 -0.34839647180E+01  0.35332856412E+03  0.35362116273E+03  0.00000000000E+00 0. -1.
         22    1    1    2    0    0 -0.15640323461E+03  0.19050580303E+03  0.31890790828E+03  0.40305916036E+03  0.00000000000E+00 0. -1.
<mgrwt>
<rscale>  0 0.67527316E+03</rscale>
<asrwt>0</asrwt>
<pdfrwt beam="1">  1        2 0.34109766E+00 0.67527316E+03</pdfrwt>
<pdfrwt beam="2">  1       -2 0.79103106E-02 0.67527316E+03</pdfrwt>
<totfact> 0.52388443E+02</totfact>
</mgrwt>
</event>
<event>
 6    1  0.2325157E-005  0.5489769E+03  0.7818608E-02  0.1001731E+00
          1   -1    0    0  501    0  0.00000000000E+00  0.00000000000E+00  0.16604842621E+03  0.16604842621E+03  0.00000000000E+00 0. -1.
         -1   -1    0    0    0  501 -0.00000000000E+00 -0.00000000000E+00 -0.45374664998E+03  0.45374664998E+03  0.00000000000E+00 0.  1.
         23    2    1    2    0    0  0.85723672740E+00  0.10724603821E+03  0.12762396237E+03  0.19084873238E+03  0.92913482941E+02 0.  0.
         11    1    3    3    0    0  0.31475294877E+02  0.25294344285E+01  0.39713150756E+02  0.50736836412E+02  0.00000000000E+00 0.  1.
        -11    1    3    3    0    0 -0.30618058150E+02  0.10471660378E+03  0.87910811613E+02  0.14011189596E+03  0.00000000000E+00 0. -1.
         22    1    1    2    0    0 -0.85723672740E+00 -0.10724603821E+03 -0.41532218615E+03  0.42894634381E+03  0.00000000000E+00 0.  1.
<mgrwt>
<rscale>  0 0.54897693E+03</rscale>
<asrwt>0</asrwt>
<pdfrwt beam="1">  1        1 0.25545912E-01 0.54897693E+03</pdfrwt>
<pdfrwt beam="2">  1       -1 0.69807176E-01 0.54897693E+03</pdfrwt>
<totfact> 0.39927853E+02</totfact>
</mgrwt>
</event>
<event>
 6    1  0.2325157E-005  0.4002476E+04  0.7818608E-02  0.8004047E-01
         -4   -1    0    0    0  501 -0.00000000000E+00  0.00000000000E+00  0.13886896056E+04  0.13886896056E+04  0.00000000000E+00 0. -1.
          4   -1    0    0  501    0  0.00000000000E+00 -0.00000000000E+00 -0.28839797824E+04  0.28839797824E+04  0.00000000000E+00 0.  1.
         23    2    1    2    0    0 -0.97340290080E+03 -0.16047899689E+04 -0.14859807665E+04  0.23957168801E+04  0.91959120316E+02 0.  0.
         13    1    3    3    0    0 -0.69711257393E+03 -0.10880229063E+04 -0.10582461541E+04  0.16702229516E+04  0.00000000000E+00 0.  1.
        -13    1    3    3    0    0 -0.27629032686E+03 -0.51676706259E+03 -0.42773461237E+03  0.72549392852E+03  0.00000000000E+00 0. -1.
         22    1    1    2    0    0  0.97340290080E+03  0.16047899689E+04 -0.93094103265E+01  0.18769525078E+04  0.00000000000E+00 0. -1.
<mgrwt>
<rscale>  0 0.40024756E+04</rscale>
<asrwt>0</asrwt>
<pdfrwt beam="1">  1        4 0.44368920E+00 0.40024756E+04</pdfrwt>
<pdfrwt beam="2">  1       -4 0.21364455E+00 0.40024756E+04</pdfrwt>
<totfact> 0.54531739E-04</totfact>
</mgrwt>
</event>
<event>
 6    1  0.2325157E-005  0.2068184E+04  0.7818608E-02  0.8575390E-01
          1   -1    0    0  501    0  0.00000000000E+00  0.00000000000E+00  0.58687072483E+03  0.58687072483E+03  0.00000000000E+00 0.  1.
         -1   -1    0    0    0  501 -0.00000000000E+00 -0.00000000000E+00 -0.18221154431E+04  0.18221154431E+04  0.00000000000E+00 0. -1.
         23    2    1    2    0    0 -0.54281037212E+03 -0.78021012966E+03 -0.10867794538E+04  0.14470023421E+04  0.96722542404E+02 0.  0.
         13    1    3    3    0    0 -0.17595599866E+03 -0.32396630160E+03 -0.38407234389E+03  0.53237791406E+03  0.00000000000E+00 0. -1.
        -13    1    3    3    0    0 -0.36685437345E+03 -0.45624382806E+03 -0.70270710995E+03  0.91462442802E+03  0.00000000000E+00 0.  1.
         22    1    1    2    0    0  0.54281037212E+03  0.78021012966E+03 -0.14846526447E+03  0.96198382588E+03  0.00000000000E+00 0.  1.
<mgrwt>
<rscale>  0 0.20681839E+04</rscale>
<asrwt>0</asrwt>
<pdfrwt beam="1">  1        1 0.90287808E-01 0.20681839E+04</pdfrwt>
<pdfrwt beam="2">  1       -1 0.28032544E+00 0.20681839E+04</pdfrwt>
<totfact> 0.14447408E+00</totfact>
</mgrwt>
</event>
<event>
 6    1  0.2325157E-005  0.1896576E+04  0.7818608E-02  0.8656563E-01
         -2   -1    0    0    0  501 -0.00000000000E+00  0.00000000000E+00  0.59129312318E+03  0.59129312318E+03  0.00000000000E+00 0. -1.
          2   -1    0    0  501    0  0.00000000000E+00 -0.00000000000E+00 -0.15208192155E+04  0.15208192155E+04  0.00000000000E+00 0.  1.
         23    2    1    2    0    0 -0.68280283398E+03  0.65146348030E+03 -0.38537987352E+03  0.10227457871E+04  0.82866892740E+02 0.  0.
         13    1    3    3    0    0 -0.49563768369E+03  0.43078608242E+03 -0.29213901599E+03  0.71873400293E+03  0.00000000000E+00 0.  1.
        -13    1    3    3    0    0 -0.18716515029E+03  0.22067739788E+03 -0.93240857526E+02  0.30401178419E+03  0.00000000000E+00 0. -1.
         22    1    1    2    0    0  0.68280283398E+03 -0.65146348030E+03 -0.54414621883E+03  0.10893665516E+04  0.00000000000E+00 0.  1.
<mgrwt>
<rscale>  0 0.18965758E+04</rscale>
<asrwt>0</asrwt>
<pdfrwt beam="1">  1        2 0.23397219E+00 0.18965758E+04</pdfrwt>
<pdfrwt beam="2">  1       -2 0.90968172E-01 0.18965758E+04</pdfrwt>
<totfact> 0.11933471E+01</totfact>
</mgrwt>
</event>
<event>
 6    1  0.2325157E-005  0.1203176E+04  0.7818608E-02  0.9110081E-01
          2   -1    0    0  501    0  0.00000000000E+00  0.00000000000E+00  0.10564211669E+04  0.10564211669E+04  0.00000000000E+00 0.  1.
         -2   -1    0    0    0  501 -0.00000000000E+00 -0.00000000000E+00 -0.34257948500E+03  0.34257948500E+03  0.00000000000E+00 0. -1.
         23    2    1    2    0    0  0.59665342284E+03 -0.73830674470E+01  0.31183626038E+03  0.67951599217E+03  0.91925587583E+02 0.  0.
         13    1    3    3    0    0  0.20702959017E+03 -0.91608350427E+01  0.60599593286E+02  0.21591082143E+03  0.00000000000E+00 0. -1.
        -13    1    3    3    0    0  0.38962383268E+03  0.17777675957E+01  0.25123666709E+03  0.46360517074E+03  0.00000000000E+00 0.  1.
         22    1    1    2    0    0 -0.59665342284E+03  0.73830674470E+01  0.40200542157E+03  0.71948465977E+03  0.00000000000E+00 0.  1.
<mgrwt>
<rscale>  0 0.12031762E+04</rscale>
<asrwt>0</asrwt>
<pdfrwt beam="1">  1        2 0.16252633E+00 0.12031762E+04</pdfrwt>
<pdfrwt beam="2">  1       -2 0.52704536E-01 0.12031762E+04</pdfrwt>
<totfact> 0.77694881E+01</totfact>
</mgrwt>
</event>
<event>
 6    1  0.2325157E-005  0.1956552E+04  0.7818608E-02  0.8627208E-01
         -2   -1    0    0    0  501 -0.00000000000E+00  0.00000000000E+00  0.86528500104E+03  0.86528500104E+03  0.00000000000E+00 0. -1.
          2   -1    0    0  501    0  0.00000000000E+00 -0.00000000000E+00 -0.11060219384E+04  0.11060219384E+04  0.00000000000E+00 0.  1.
         23    2    1    2    0    0 -0.38591792617E+03 -0.86825072839E+03  0.10488953452E+03  0.96024332563E+03  0.90958544753E+02 0.  0.
         13    1    3    3    0    0 -0.22274001989E+03 -0.55766918214E+03  0.10374713206E+03  0.60940257678E+03  0.00000000000E+00 0. -1.
        -13    1    3    3    0    0 -0.16317790628E+03 -0.31058154625E+03  0.11424024587E+01  0.35084074885E+03  0.00000000000E+00 0.  1.
         22    1    1    2    0    0  0.38591792617E+03  0.86825072839E+03 -0.34562647187E+03  0.10110636138E+04  0.00000000000E+00 0. -1.
<mgrwt>
<rscale>  0 0.19565523E+04</rscale>
<asrwt>0</asrwt>
<pdfrwt beam="1">  1        2 0.17015722E+00 0.19565523E+04</pdfrwt>
<pdfrwt beam="2">  1       -2 0.13312077E+00 0.19565523E+04</pdfrwt>
<totfact> 0.82350795E+00</totfact>
</mgrwt>
</event>
<event>
 6    1  0.2325157E-005  0.6709592E+03  0.7818608E-02  0.9768227E-01
          2   -1    0    0  501    0  0.00000000000E+00  0.00000000000E+00  0.74170256710E+03  0.74170256710E+03  0.00000000000E+00 0.  1.
         -2   -1    0    0    0  501 -0.00000000000E+00 -0.00000000000E+00 -0.15174081873E+03  0.15174081873E+03  0.00000000000E+00 0. -1.
         23    2    1    2    0    0  0.72226160236E+02  0.17466178990E+03  0.65941594751E+03  0.69207992129E+03  0.91770728149E+02 0.  0.
         11    1    3    3    0    0  0.48215942682E+02  0.25916336033E+02  0.24726869618E+03  0.25325528961E+03  0.00000000000E+00 0. -1.
        -11    1    3    3    0    0  0.24010217554E+02  0.14874545386E+03  0.41214725133E+03  0.43882463168E+03  0.00000000000E+00 0.  1.
         22    1    1    2    0    0 -0.72226160236E+02 -0.17466178990E+03 -0.69454199151E+02  0.20136346454E+03  0.00000000000E+00 0. -1.
<mgrwt>
<rscale>  0 0.67095918E+03</rscale>
<asrwt>0</asrwt>
<pdfrwt beam="1">  1        2 0.11410809E+00 0.67095918E+03</pdfrwt>
<pdfrwt beam="2">  1       -2 0.23344742E-01 0.67095918E+03</pdfrwt>
<totfact> 0.62061557E+02</totfact>
</mgrwt>
</event>
<event>
 6    1  0.2325157E-005  0.6081963E+04  0.7818608E-02  0.7680322E-01
          1   -1    0    0  501    0  0.00000000000E+00  0.00000000000E+00  0.38714212353E+04  0.38714212353E+04  0.00000000000E+00 0.  1.
         -1   -1    0    0    0  501 -0.00000000000E+00 -0.00000000000E+00 -0.23886755717E+04  0.23886755717E+04  0.00000000000E+00 0. -1.
         23    2    1    2    0    0  0.29195236606E+04 -0.83224305938E+03  0.57241792852E+03  0.30907209221E+04  0.92987194618E+02 0.  0.
         11    1    3    3    0    0  0.24453716490E+03 -0.49241185434E+02  0.63653456375E+02  0.25743908380E+03  0.00000000000E+00 0.  1.
        -11    1    3    3    0    0  0.26749864957E+04 -0.78300187394E+03  0.50876447214E+03  0.28332818383E+04  0.00000000000E+00 0. -1.
         22    1    1    2    0    0 -0.29195236606E+04  0.83224305938E+03  0.91032773511E+03  0.31693758850E+04  0.00000000000E+00 0.  1.
<mgrwt>
<rscale>  0 0.60819633E+04</rscale>
<asrwt>0</asrwt>
<pdfrwt beam="1">  1        1 0.59560327E+00 0.60819633E+04</pdfrwt>
<pdfrwt beam="2">  1       -1 0.36748855E+00 0.60819633E+04</pdfrwt>
<totfact> 0.97537990E-04</totfact>
</mgrwt>
</event>
<event>
 6    1  0.2325157E-005  0.8564737E+03  0.7818608E-02  0.9481689E-01
         -1   -1    0    0    0  501 -0.00000000000E+00  0.00000000000E+00  0.85061440759E+03  0.85061440759E+03  0.00000000000E+00 0. -1.
          1   -1    0    0  501    0  0.00000000000E+00 -0.00000000000E+00 -0.21559334994E+03  0.21559334994E+03  0.00000000000E+00 0.  1.
         23    2    1    2    0    0  0.11360792082E+03 -0.16382949814E+03  0.78567552674E+03  0.81632051657E+03  0.96676203463E+02 0.  0.
         13    1    3    3    0    0  0.10949680548E+02  0.77160129309E+01  0.13405218752E+03  0.13471978822E+03  0.00000000000E+00 0. -1.
        -13    1    3    3    0    0  0.10265824027E+03 -0.17154551107E+03  0.65162333923E+03  0.68160072835E+03  0.00000000000E+00 0.  1.
         22    1    1    2    0    0 -0.11360792082E+03  0.16382949814E+03 -0.15065446910E+03  0.24988724096E+03  0.00000000000E+00 0.  1.
<mgrwt>
<rscale>  0 0.85647372E+03</rscale>
<asrwt>0</asrwt>
<pdfrwt beam="1">  1        1 0.33168208E-01 0.85647372E+03</pdfrwt>
<pdfrwt beam="2">  1       -1 0.13086375E+00 0.85647372E+03</pdfrwt>
<totfact> 0.67991169E+01</totfact>
</mgrwt>
</event>
<event>
 6    1  0.2325157E-005  0.2804257E+04  0.7818608E-02  0.8301948E-01
          2   -1    0    0  501    0  0.00000000000E+00  0.00000000000E+00  0.19381476808E+04  0.19381476808E+04  0.00000000000E+00 0.  1.
         -2   -1    0    0    0  501 -0.00000000000E+00 -0.00000000000E+00 -0.10143521184E+04  0.10143521184E+04  0.00000000000E+00 0. -1.
         23    2    1    2    0    0  0.21875425678E+03 -0.66203472642E+03 -0.81657340305E+03  0.10776591287E+04  0.91726066670E+02 0.  0.
         13    1    3    3    0    0  0.74343490898E+02 -0.29946511002E+03 -0.42106282397E+03  0.52201552514E+03  0.00000000000E+00 0.  1.
        -13    1    3    3    0    0  0.14441076588E+03 -0.36256961640E+03 -0.39551057908E+03  0.55564360358E+03  0.00000000000E+00 0. -1.
         22    1    1    2    0    0 -0.21875425678E+03  0.66203472642E+03  0.17403689654E+04  0.18748406704E+04  0.00000000000E+00 0.  1.
<mgrwt>
<rscale>  0 0.28042569E+04</rscale>
<asrwt>0</asrwt>
<pdfrwt beam="1">  1        2 0.29817657E+00 0.28042569E+04</pdfrwt>
<pdfrwt beam="2">  1       -2 0.15605417E+00 0.28042569E+04</pdfrwt>
<totfact> 0.16958339E+00</totfact>
</mgrwt>
</event>
<event>
 6    1  0.2325157E-005  0.1609081E+04  0.7818608E-02  0.8814989E-01
          2   -1    0    0  501    0  0.00000000000E+00  0.00000000000E+00  0.24116629672E+04  0.24116629672E+04  0.00000000000E+00 0.  1.
         -2   -1    0    0    0  501 -0.00000000000E+00 -0.00000000000E+00 -0.26839789310E+03  0.26839789310E+03  0.00000000000E+00 0. -1.
         23    2    1    2    0    0 -0.32337569878E+03  0.72198418791E+03  0.85539127956E+03  0.11686205139E+04  0.90258817373E+02 0.  0.
         11    1    3    3    0    0 -0.18572956754E+03  0.46653253243E+03  0.59673748755E+03  0.77989980454E+03  0.00000000000E+00 0.  1.
        -11    1    3    3    0    0 -0.13764613124E+03  0.25545165548E+03  0.25865379201E+03  0.38872070932E+03  0.00000000000E+00 0. -1.
         22    1    1    2    0    0  0.32337569878E+03 -0.72198418791E+03  0.12878737945E+04  0.15114403464E+04  0.00000000000E+00 0.  1.
<mgrwt>
<rscale>  0 0.16090808E+04</rscale>
<asrwt>0</asrwt>
<pdfrwt beam="1">  1        2 0.37102506E+00 0.16090808E+04</pdfrwt>
<pdfrwt beam="2">  1       -2 0.41291985E-01 0.16090808E+04</pdfrwt>
<totfact> 0.20876161E+01</totfact>
</mgrwt>
</event>
<event>
 6    1  0.2524619E-005  0.3252477E+04  0.7818608E-02  0.8175094E-01
          2   -1    0    0  501    0  0.00000000000E+00  0.00000000000E+00  0.90887834628E+03  0.90887834628E+03  0.00000000000E+00 0.  1.
         -2   -1    0    0    0  501 -0.00000000000E+00 -0.00000000000E+00 -0.29097979264E+04  0.29097979264E+04  0.00000000000E+00 0. -1.
         23    2    1    2    0    0 -0.42296649217E+03 -0.27151578485E+02 -0.28430585212E+04  0.28758953555E+04  0.90302157358E+02 0.  0.
         13    1    3    3    0    0 -0.19343530131E+03  0.17043215428E+02 -0.10676436151E+04  0.10851592399E+04  0.00000000000E+00 0.  1.
        -13    1    3    3    0    0 -0.22953119086E+03 -0.44194793913E+02 -0.17754149060E+04  0.17907361157E+04  0.00000000000E+00 0. -1.
         22    1    1    2    0    0  0.42296649217E+03  0.27151578485E+02  0.84213894103E+03  0.94278091714E+03  0.00000000000E+00 0.  1.
<mgrwt>
<rscale>  0 0.32524774E+04</rscale>
<asrwt>0</asrwt>
<pdfrwt beam="1">  1        2 0.13982744E+00 0.32524774E+04</pdfrwt>
<pdfrwt beam="2">  1       -2 0.44766122E+00 0.32524774E+04</pdfrwt>
<totfact> 0.87087297E-02</totfact>
</mgrwt>
</event>
<event>
 6    1  0.2325157E-005  0.1574917E+04  0.7818608E-02  0.8836108E-01
         -2   -1    0    0    0  501 -0.00000000000E+00  0.00000000000E+00  0.11512669467E+04  0.11512669467E+04  0.00000000000E+00 0. -1.
          2   -1    0    0  501    0  0.00000000000E+00 -0.00000000000E+00 -0.53861588164E+03  0.53861588164E+03  0.00000000000E+00 0.  1.
         23    2    1    2    0    0 -0.27324026602E+03 -0.42967180395E+03  0.94809374883E+03  0.10801288647E+04  0.92295751886E+02 0.  0.
         13    1    3    3    0    0 -0.15870296902E+03 -0.23562680356E+03  0.43261891162E+03  0.51755748050E+03  0.00000000000E+00 0. -1.
        -13    1    3    3    0    0 -0.11453729700E+03 -0.19404500038E+03  0.51547483721E+03  0.56257138425E+03  0.00000000000E+00 0.  1.
         22    1    1    2    0    0  0.27324026602E+03  0.42967180395E+03 -0.33544268374E+03  0.60975396363E+03  0.00000000000E+00 0.  1.
<mgrwt>
<rscale>  0 0.15749167E+04</rscale>
<asrwt>0</asrwt>
<pdfrwt beam="1">  1        2 0.82863982E-01 0.15749167E+04</pdfrwt>
<pdfrwt beam="2">  1       -2 0.17711799E+00 0.15749167E+04</pdfrwt>
<totfact> 0.10284604E+01</totfact>
</mgrwt>
</event>
<event>
 6    1  0.2325157E-005  0.6265760E+04  0.7818608E-02  0.7658297E-01
         -2   -1    0    0    0  501 -0.00000000000E+00  0.00000000000E+00  0.36190026668E+04  0.36190026668E+04  0.00000000000E+00 0. -1.
          2   -1    0    0  501    0  0.00000000000E+00 -0.00000000000E+00 -0.27120554748E+04  0.27120554748E+04  0.00000000000E+00 0.  1.
         23    2    1    2    0    0  0.19381727763E+04 -0.17352306780E+04  0.22162327646E+04  0.34187106473E+04  0.91409007320E+02 0.  0.
         13    1    3    3    0    0  0.10245735374E+04 -0.86548012962E+03  0.11741642638E+04  0.17825455132E+04  0.00000000000E+00 0.  1.
        -13    1    3    3    0    0  0.91359923893E+03 -0.86975054838E+03  0.10420685008E+04  0.16361651341E+04  0.00000000000E+00 0. -1.
         22    1    1    2    0    0 -0.19381727763E+04  0.17352306780E+04 -0.13092855725E+04  0.29123474942E+04  0.00000000000E+00 0.  1.
<mgrwt>
<rscale>  0 0.62657596E+04</rscale>
<asrwt>0</asrwt>
<pdfrwt beam="1">  1        2 0.41723930E+00 0.62657596E+04</pdfrwt>
<pdfrwt beam="2">  1       -2 0.55676965E+00 0.62657596E+04</pdfrwt>
<totfact> 0.13873177E-03</totfact>
</mgrwt>
</event>
<event>
 6    1  0.2325157E-005  0.4783117E+04  0.7818608E-02  0.7862863E-01
          2   -1    0    0  501    0  0.00000000000E+00  0.00000000000E+00  0.35296843198E+04  0.35296843198E+04  0.00000000000E+00 0.  1.
         -2   -1    0    0    0  501 -0.00000000000E+00 -0.00000000000E+00 -0.16204145411E+04  0.16204145411E+04  0.00000000000E+00 0. -1.
         23    2    1    2    0    0 -0.22161071462E+03 -0.23220878125E+04  0.39106608410E+03  0.23669090405E+04  0.90125501739E+02 0.  0.
         11    1    3    3    0    0 -0.57725143167E+02 -0.98845521097E+03  0.19189580410E+03  0.10085632830E+04  0.00000000000E+00 0.  1.
        -11    1    3    3    0    0 -0.16388557145E+03 -0.13336326015E+04  0.19917028000E+03  0.13583457575E+04  0.00000000000E+00 0. -1.
         22    1    1    2    0    0  0.22161071462E+03  0.23220878125E+04  0.15182036946E+04  0.27831898203E+04  0.00000000000E+00 0. -1.
<mgrwt>
<rscale>  0 0.47831169E+04</rscale>
<asrwt>0</asrwt>
<pdfrwt beam="1">  1        2 0.54302835E+00 0.47831169E+04</pdfrwt>
<pdfrwt beam="2">  1       -2 0.24929455E+00 0.47831169E+04</pdfrwt>
<totfact> 0.37171768E-02</totfact>
</mgrwt>
</event>
<event>
 6    1  0.2325157E-005  0.3194893E+04  0.7818608E-02  0.8190167E-01
          2   -1    0    0  501    0  0.00000000000E+00  0.00000000000E+00  0.22403069247E+04  0.22403069247E+04  0.00000000000E+00 0.  1.
         -2   -1    0    0    0  501 -0.00000000000E+00 -0.00000000000E+00 -0.11390560010E+04  0.11390560010E+04  0.00000000000E+00 0. -1.
         23    2    1    2    0    0  0.14781926902E+03 -0.12776933871E+04 -0.44869807893E+03  0.13652395832E+04  0.90544054067E+02 0.  0.
         13    1    3    3    0    0  0.12096381724E+03 -0.71584696388E+03 -0.27829113810E+03  0.77750567736E+03  0.00000000000E+00 0.  1.
        -13    1    3    3    0    0  0.26855451775E+02 -0.56184642326E+03 -0.17040694083E+03  0.58773390587E+03  0.00000000000E+00 0. -1.
         22    1    1    2    0    0 -0.14781926902E+03  0.12776933871E+04  0.15499490026E+04  0.20141233425E+04  0.00000000000E+00 0.  1.
<mgrwt>
<rscale>  0 0.31948928E+04</rscale>
<asrwt>0</asrwt>
<pdfrwt beam="1">  1        2 0.34466260E+00 0.31948928E+04</pdfrwt>
<pdfrwt beam="2">  1       -2 0.17523939E+00 0.31948928E+04</pdfrwt>
<totfact> 0.80797287E-01</totfact>
</mgrwt>
</event>
<event>
 6    1  0.2325157E-005  0.3096009E+04  0.7818608E-02  0.8216834E-01
         -2   -1    0    0    0  501 -0.00000000000E+00  0.00000000000E+00  0.15902682646E+04  0.15902682646E+04  0.00000000000E+00 0. -1.
          2   -1    0    0  501    0  0.00000000000E+00 -0.00000000000E+00 -0.15068636891E+04  0.15068636891E+04  0.00000000000E+00 0.  1.
         23    2    1    2    0    0 -0.48270147933E+03  0.12923445937E+04  0.74000644464E+03  0.15692964646E+04  0.10920892186E+03 0.  0.
         13    1    3    3    0    0 -0.14625108049E+03  0.54483971359E+03  0.30358820408E+03  0.64062897976E+03  0.00000000000E+00 0. -1.
        -13    1    3    3    0    0 -0.33645039884E+03  0.74750488015E+03  0.43641824056E+03  0.92866748485E+03  0.00000000000E+00 0.  1.
         22    1    1    2    0    0  0.48270147933E+03 -0.12923445937E+04 -0.65660186920E+03  0.15278354891E+04  0.00000000000E+00 0. -1.
<mgrwt>
<rscale>  0 0.30960087E+04</rscale>
<asrwt>0</asrwt>
<pdfrwt beam="1">  1        2 0.23182518E+00 0.30960087E+04</pdfrwt>
<pdfrwt beam="2">  1       -2 0.24465666E+00 0.30960087E+04</pdfrwt>
<totfact> 0.74075029E-01</totfact>
</mgrwt>
</event>
<event>
 6    1  0.2325157E-005  0.2446222E+04  0.7818608E-02  0.8422399E-01
          2   -1    0    0  501    0  0.00000000000E+00  0.00000000000E+00  0.80101677290E+03  0.80101677290E+03  0.00000000000E+00 0.  1.
         -2   -1    0    0    0  501 -0.00000000000E+00 -0.00000000000E+00 -0.18676267134E+04  0.18676267134E+04  0.00000000000E+00 0. -1.
         23    2    1    2    0    0  0.28099866194E+03  0.22035537056E+03 -0.18083352359E+04  0.18454344296E+04  0.89639116951E+02 0.  0.
         13    1    3    3    0    0  0.70608113613E+02  0.17636636326E+02 -0.46812318328E+03  0.47374663204E+03  0.00000000000E+00 0. -1.
        -13    1    3    3    0    0  0.21039054833E+03  0.20271873423E+03 -0.13402120526E+04  0.13716877976E+04  0.00000000000E+00 0.  1.
         22    1    1    2    0    0 -0.28099866194E+03 -0.22035537056E+03  0.74172529534E+03  0.82320905674E+03  0.00000000000E+00 0.  1.
<mgrwt>
<rscale>  0 0.24462218E+04</rscale>
<asrwt>0</asrwt>
<pdfrwt beam="1">  1        2 0.12323335E+00 0.24462218E+04</pdfrwt>
<pdfrwt beam="2">  1       -2 0.28732718E+00 0.24462218E+04</pdfrwt>
<totfact> 0.11704886E+00</totfact>
</mgrwt>
</event>
<event>
 6    1  0.2325157E-005  0.2035214E+04  0.7818608E-02  0.8590332E-01
         -2   -1    0    0    0  501 -0.00000000000E+00  0.00000000000E+00  0.11860344806E+04  0.11860344806E+04  0.00000000000E+00 0. -1.
          2   -1    0    0  501    0  0.00000000000E+00 -0.00000000000E+00 -0.87309757929E+03  0.87309757929E+03  0.00000000000E+00 0.  1.
         23    2    1    2    0    0 -0.15286017175E+03  0.35470281920E+03 -0.79358991118E+03  0.88713295203E+03  0.89663846676E+02 0.  0.
         11    1    3    3    0    0 -0.84319181149E+02  0.14087788524E+03 -0.25113791738E+03  0.30004425741E+03  0.00000000000E+00 0. -1.
        -11    1    3    3    0    0 -0.68540990600E+02  0.21382493396E+03 -0.54245199381E+03  0.58708869463E+03  0.00000000000E+00 0.  1.
         22    1    1    2    0    0  0.15286017175E+03 -0.35470281920E+03  0.11065268125E+04  0.11719991079E+04  0.00000000000E+00 0. -1.
<mgrwt>
<rscale>  0 0.20352138E+04</rscale>
<asrwt>0</asrwt>
<pdfrwt beam="1">  1        2 0.13432270E+00 0.20352138E+04</pdfrwt>
<pdfrwt beam="2">  1       -2 0.18246684E+00 0.20352138E+04</pdfrwt>
<totfact> 0.49393228E+00</totfact>
</mgrwt>
</event>
<event>
 6    1  0.2325157E-005  0.4950561E+04  0.7818608E-02  0.7836179E-01
         -2   -1    0    0    0  501 -0.00000000000E+00  0.00000000000E+00  0.29691782543E+04  0.29691782543E+04  0.00000000000E+00 0. -1.
          2   -1    0    0  501    0  0.00000000000E+00 -0.00000000000E+00 -0.20635385071E+04  0.20635385071E+04  0.00000000000E+00 0.  1.
         23    2    1    2    0    0 -0.13017876883E+04  0.21603741756E+03 -0.16747729496E+04  0.21344667657E+04  0.98795699451E+02 0.  0.
         11    1    3    3    0    0 -0.12100976207E+04  0.20345153736E+03 -0.15125508323E+04  0.19477009011E+04  0.00000000000E+00 0.  1.
        -11    1    3    3    0    0 -0.91690067566E+02  0.12585880192E+02 -0.16222211728E+03  0.18676586467E+03  0.00000000000E+00 0. -1.
         22    1    1    2    0    0  0.13017876883E+04 -0.21603741756E+03  0.25804126969E+04  0.28982499957E+04  0.00000000000E+00 0. -1.
<mgrwt>
<rscale>  0 0.49505610E+04</rscale>
<asrwt>0</asrwt>
<pdfrwt beam="1">  1        2 0.31746746E+00 0.49505610E+04</pdfrwt>
<pdfrwt beam="2">  1       -2 0.45679666E+00 0.49505610E+04</pdfrwt>
<totfact> 0.14130632E-02</totfact>
</mgrwt>
</event>
<event>
 6    1  0.2325157E-005  0.2927240E+04  0.7818608E-02  0.8264818E-01
         -4   -1    0    0    0  501 -0.00000000000E+00  0.00000000000E+00  0.10795624999E+04  0.10795624999E+04  0.00000000000E+00 0. -1.
          4   -1    0    0  501    0  0.00000000000E+00 -0.00000000000E+00 -0.19843077164E+04  0.19843077164E+04  0.00000000000E+00 0.  1.
         23    2    1    2    0    0 -0.14313045004E+03  0.12056508021E+04  0.40004517279E+03  0.12815800766E+04  0.91275244906E+02 0.  0.
         13    1    3    3    0    0 -0.99701635182E+02  0.48974420837E+03  0.18293204915E+03  0.53221606543E+03  0.00000000000E+00 0. -1.
        -13    1    3    3    0    0 -0.43428814854E+02  0.71590659368E+03  0.21711312364E+03  0.74936401120E+03  0.00000000000E+00 0.  1.
         22    1    1    2    0    0  0.14313045004E+03 -0.12056508021E+04 -0.13047903892E+04  0.17822901397E+04  0.00000000000E+00 0.  1.
<mgrwt>
<rscale>  0 0.29272405E+04</rscale>
<asrwt>0</asrwt>
<pdfrwt beam="1">  1        4 0.30527811E+00 0.29272405E+04</pdfrwt>
<pdfrwt beam="2">  1       -4 0.16608654E+00 0.29272405E+04</pdfrwt>
<totfact> 0.11051671E-02</totfact>
</mgrwt>
</event>
<event>
 6    1  0.2325157E-005  0.9668062E+03  0.7818608E-02  0.9345720E-01
          2   -1    0    0  501    0  0.00000000000E+00  0.00000000000E+00  0.16998008411E+04  0.16998008411E+04  0.00000000000E+00 0.  1.
         -2   -1    0    0    0  501 -0.00000000000E+00 -0.00000000000E+00 -0.13747407508E+03  0.13747407508E+03  0.00000000000E+00 0. -1.
         23    2    1    2    0    0 -0.47890354705E+03 -0.61126216079E+01  0.78964413401E+03  0.92819602997E+03  0.92865710343E+02 0.  0.
         11    1    3    3    0    0 -0.20738992664E+03  0.39908267246E+02  0.37633527016E+03  0.43154546347E+03  0.00000000000E+00 0.  1.
        -11    1    3    3    0    0 -0.27151362041E+03 -0.46020888854E+02  0.41330886385E+03  0.49665056651E+03  0.00000000000E+00 0. -1.
         22    1    1    2    0    0  0.47890354705E+03  0.61126216079E+01  0.77268263196E+03  0.90907888616E+03  0.00000000000E+00 0. -1.
<mgrwt>
<rscale>  0 0.96680618E+03</rscale>
<asrwt>0</asrwt>
<pdfrwt beam="1">  1        2 0.26150781E+00 0.96680618E+03</pdfrwt>
<pdfrwt beam="2">  1       -2 0.21149859E-01 0.96680618E+03</pdfrwt>
<totfact> 0.19011798E+02</totfact>
</mgrwt>
</event>
<event>
 6    1  0.2325157E-005  0.4230000E+04  0.7818608E-02  0.7959690E-01
         -2   -1    0    0    0  501 -0.00000000000E+00  0.00000000000E+00  0.19874325239E+04  0.19874325239E+04  0.00000000000E+00 0. -1.
          2   -1    0    0  501    0  0.00000000000E+00 -0.00000000000E+00 -0.22507555408E+04  0.22507555408E+04  0.00000000000E+00 0.  1.
         23    2    1    2    0    0  0.14473922851E+04 -0.14551856439E+03  0.14052153523E+04  0.20245619967E+04  0.90005625868E+02 0.  0.
         13    1    3    3    0    0  0.11737959663E+04 -0.10482496234E+03  0.10910639304E+04  0.16059905802E+04  0.00000000000E+00 0. -1.
        -13    1    3    3    0    0  0.27359631875E+03 -0.40693602050E+02  0.31415142189E+03  0.41857141655E+03  0.00000000000E+00 0.  1.
         22    1    1    2    0    0 -0.14473922851E+04  0.14551856439E+03 -0.16685383692E+04  0.22136260680E+04  0.00000000000E+00 0.  1.
<mgrwt>
<rscale>  0 0.42299999E+04</rscale>
<asrwt>0</asrwt>
<pdfrwt beam="1">  1        2 0.34627008E+00 0.42299999E+04</pdfrwt>
<pdfrwt beam="2">  1       -2 0.30575885E+00 0.42299999E+04</pdfrwt>
<totfact> 0.10969961E-01</totfact>
</mgrwt>
</event>
<event>
 6    1  0.2325157E-005  0.3981959E+04  0.7818608E-02  0.8008196E-01
          2   -1    0    0  501    0  0.00000000000E+00  0.00000000000E+00  0.46002046590E+04  0.46002046590E+04  0.00000000000E+00 0.  1.
         -2   -1    0    0    0  501 -0.00000000000E+00 -0.00000000000E+00 -0.86170069931E+03  0.86170069931E+03  0.00000000000E+00 0. -1.
         23    2    1    2    0    0 -0.68021875931E+03 -0.16404371155E+04  0.31017196783E+04  0.35753143291E+04  0.92065731963E+02 0.  0.
         13    1    3    3    0    0 -0.42949749725E+03 -0.92905358681E+03  0.18257770963E+04  0.20931007317E+04  0.00000000000E+00 0.  1.
        -13    1    3    3    0    0 -0.25072126205E+03 -0.71138352869E+03  0.12759425819E+04  0.14822135975E+04  0.00000000000E+00 0. -1.
         22    1    1    2    0    0  0.68021875931E+03  0.16404371155E+04  0.63678428143E+03  0.18865910292E+04  0.00000000000E+00 0. -1.
<mgrwt>
<rscale>  0 0.39819591E+04</rscale>
<asrwt>0</asrwt>
<pdfrwt beam="1">  1        2 0.70772378E+00 0.39819591E+04</pdfrwt>
<pdfrwt beam="2">  1       -2 0.13256934E+00 0.39819591E+04</pdfrwt>
<totfact> 0.31636391E-02</totfact>
</mgrwt>
</event>
<event>
 6    1  0.2325157E-005  0.1672495E+04  0.7818608E-02  0.8777209E-01
         -2   -1    0    0    0  501 -0.00000000000E+00  0.00000000000E+00  0.49587931200E+03  0.49587931200E+03  0.00000000000E+00 0. -1.
          2   -1    0    0  501    0  0.00000000000E+00 -0.00000000000E+00 -0.14102429158E+04  0.14102429158E+04  0.00000000000E+00 0.  1.
         23    2    1    2    0    0  0.33369363309E+03  0.21475779856E+03 -0.12937525720E+04  0.13571155411E+04  0.10244277180E+03 0.  0.
         13    1    3    3    0    0  0.80158894894E+02  0.23809210786E+02 -0.40083258043E+03  0.40946194510E+03  0.00000000000E+00 0. -1.
        -13    1    3    3    0    0  0.25353473819E+03  0.19094858778E+03 -0.89291999157E+03  0.94765359599E+03  0.00000000000E+00 0.  1.
         22    1    1    2    0    0 -0.33369363309E+03 -0.21475779856E+03  0.37938896823E+03  0.54900668668E+03  0.00000000000E+00 0. -1.
<mgrwt>
<rscale>  0 0.16724955E+04</rscale>
<asrwt>0</asrwt>
<pdfrwt beam="1">  1        2 0.21696045E+00 0.16724955E+04</pdfrwt>
<pdfrwt beam="2">  1       -2 0.76289126E-01 0.16724955E+04</pdfrwt>
<totfact> 0.20930618E+01</totfact>
</mgrwt>
</event>
<event>
 6    1  0.2325157E-005  0.3312600E+04  0.7818608E-02  0.8159697E-01
         -2   -1    0    0    0  501 -0.00000000000E+00  0.00000000000E+00  0.10098410370E+04  0.10098410370E+04  0.00000000000E+00 0. -1.
          2   -1    0    0  501    0  0.00000000000E+00 -0.00000000000E+00 -0.27165950275E+04  0.27165950275E+04  0.00000000000E+00 0.  1.
         23    2    1    2    0    0 -0.45736131160E+03 -0.75277120632E+03  0.72219410646E+03  0.11427114824E+04  0.91549693043E+02 0.  0.
         13    1    3    3    0    0 -0.18608466302E+03 -0.27857594236E+03  0.22107893627E+03  0.40138255261E+03  0.00000000000E+00 0. -1.
        -13    1    3    3    0    0 -0.27127664858E+03 -0.47419526396E+03  0.50111517019E+03  0.74132892984E+03  0.00000000000E+00 0.  1.
         22    1    1    2    0    0  0.45736131160E+03  0.75277120632E+03 -0.24289480969E+04  0.25837245820E+04  0.00000000000E+00 0.  1.
<mgrwt>
<rscale>  0 0.33125997E+04</rscale>
<asrwt>0</asrwt>
<pdfrwt beam="1">  1        2 0.41793769E+00 0.33125997E+04</pdfrwt>
<pdfrwt beam="2">  1       -2 0.15536016E+00 0.33125997E+04</pdfrwt>
<totfact> 0.59060350E-01</totfact>
</mgrwt>
</event>
<event>
 6    1  0.2325157E-005  0.5474989E+04  0.7818608E-02  0.7759140E-01
         -2   -1    0    0    0  501 -0.00000000000E+00  0.00000000000E+00  0.22435341867E+04  0.22435341867E+04  0.00000000000E+00 0. -1.
          2   -1    0    0  501    0  0.00000000000E+00 -0.00000000000E+00 -0.33402109451E+04  0.33402109451E+04  0.00000000000E+00 0.  1.
         23    2    1    2    0    0 -0.10747918435E+04 -0.34530588281E+03  0.19940624272E+04  0.22932919149E+04  0.92136767322E+02 0.  0.
         13    1    3    3    0    0 -0.66127348734E+03 -0.23761181626E+03  0.13152173394E+04  0.14911534630E+04  0.00000000000E+00 0. -1.
        -13    1    3    3    0    0 -0.41351835613E+03 -0.10769406654E+03  0.67884508775E+03  0.80213845189E+03  0.00000000000E+00 0.  1.
         22    1    1    2    0    0  0.10747918435E+04  0.34530588281E+03 -0.30907391855E+04  0.32904532169E+04  0.00000000000E+00 0.  1.
<mgrwt>
<rscale>  0 0.54749895E+04</rscale>
<asrwt>0</asrwt>
<pdfrwt beam="1">  1        2 0.51387861E+00 0.54749895E+04</pdfrwt>
<pdfrwt beam="2">  1       -2 0.34515911E+00 0.54749895E+04</pdfrwt>
<totfact> 0.12233625E-02</totfact>
</mgrwt>
</event>
<event>
 6    1  0.2325157E-005  0.1786227E+04  0.7818608E-02  0.8713658E-01
          2   -1    0    0  501    0  0.00000000000E+00  0.00000000000E+00  0.13712016396E+04  0.13712016396E+04  0.00000000000E+00 0.  1.
         -2   -1    0    0    0  501 -0.00000000000E+00 -0.00000000000E+00 -0.58171703809E+03  0.58171703809E+03  0.00000000000E+00 0. -1.
         23    2    1    2    0    0 -0.40687685099E+03  0.35008162245E+03 -0.38150686492E+03  0.66477003383E+03  0.90916421169E+02 0.  0.
         13    1    3    3    0    0 -0.15078355618E+03  0.17013837508E+03 -0.20103308751E+03  0.30347495739E+03  0.00000000000E+00 0.  1.
        -13    1    3    3    0    0 -0.25609329482E+03  0.17994324737E+03 -0.18047377741E+03  0.36129507643E+03  0.00000000000E+00 0. -1.
         22    1    1    2    0    0  0.40687685099E+03 -0.35008162245E+03  0.11709914664E+04  0.12881486439E+04  0.00000000000E+00 0.  1.
<mgrwt>
<rscale>  0 0.17862266E+04</rscale>
<asrwt>0</asrwt>
<pdfrwt beam="1">  1        2 0.21095410E+00 0.17862266E+04</pdfrwt>
<pdfrwt beam="2">  1       -2 0.89494929E-01 0.17862266E+04</pdfrwt>
<totfact> 0.15212084E+01</totfact>
</mgrwt>
</event>
<event>
 6    1  0.2325157E-005  0.2734494E+04  0.7818608E-02  0.8323899E-01
          2   -1    0    0  501    0  0.00000000000E+00  0.00000000000E+00  0.86158989167E+03  0.86158989167E+03  0.00000000000E+00 0.  1.
         -2   -1    0    0    0  501 -0.00000000000E+00 -0.00000000000E+00 -0.21696686787E+04  0.21696686787E+04  0.00000000000E+00 0. -1.
         23    2    1    2    0    0 -0.71926491301E+03  0.11539004053E+04 -0.79637414458E+03  0.15784441289E+04  0.91901737379E+02 0.  0.
         13    1    3    3    0    0 -0.11451023730E+03  0.13086016433E+03 -0.11631233848E+03  0.20920214421E+03  0.00000000000E+00 0. -1.
        -13    1    3    3    0    0 -0.60475467571E+03  0.10230402410E+04 -0.68006180610E+03  0.13692419846E+04  0.00000000000E+00 0.  1.
         22    1    1    2    0    0  0.71926491301E+03 -0.11539004053E+04 -0.51170464246E+03  0.14528144415E+04  0.00000000000E+00 0.  1.
<mgrwt>
<rscale>  0 0.27344942E+04</rscale>
<asrwt>0</asrwt>
<pdfrwt beam="1">  1        2 0.13255229E+00 0.27344942E+04</pdfrwt>
<pdfrwt beam="2">  1       -2 0.33379518E+00 0.27344942E+04</pdfrwt>
<totfact> 0.53584243E-01</totfact>
</mgrwt>
</event>
<event>
 6    1  0.2325157E-005  0.3015421E+04  0.7818608E-02  0.8239341E-01
         -2   -1    0    0    0  501 -0.00000000000E+00  0.00000000000E+00  0.12404714491E+04  0.12404714491E+04  0.00000000000E+00 0. -1.
          2   -1    0    0  501    0  0.00000000000E+00 -0.00000000000E+00 -0.18325221250E+04  0.18325221250E+04  0.00000000000E+00 0.  1.
         23    2    1    2    0    0 -0.15091843128E+03  0.64163068563E+03  0.10841211648E+04  0.12718777119E+04  0.88813875126E+02 0.  0.
         13    1    3    3    0    0 -0.10560722493E+03  0.25800699329E+03  0.44924514217E+03  0.52871702480E+03  0.00000000000E+00 0.  1.
        -13    1    3    3    0    0 -0.45311206341E+02  0.38362369235E+03  0.63487602260E+03  0.74316068708E+03  0.00000000000E+00 0. -1.
         22    1    1    2    0    0  0.15091843128E+03 -0.64163068563E+03 -0.16761718407E+04  0.18011158622E+04  0.00000000000E+00 0.  1.
<mgrwt>
<rscale>  0 0.30154213E+04</rscale>
<asrwt>0</asrwt>
<pdfrwt beam="1">  1        2 0.28192648E+00 0.30154213E+04</pdfrwt>
<pdfrwt beam="2">  1       -2 0.19084176E+00 0.30154213E+04</pdfrwt>
<totfact> 0.10828438E+00</totfact>
</mgrwt>
</event>
<event>
 6    1  0.2325157E-005  0.8055721E+03  0.7818608E-02  0.9551986E-01
         -2   -1    0    0    0  501 -0.00000000000E+00  0.00000000000E+00  0.10570516414E+03  0.10570516414E+03  0.00000000000E+00 0. -1.
          2   -1    0    0  501    0  0.00000000000E+00 -0.00000000000E+00 -0.15348031681E+04  0.15348031681E+04  0.00000000000E+00 0.  1.
         23    2    1    2    0    0  0.22033111262E+03  0.32179840332E+03 -0.88126063353E+03  0.96803097501E+03  0.91453008640E+02 0.  0.
         13    1    3    3    0    0  0.19021826986E+03  0.30915941691E+03 -0.75669566153E+03  0.83925613458E+03  0.00000000000E+00 0. -1.
        -13    1    3    3    0    0  0.30112842762E+02  0.12638986410E+02 -0.12456497201E+03  0.12877484043E+03  0.00000000000E+00 0.  1.
         22    1    1    2    0    0 -0.22033111262E+03 -0.32179840332E+03 -0.54783737044E+03  0.67247735725E+03  0.00000000000E+00 0.  1.
<mgrwt>
<rscale>  0 0.80557215E+03</rscale>
<asrwt>0</asrwt>
<pdfrwt beam="1">  1        2 0.23612357E+00 0.80557215E+03</pdfrwt>
<pdfrwt beam="2">  1       -2 0.16262333E-01 0.80557215E+03</pdfrwt>
<totfact> 0.37417605E+02</totfact>
</mgrwt>
</event>
<event>
 6    1  0.2325157E-005  0.2872072E+04  0.7818608E-02  0.8281236E-01
          2   -1    0    0  501    0  0.00000000000E+00  0.00000000000E+00  0.15767182512E+04  0.15767182512E+04  0.00000000000E+00 0.  1.
         -2   -1    0    0    0  501 -0.00000000000E+00 -0.00000000000E+00 -0.13079059926E+04  0.13079059926E+04  0.00000000000E+00 0. -1.
         23    2    1    2    0    0 -0.10520235478E+04 -0.42944791506E+03  0.10140750873E+04  0.15257291998E+04  0.91226375958E+02 0.  0.
         11    1    3    3    0    0 -0.31354862031E+03 -0.85116073059E+02  0.27463743256E+03  0.42542120605E+03  0.00000000000E+00 0. -1.
        -11    1    3    3    0    0 -0.73847492752E+03 -0.34433184200E+03  0.73943765469E+03  0.11003079938E+04  0.00000000000E+00 0.  1.
         22    1    1    2    0    0  0.10520235478E+04  0.42944791506E+03 -0.74526282865E+03  0.13588950440E+04  0.00000000000E+00 0. -1.
<mgrwt>
<rscale>  0 0.28720719E+04</rscale>
<asrwt>0</asrwt>
<pdfrwt beam="1">  1        2 0.24257204E+00 0.28720719E+04</pdfrwt>
<pdfrwt beam="2">  1       -2 0.20121631E+00 0.28720719E+04</pdfrwt>
<totfact> 0.12982283E+00</totfact>
</mgrwt>
</event>
<event>
 6    1  0.2325157E-005  0.1464236E+04  0.7818608E-02  0.8908590E-01
          2   -1    0    0  501    0  0.00000000000E+00  0.00000000000E+00  0.12508751500E+04  0.12508751500E+04  0.00000000000E+00 0.  1.
         -2   -1    0    0    0  501 -0.00000000000E+00 -0.00000000000E+00 -0.42849762278E+03  0.42849762278E+03  0.00000000000E+00 0. -1.
         23    2    1    2    0    0 -0.91609959791E+02 -0.24877739531E+03  0.11919163422E+04  0.12245744516E+04  0.92927087486E+02 0.  0.
         11    1    3    3    0    0 -0.55139557727E+02 -0.81886918710E+02  0.28249974967E+03  0.29925231301E+03  0.00000000000E+00 0.  1.
        -11    1    3    3    0    0 -0.36470402064E+02 -0.16689047660E+03  0.90941659256E+03  0.92532213863E+03  0.00000000000E+00 0. -1.
         22    1    1    2    0    0  0.91609959791E+02  0.24877739531E+03 -0.36953881498E+03  0.45479832116E+03  0.00000000000E+00 0. -1.
<mgrwt>
<rscale>  0 0.14642364E+04</rscale>
<asrwt>0</asrwt>
<pdfrwt beam="1">  1        2 0.19244233E+00 0.14642364E+04</pdfrwt>
<pdfrwt beam="2">  1       -2 0.65922712E-01 0.14642364E+04</pdfrwt>
<totfact> 0.36246726E+01</totfact>
</mgrwt>
</event>
<event>
 6    1  0.2325157E-005  0.2346338E+04  0.7818608E-02  0.8459872E-01
         -2   -1    0    0    0  501 -0.00000000000E+00  0.00000000000E+00  0.12096077080E+04  0.12096077080E+04  0.00000000000E+00 0. -1.
          2   -1    0    0  501    0  0.00000000000E+00 -0.00000000000E+00 -0.11378275865E+04  0.11378275865E+04  0.00000000000E+00 0.  1.
         23    2    1    2    0    0 -0.99746261512E+03  0.52728119171E+03  0.34907734906E+03  0.11856044651E+04  0.10414330707E+03 0.  0.
         11    1    3    3    0    0 -0.73233504313E+03  0.39797182579E+03  0.30403177394E+03  0.88720432206E+03  0.00000000000E+00 0.  1.
        -11    1    3    3    0    0 -0.26512757199E+03  0.12930936592E+03  0.45045575125E+02  0.29840014307E+03  0.00000000000E+00 0. -1.
         22    1    1    2    0    0  0.99746261512E+03 -0.52728119171E+03 -0.27729722757E+03  0.11618308294E+04  0.00000000000E+00 0.  1.
<mgrwt>
<rscale>  0 0.23463376E+04</rscale>
<asrwt>0</asrwt>
<pdfrwt beam="1">  1        2 0.17505040E+00 0.23463376E+04</pdfrwt>
<pdfrwt beam="2">  1       -2 0.18609349E+00 0.23463376E+04</pdfrwt>
<totfact> 0.30720002E+00</totfact>
</mgrwt>
</event>
<event>
 6    1  0.2325157E-005  0.2881121E+04  0.7818608E-02  0.8278517E-01
          2   -1    0    0  501    0  0.00000000000E+00  0.00000000000E+00  0.31438169253E+04  0.31438169253E+04  0.00000000000E+00 0.  1.
         -2   -1    0    0    0  501 -0.00000000000E+00 -0.00000000000E+00 -0.66009380188E+03  0.66009380188E+03  0.00000000000E+00 0. -1.
         23    2    1    2    0    0  0.13640474571E+04 -0.30922315696E+03  0.79652632911E+03  0.16123639107E+04  0.94967160859E+02 0.  0.
         13    1    3    3    0    0  0.28927996106E+03 -0.32393097398E+02  0.14181019842E+03  0.32379367042E+03  0.00000000000E+00 0.  1.
        -13    1    3    3    0    0  0.10747674960E+04 -0.27683005957E+03  0.65471613070E+03  0.12885702403E+04  0.00000000000E+00 0. -1.
         22    1    1    2    0    0 -0.13640474571E+04  0.30922315696E+03  0.16871967943E+04  0.21915468164E+04  0.00000000000E+00 0.  1.
<mgrwt>
<rscale>  0 0.28811207E+04</rscale>
<asrwt>0</asrwt>
<pdfrwt beam="1">  1        2 0.48366413E+00 0.28811207E+04</pdfrwt>
<pdfrwt beam="2">  1       -2 0.10155289E+00 0.28811207E+04</pdfrwt>
<totfact> 0.97022685E-01</totfact>
</mgrwt>
</event>
<event>
 6    1  0.2325157E-005  0.2231007E+04  0.7818608E-02  0.8505632E-01
         -2   -1    0    0    0  501 -0.00000000000E+00  0.00000000000E+00  0.55491220574E+03  0.55491220574E+03  0.00000000000E+00 0. -1.
          2   -1    0    0  501    0  0.00000000000E+00 -0.00000000000E+00 -0.22424236717E+04  0.22424236717E+04  0.00000000000E+00 0.  1.
         23    2    1    2    0    0  0.64179973515E+03  0.69978140140E+03 -0.15747600142E+04  0.18411383039E+04  0.91215360745E+02 0.  0.
         11    1    3    3    0    0  0.42199417999E+03  0.39468612650E+03 -0.94331921135E+03  0.11062130721E+04  0.00000000000E+00 0.  1.
        -11    1    3    3    0    0  0.21980555516E+03  0.30509527490E+03 -0.63144080287E+03  0.73492523183E+03  0.00000000000E+00 0. -1.
         22    1    1    2    0    0 -0.64179973515E+03 -0.69978140140E+03 -0.11275145178E+03  0.95619757355E+03  0.00000000000E+00 0. -1.
<mgrwt>
<rscale>  0 0.22310072E+04</rscale>
<asrwt>0</asrwt>
<pdfrwt beam="1">  1        2 0.34498826E+00 0.22310072E+04</pdfrwt>
<pdfrwt beam="2">  1       -2 0.85371109E-01 0.22310072E+04</pdfrwt>
<totfact> 0.53149266E+00</totfact>
</mgrwt>
</event>
<event>
 6    1  0.2325157E-005  0.1659941E+04  0.7818608E-02  0.8784547E-01
         -1   -1    0    0    0  501 -0.00000000000E+00  0.00000000000E+00  0.33147241694E+03  0.33147241694E+03  0.00000000000E+00 0. -1.
          1   -1    0    0  501    0  0.00000000000E+00 -0.00000000000E+00 -0.20781546322E+04  0.20781546322E+04  0.00000000000E+00 0.  1.
         23    2    1    2    0    0 -0.49706283386E+03  0.53664352989E+03 -0.14377112574E+04  0.16155736556E+04  0.89480936499E+02 0.  0.
         11    1    3    3    0    0 -0.32932261020E+03  0.40060806090E+03 -0.95413732159E+03  0.10859641930E+04  0.00000000000E+00 0. -1.
        -11    1    3    3    0    0 -0.16774022366E+03  0.13603546899E+03 -0.48357393583E+03  0.52960946260E+03  0.00000000000E+00 0.  1.
         22    1    1    2    0    0  0.49706283386E+03 -0.53664352989E+03 -0.30897095781E+03  0.79405339351E+03  0.00000000000E+00 0. -1.
<mgrwt>
<rscale>  0 0.16599409E+04</rscale>
<asrwt>0</asrwt>
<pdfrwt beam="1">  1        1 0.31971610E+00 0.16599409E+04</pdfrwt>
<pdfrwt beam="2">  1       -1 0.50995756E-01 0.16599409E+04</pdfrwt>
<totfact> 0.97375520E+00</totfact>
</mgrwt>
</event>
<event>
 6    1  0.2325157E-005  0.1476230E+04  0.7818608E-02  0.8900415E-01
         -2   -1    0    0    0  501 -0.00000000000E+00  0.00000000000E+00  0.25029230900E+03  0.25029230900E+03  0.00000000000E+00 0. -1.
          2   -1    0    0  501    0  0.00000000000E+00 -0.00000000000E+00 -0.21767113310E+04  0.21767113310E+04  0.00000000000E+00 0.  1.
         23    2    1    2    0    0  0.51571860422E+03  0.30130350247E+03 -0.26075549009E+03  0.65748831628E+03  0.86879117736E+02 0.  0.
         11    1    3    3    0    0  0.23553074977E+03  0.10147464992E+03 -0.79335602418E+02  0.26845106905E+03  0.00000000000E+00 0. -1.
        -11    1    3    3    0    0  0.28018785445E+03  0.19982885254E+03 -0.18141988767E+03  0.38903724723E+03  0.00000000000E+00 0.  1.
         22    1    1    2    0    0 -0.51571860422E+03 -0.30130350247E+03 -0.16656635319E+04  0.17695153237E+04  0.00000000000E+00 0.  1.
<mgrwt>
<rscale>  0 0.14762305E+04</rscale>
<asrwt>0</asrwt>
<pdfrwt beam="1">  1        2 0.33487866E+00 0.14762305E+04</pdfrwt>
<pdfrwt beam="2">  1       -2 0.38506510E-01 0.14762305E+04</pdfrwt>
<totfact> 0.32852054E+01</totfact>
</mgrwt>
</event>
<event>
 6    1  0.2325157E-005  0.3349455E+04  0.7818608E-02  0.8150424E-01
         -2   -1    0    0    0  501 -0.00000000000E+00  0.00000000000E+00  0.71124868228E+03  0.71124868228E+03  0.00000000000E+00 0. -1.
          2   -1    0    0  501    0  0.00000000000E+00 -0.00000000000E+00 -0.39433641116E+04  0.39433641116E+04  0.00000000000E+00 0.  1.
         23    2    1    2    0    0  0.13530510810E+04  0.61338314886E+03 -0.26878373642E+04  0.30724545441E+04  0.92309881032E+02 0.  0.
         11    1    3    3    0    0  0.52597082639E+03  0.27098868586E+03 -0.99982539291E+03  0.11617792365E+04  0.00000000000E+00 0.  1.
        -11    1    3    3    0    0  0.82708025464E+03  0.34239446299E+03 -0.16880119713E+04  0.19106753076E+04  0.00000000000E+00 0. -1.
         22    1    1    2    0    0 -0.13530510810E+04 -0.61338314886E+03 -0.54427806516E+03  0.15821582498E+04  0.00000000000E+00 0. -1.
<mgrwt>
<rscale>  0 0.33494552E+04</rscale>
<asrwt>0</asrwt>
<pdfrwt beam="1">  1        2 0.60667141E+00 0.33494552E+04</pdfrwt>
<pdfrwt beam="2">  1       -2 0.10942287E+00 0.33494552E+04</pdfrwt>
<totfact> 0.20983481E-01</totfact>
</mgrwt>
</event>
<event>
 6    1  0.2325157E-005  0.2771822E+04  0.7818608E-02  0.8312070E-01
          2   -1    0    0  501    0  0.00000000000E+00  0.00000000000E+00  0.39404866781E+04  0.39404866781E+04  0.00000000000E+00 0.  1.
         -2   -1    0    0    0  501 -0.00000000000E+00 -0.00000000000E+00 -0.48743978453E+03  0.48743978453E+03  0.00000000000E+00 0. -1.
         23    2    1    2    0    0  0.13824938483E+04  0.34056818531E+01  0.18445418233E+04  0.23069386267E+04  0.91271299989E+02 0.  0.
         13    1    3    3    0    0  0.96301839975E+03  0.41690823646E+02  0.13078940742E+04  0.16247244297E+04  0.00000000000E+00 0.  1.
        -13    1    3    3    0    0  0.41947544852E+03 -0.38285141793E+02  0.53664774910E+03  0.68221419701E+03  0.00000000000E+00 0. -1.
         22    1    1    2    0    0 -0.13824938483E+04 -0.34056818531E+01  0.16085050703E+04  0.21209878360E+04  0.00000000000E+00 0. -1.
<mgrwt>
<rscale>  0 0.27718225E+04</rscale>
<asrwt>0</asrwt>
<pdfrwt beam="1">  1        2 0.60622870E+00 0.27718225E+04</pdfrwt>
<pdfrwt beam="2">  1       -2 0.74990739E-01 0.27718225E+04</pdfrwt>
<totfact> 0.53241075E-01</totfact>
</mgrwt>
</event>
<event>
 6    1  0.2325157E-005  0.2294625E+04  0.7818608E-02  0.8480044E-01
         -2   -1    0    0    0  501 -0.00000000000E+00  0.00000000000E+00  0.80413381761E+03  0.80413381761E+03  0.00000000000E+00 0. -1.
          2   -1    0    0  501    0  0.00000000000E+00 -0.00000000000E+00 -0.16369482211E+04  0.16369482211E+04  0.00000000000E+00 0.  1.
         23    2    1    2    0    0  0.11266362058E+04  0.19955768576E+03 -0.47771115929E+03  0.12430708851E+04  0.88796754109E+02 0.  0.
         13    1    3    3    0    0  0.42772465385E+03  0.11114991929E+03 -0.15657974700E+03  0.46884955075E+03  0.00000000000E+00 0.  1.
        -13    1    3    3    0    0  0.69891155195E+03  0.88407766473E+02 -0.32113141229E+03  0.77422133436E+03  0.00000000000E+00 0. -1.
         22    1    1    2    0    0 -0.11266362058E+04 -0.19955768576E+03 -0.35510324422E+03  0.11980111536E+04  0.00000000000E+00 0. -1.
<mgrwt>
<rscale>  0 0.22946245E+04</rscale>
<asrwt>0</asrwt>
<pdfrwt beam="1">  1        2 0.25183819E+00 0.22946245E+04</pdfrwt>
<pdfrwt beam="2">  1       -2 0.12371290E+00 0.22946245E+04</pdfrwt>
<totfact> 0.47469120E+00</totfact>
</mgrwt>
</event>
<event>
 6    1  0.2325157E-005  0.1453450E+04  0.7818608E-02  0.8916012E-01
         -2   -1    0    0    0  501 -0.00000000000E+00  0.00000000000E+00  0.72427884804E+03  0.72427884804E+03  0.00000000000E+00 0. -1.
          2   -1    0    0  501    0  0.00000000000E+00 -0.00000000000E+00 -0.72917939257E+03  0.72917939257E+03  0.00000000000E+00 0.  1.
         23    2    1    2    0    0 -0.57091033929E+03 -0.38956416233E+03 -0.21755245050E+03  0.73032638182E+03  0.91371238302E+02 0.  0.
         11    1    3    3    0    0 -0.26682211637E+03 -0.22362614491E+03 -0.14062323078E+03  0.37546982237E+03  0.00000000000E+00 0. -1.
        -11    1    3    3    0    0 -0.30408822292E+03 -0.16593801742E+03 -0.76929219714E+02  0.35485655945E+03  0.00000000000E+00 0.  1.
         22    1    1    2    0    0  0.57091033929E+03  0.38956416233E+03  0.21265190598E+03  0.72313185879E+03  0.00000000000E+00 0. -1.
<mgrwt>
<rscale>  0 0.14534500E+04</rscale>
<asrwt>0</asrwt>
<pdfrwt beam="1">  1        2 0.11218144E+00 0.14534500E+04</pdfrwt>
<pdfrwt beam="2">  1       -2 0.11142752E+00 0.14534500E+04</pdfrwt>
<totfact> 0.24011058E+01</totfact>
</mgrwt>
</event>
<event>
 6    1  0.2325157E-005  0.2488621E+04  0.7818608E-02  0.8407051E-01
          2   -1    0    0  501    0  0.00000000000E+00  0.00000000000E+00  0.37912760182E+04  0.37912760182E+04  0.00000000000E+00 0. -1.
         -2   -1    0    0    0  501 -0.00000000000E+00 -0.00000000000E+00 -0.40838707551E+03  0.40838707551E+03  0.00000000000E+00 0.  1.
         23    2    1    2    0    0  0.96892467342E+03 -0.10183738244E+03  0.29950196198E+04  0.31510313724E+04  0.98337742747E+02 0.  0.
         11    1    3    3    0    0  0.49991081256E+03 -0.23646269928E+02  0.16639086538E+04  0.17375448123E+04  0.00000000000E+00 0. -1.
        -11    1    3    3    0    0  0.46901386086E+03 -0.78191112513E+02  0.13311109660E+04  0.14134865601E+04  0.00000000000E+00 0.  1.
         22    1    1    2    0    0 -0.96892467342E+03  0.10183738244E+03  0.38786932284E+03  0.10486317213E+04  0.00000000000E+00 0.  1.
<mgrwt>
<rscale>  0 0.24886206E+04</rscale>
<asrwt>0</asrwt>
<pdfrwt beam="1">  1        2 0.58327321E+00 0.24886206E+04</pdfrwt>
<pdfrwt beam="2">  1       -2 0.62828783E-01 0.24886206E+04</pdfrwt>
<totfact> 0.10480061E+00</totfact>
</mgrwt>
</event>
<event>
 6    1  0.2325157E-005  0.4835214E+03  0.7818608E-02  0.1018172E+00
          2   -1    0    0  501    0  0.00000000000E+00  0.00000000000E+00  0.15881142980E+03  0.15881142980E+03  0.00000000000E+00 0.  1.
         -2   -1    0    0    0  501 -0.00000000000E+00 -0.00000000000E+00 -0.36803548028E+03  0.36803548028E+03  0.00000000000E+00 0. -1.
         23    2    1    2    0    0 -0.16693860264E+03  0.55116839178E+02  0.57434633952E+02  0.20745183028E+03  0.93974260833E+02 0.  0.
         13    1    3    3    0    0 -0.54905807337E+02 -0.22946573175E+02  0.50016095098E+00  0.59510024876E+02  0.00000000000E+00 0.  1.
        -13    1    3    3    0    0 -0.11203279530E+03  0.78063412353E+02  0.56934473001E+02  0.14794180541E+03  0.00000000000E+00 0. -1.
         22    1    1    2    0    0  0.16693860264E+03 -0.55116839178E+02 -0.26665868444E+03  0.31939507980E+03  0.00000000000E+00 0. -1.
<mgrwt>
<rscale>  0 0.48352142E+03</rscale>
<asrwt>0</asrwt>
<pdfrwt beam="1">  1        2 0.24432528E-01 0.48352142E+03</pdfrwt>
<pdfrwt beam="2">  1       -2 0.56620843E-01 0.48352142E+03</pdfrwt>
<totfact> 0.66238820E+02</totfact>
</mgrwt>
</event>
<event>
 6    1  0.2325157E-005  0.1866375E+04  0.7818608E-02  0.8671777E-01
          2   -1    0    0  501    0  0.00000000000E+00  0.00000000000E+00  0.14047870988E+04  0.14047870988E+04  0.00000000000E+00 0.  1.
         -2   -1    0    0    0  501 -0.00000000000E+00 -0.00000000000E+00 -0.61990817468E+03  0.61990817468E+03  0.00000000000E+00 0. -1.
         23    2    1    2    0    0  0.76631842928E+03 -0.52033199755E+03  0.49605497754E+03  0.10544331466E+04  0.88144183801E+02 0.  0.
         13    1    3    3    0    0  0.74680367855E+02 -0.71521679865E+02  0.81042566567E+02  0.13137886295E+03  0.00000000000E+00 0.  1.
        -13    1    3    3    0    0  0.69163806143E+03 -0.44881031768E+03  0.41501241098E+03  0.92305428363E+03  0.00000000000E+00 0. -1.
         22    1    1    2    0    0 -0.76631842928E+03  0.52033199755E+03  0.28882394655E+03  0.97026212687E+03  0.00000000000E+00 0. -1.
<mgrwt>
<rscale>  0 0.18663751E+04</rscale>
<asrwt>0</asrwt>
<pdfrwt beam="1">  1        2 0.21612109E+00 0.18663751E+04</pdfrwt>
<pdfrwt beam="2">  1       -2 0.95370489E-01 0.18663751E+04</pdfrwt>
<totfact> 0.12472720E+01</totfact>
</mgrwt>
</event>
<event>
 6    1  0.2325157E-005  0.3723333E+04  0.7818608E-02  0.8062811E-01
         -2   -1    0    0    0  501 -0.00000000000E+00  0.00000000000E+00  0.10921923735E+04  0.10921923735E+04  0.00000000000E+00 0. -1.
          2   -1    0    0  501    0  0.00000000000E+00 -0.00000000000E+00 -0.31732521106E+04  0.31732521106E+04  0.00000000000E+00 0.  1.
         23    2    1    2    0    0 -0.52984505345E+03  0.14664875517E+04  0.12157560719E+03  0.15667551763E+04  0.92841985429E+02 0.  0.
         13    1    3    3    0    0 -0.39400151985E+02  0.18756986354E+03  0.28926510614E+00  0.19166353164E+03  0.00000000000E+00 0.  1.
        -13    1    3    3    0    0 -0.49044490147E+03  0.12789176881E+04  0.12128634209E+03  0.13750916446E+04  0.00000000000E+00 0. -1.
         22    1    1    2    0    0  0.52984505345E+03 -0.14664875517E+04 -0.22026353443E+04  0.26986893077E+04  0.00000000000E+00 0.  1.
<mgrwt>
<rscale>  0 0.37233328E+04</rscale>
<asrwt>0</asrwt>
<pdfrwt beam="1">  1        2 0.48819263E+00 0.37233328E+04</pdfrwt>
<pdfrwt beam="2">  1       -2 0.16802960E+00 0.37233328E+04</pdfrwt>
<totfact> 0.23954128E-01</totfact>
</mgrwt>
</event>
<event>
 6    1  0.2325157E-005  0.2452776E+04  0.7818608E-02  0.8420005E-01
         -2   -1    0    0    0  501 -0.00000000000E+00  0.00000000000E+00  0.63483597378E+03  0.63483597378E+03  0.00000000000E+00 0. -1.
          2   -1    0    0  501    0  0.00000000000E+00 -0.00000000000E+00 -0.23691584109E+04  0.23691584109E+04  0.00000000000E+00 0.  1.
         23    2    1    2    0    0  0.33479596506E+03  0.75110484388E+03 -0.19791343696E+04  0.21459852315E+04  0.10969474077E+03 0.  0.
         11    1    3    3    0    0  0.23506520383E+03  0.55632502514E+03 -0.13232567002E+04  0.14545657353E+04  0.00000000000E+00 0.  1.
        -11    1    3    3    0    0  0.99730761238E+02  0.19477981874E+03 -0.65587766935E+03  0.69141949616E+03  0.00000000000E+00 0. -1.
         22    1    1    2    0    0 -0.33479596506E+03 -0.75110484388E+03  0.24481193244E+03  0.85800915321E+03  0.00000000000E+00 0. -1.
<mgrwt>
<rscale>  0 0.24527756E+04</rscale>
<asrwt>0</asrwt>
<pdfrwt beam="1">  1        2 0.36448591E+00 0.24527756E+04</pdfrwt>
<pdfrwt beam="2">  1       -2 0.97667073E-01 0.24527756E+04</pdfrwt>
<totfact> 0.32372076E+00</totfact>
</mgrwt>
</event>
<event>
 6    1  0.2325157E-005  0.3635269E+04  0.7818608E-02  0.8082460E-01
          2   -1    0    0  501    0  0.00000000000E+00  0.00000000000E+00  0.14823400328E+04  0.14823400328E+04  0.00000000000E+00 0.  1.
         -2   -1    0    0    0  501 -0.00000000000E+00 -0.00000000000E+00 -0.22287699851E+04  0.22287699851E+04  0.00000000000E+00 0. -1.
         23    2    1    2    0    0 -0.23818395003E+02 -0.83914793235E+03 -0.20179668235E+04  0.21874491031E+04  0.89481338090E+02 0.  0.
         13    1    3    3    0    0  0.16940557129E+02 -0.59523051257E+03 -0.13655905366E+04  0.14897730899E+04  0.00000000000E+00 0.  1.
        -13    1    3    3    0    0 -0.40758952131E+02 -0.24391741978E+03 -0.65237628682E+03  0.69767601325E+03  0.00000000000E+00 0. -1.
         22    1    1    2    0    0  0.23818395003E+02  0.83914793235E+03  0.12715368712E+04  0.15236609148E+04  0.00000000000E+00 0.  1.
<mgrwt>
<rscale>  0 0.36352689E+04</rscale>
<asrwt>0</asrwt>
<pdfrwt beam="1">  1        2 0.22805231E+00 0.36352689E+04</pdfrwt>
<pdfrwt beam="2">  1       -2 0.34288769E+00 0.36352689E+04</pdfrwt>
<totfact> 0.18199713E-01</totfact>
</mgrwt>
</event>
<event>
 6    1  0.2325157E-005  0.3118847E+04  0.7818608E-02  0.8210584E-01
         -2   -1    0    0    0  501 -0.00000000000E+00  0.00000000000E+00  0.22099142854E+04  0.22099142854E+04  0.00000000000E+00 0. -1.
          2   -1    0    0  501    0  0.00000000000E+00 -0.00000000000E+00 -0.11004054778E+04  0.11004054778E+04  0.00000000000E+00 0.  1.
         23    2    1    2    0    0  0.53659062506E+03  0.10235970118E+04  0.16644584084E+04  0.20282708558E+04  0.88207310138E+02 0.  0.
         13    1    3    3    0    0  0.27614177350E+03  0.62029723803E+03  0.97734170032E+03  0.11900503106E+04  0.00000000000E+00 0.  1.
        -13    1    3    3    0    0  0.26044885156E+03  0.40329977377E+03  0.68711670812E+03  0.83822054519E+03  0.00000000000E+00 0. -1.
         22    1    1    2    0    0 -0.53659062506E+03 -0.10235970118E+04 -0.55494960085E+03  0.12820489074E+04  0.00000000000E+00 0.  1.
<mgrwt>
<rscale>  0 0.31188471E+04</rscale>
<asrwt>0</asrwt>
<pdfrwt beam="1">  1        2 0.16929315E+00 0.31188471E+04</pdfrwt>
<pdfrwt beam="2">  1       -2 0.33998681E+00 0.31188471E+04</pdfrwt>
<totfact> 0.33185163E-01</totfact>
</mgrwt>
</event>
<event>
 6    1  0.2325157E-005  0.5319538E+03  0.7818608E-02  0.1005759E+00
          2   -1    0    0  501    0  0.00000000000E+00  0.00000000000E+00  0.28776369350E+03  0.28776369350E+03  0.00000000000E+00 0.  1.
         -2   -1    0    0    0  501 -0.00000000000E+00 -0.00000000000E+00 -0.24583962042E+03  0.24583962042E+03  0.00000000000E+00 0. -1.
         23    2    1    2    0    0  0.12757200466E+03 -0.47493036063E+01 -0.20366863218E+03  0.25681287129E+03  0.90414417384E+02 0.  0.
         13    1    3    3    0    0 -0.59713553481E+01  0.76393181083E+01 -0.58005030673E+02  0.58809861836E+02  0.00000000000E+00 0. -1.
        -13    1    3    3    0    0  0.13354336001E+03 -0.12388621715E+02 -0.14566360150E+03  0.19800300946E+03  0.00000000000E+00 0.  1.
         22    1    1    2    0    0 -0.12757200466E+03  0.47493036063E+01  0.24559270525E+03  0.27679044263E+03  0.00000000000E+00 0.  1.
<mgrwt>
<rscale>  0 0.53195382E+03</rscale>
<asrwt>0</asrwt>
<pdfrwt beam="1">  1        2 0.44271337E-01 0.53195382E+03</pdfrwt>
<pdfrwt beam="2">  1       -2 0.37821480E-01 0.53195382E+03</pdfrwt>
<totfact> 0.76232905E+02</totfact>
</mgrwt>
</event>
<event>
 6    1  0.2325157E-005  0.1728607E+04  0.7818608E-02  0.8745215E-01
         -2   -1    0    0    0  501 -0.00000000000E+00  0.00000000000E+00  0.52106098494E+03  0.52106098494E+03  0.00000000000E+00 0. -1.
          2   -1    0    0  501    0  0.00000000000E+00 -0.00000000000E+00 -0.14336528016E+04  0.14336528016E+04  0.00000000000E+00 0.  1.
         23    2    1    2    0    0 -0.80999816757E+03 -0.93388820950E+02 -0.14186597132E+03  0.83273480632E+03  0.92210631126E+02 0.  0.
         11    1    3    3    0    0 -0.23714654617E+03  0.14634888509E+02 -0.38712921770E+02  0.24073087595E+03  0.00000000000E+00 0.  1.
        -11    1    3    3    0    0 -0.57285162140E+03 -0.10802370946E+03 -0.10315304955E+03  0.59200393037E+03  0.00000000000E+00 0. -1.
         22    1    1    2    0    0  0.80999816757E+03  0.93388820950E+02 -0.77072584531E+03  0.11219789802E+04  0.00000000000E+00 0.  1.
<mgrwt>
<rscale>  0 0.17286070E+04</rscale>
<asrwt>0</asrwt>
<pdfrwt beam="1">  1        2 0.22056197E+00 0.17286070E+04</pdfrwt>
<pdfrwt beam="2">  1       -2 0.80163230E-01 0.17286070E+04</pdfrwt>
<totfact> 0.18085303E+01</totfact>
</mgrwt>
</event>
<event>
 6    1  0.2325157E-005  0.3120379E+04  0.7818608E-02  0.8210167E-01
          2   -1    0    0  501    0  0.00000000000E+00  0.00000000000E+00  0.20714795463E+04  0.20714795463E+04  0.00000000000E+00 0.  1.
         -2   -1    0    0    0  501 -0.00000000000E+00 -0.00000000000E+00 -0.11750978511E+04  0.11750978511E+04  0.00000000000E+00 0. -1.
         23    2    1    2    0    0  0.25693844432E+03 -0.75731519543E+03 -0.94359559548E+03  0.12403221545E+04  0.92101735753E+02 0.  0.
         13    1    3    3    0    0  0.17431647985E+03 -0.38540143485E+03 -0.46506374668E+03  0.62865315525E+03  0.00000000000E+00 0. -1.
        -13    1    3    3    0    0  0.82621964467E+02 -0.37191376058E+03 -0.47853184881E+03  0.61166899925E+03  0.00000000000E+00 0.  1.
         22    1    1    2    0    0 -0.25693844432E+03  0.75731519543E+03  0.18399772907E+04  0.20062552429E+04  0.00000000000E+00 0.  1.
<mgrwt>
<rscale>  0 0.31203789E+04</rscale>
<asrwt>0</asrwt>
<pdfrwt beam="1">  1        2 0.31868916E+00 0.31203789E+04</pdfrwt>
<pdfrwt beam="2">  1       -2 0.18078428E+00 0.31203789E+04</pdfrwt>
<totfact> 0.92527148E-01</totfact>
</mgrwt>
</event>
<event>
 6    1  0.2325157E-005  0.4427111E+04  0.7818608E-02  0.7923523E-01
         -2   -1    0    0    0  501 -0.00000000000E+00  0.00000000000E+00  0.13000627500E+04  0.13000627500E+04  0.00000000000E+00 0. -1.
          2   -1    0    0  501    0  0.00000000000E+00 -0.00000000000E+00 -0.37689171306E+04  0.37689171306E+04  0.00000000000E+00 0.  1.
         23    2    1    2    0    0 -0.69111994014E+03  0.15951327375E+04 -0.28021983027E+04  0.32988913540E+04  0.90959418203E+02 0.  0.
         11    1    3    3    0    0 -0.19287013836E+03  0.54979167157E+03 -0.91805215797E+03  0.10873313833E+04  0.00000000000E+00 0. -1.
        -11    1    3    3    0    0 -0.49824980178E+03  0.10453410659E+04 -0.18841461447E+04  0.22115599707E+04  0.00000000000E+00 0.  1.
         22    1    1    2    0    0  0.69111994014E+03 -0.15951327375E+04  0.33334392209E+03  0.17700885267E+04  0.00000000000E+00 0. -1.
<mgrwt>
<rscale>  0 0.44271114E+04</rscale>
<asrwt>0</asrwt>
<pdfrwt beam="1">  1        2 0.57983340E+00 0.44271114E+04</pdfrwt>
<pdfrwt beam="2">  1       -2 0.20000965E+00 0.44271114E+04</pdfrwt>
<totfact> 0.52394987E-02</totfact>
</mgrwt>
</event>
<event>
 6    1  0.2325157E-005  0.2387535E+04  0.7818608E-02  0.8444185E-01
          4   -1    0    0  501    0  0.00000000000E+00  0.00000000000E+00  0.19949498328E+04  0.19949498328E+04  0.00000000000E+00 0.  1.
         -4   -1    0    0    0  501 -0.00000000000E+00 -0.00000000000E+00 -0.71434401501E+03  0.71434401501E+03  0.00000000000E+00 0. -1.
         23    2    1    2    0    0  0.70527689051E+02  0.62739062640E+03  0.17886120862E+04  0.18989460696E+04  0.90938591031E+02 0.  0.
         11    1    3    3    0    0 -0.18525887386E+02  0.18834688037E+03  0.57010211457E+03  0.60069474518E+03  0.00000000000E+00 0. -1.
        -11    1    3    3    0    0  0.89053576437E+02  0.43904374603E+03  0.12185099716E+04  0.12982513244E+04  0.00000000000E+00 0.  1.
         22    1    1    2    0    0 -0.70527689051E+02 -0.62739062640E+03 -0.50800626837E+03  0.81034777825E+03  0.00000000000E+00 0. -1.
<mgrwt>
<rscale>  0 0.23875347E+04</rscale>
<asrwt>0</asrwt>
<pdfrwt beam="1">  1        4 0.30691536E+00 0.23875347E+04</pdfrwt>
<pdfrwt beam="2">  1       -4 0.10989908E+00 0.23875347E+04</pdfrwt>
<totfact> 0.33037343E-02</totfact>
</mgrwt>
</event>
<event>
 6    1  0.2325157E-005  0.1588772E+04  0.7818608E-02  0.8827475E-01
          2   -1    0    0  501    0  0.00000000000E+00  0.00000000000E+00  0.95790031802E+03  0.95790031802E+03  0.00000000000E+00 0.  1.
         -2   -1    0    0    0  501 -0.00000000000E+00 -0.00000000000E+00 -0.65878410377E+03  0.65878410377E+03  0.00000000000E+00 0. -1.
         23    2    1    2    0    0  0.45220102449E+03 -0.23273871589E+03 -0.46758449324E+03  0.69663928632E+03  0.89543065054E+02 0.  0.
         13    1    3    3    0    0  0.23019012299E+03 -0.16450331554E+03 -0.28041839455E+03  0.39835073684E+03  0.00000000000E+00 0.  1.
        -13    1    3    3    0    0  0.22201090150E+03 -0.68235400352E+02 -0.18716609870E+03  0.29828854948E+03  0.00000000000E+00 0. -1.
         22    1    1    2    0    0 -0.45220102449E+03  0.23273871589E+03  0.76670070750E+03  0.92004513547E+03  0.00000000000E+00 0.  1.
<mgrwt>
<rscale>  0 0.15887725E+04</rscale>
<asrwt>0</asrwt>
<pdfrwt beam="1">  1        2 0.14736928E+00 0.15887725E+04</pdfrwt>
<pdfrwt beam="2">  1       -2 0.10135140E+00 0.15887725E+04</pdfrwt>
<totfact> 0.20602375E+01</totfact>
</mgrwt>
</event>
<event>
 6    1  0.2325157E-005  0.2443314E+04  0.7818608E-02  0.8423463E-01
         -2   -1    0    0    0  501 -0.00000000000E+00  0.00000000000E+00  0.44660998902E+03  0.44660998902E+03  0.00000000000E+00 0. -1.
          2   -1    0    0  501    0  0.00000000000E+00 -0.00000000000E+00 -0.33417210276E+04  0.33417210276E+04  0.00000000000E+00 0.  1.
         23    2    1    2    0    0 -0.10943286971E+04 -0.48789103721E+03 -0.10961299172E+04  0.16268671523E+04  0.97994766798E+02 0.  0.
         13    1    3    3    0    0 -0.66313525742E+03 -0.33839954840E+03 -0.64251864578E+03  0.98340878284E+03  0.00000000000E+00 0. -1.
        -13    1    3    3    0    0 -0.43119343973E+03 -0.14949148881E+03 -0.45361127146E+03  0.64345836950E+03  0.00000000000E+00 0.  1.
         22    1    1    2    0    0  0.10943286971E+04  0.48789103721E+03 -0.17989811213E+04  0.21614638642E+04  0.00000000000E+00 0.  1.
<mgrwt>
<rscale>  0 0.24433141E+04</rscale>
<asrwt>0</asrwt>
<pdfrwt beam="1">  1        2 0.51411090E+00 0.24433141E+04</pdfrwt>
<pdfrwt beam="2">  1       -2 0.68709233E-01 0.24433141E+04</pdfrwt>
<totfact> 0.18136729E+00</totfact>
</mgrwt>
</event>
<event>
 6    1  0.2325157E-005  0.2474268E+04  0.7818608E-02  0.8412211E-01
         -2   -1    0    0    0  501 -0.00000000000E+00  0.00000000000E+00  0.14863015317E+04  0.14863015317E+04  0.00000000000E+00 0. -1.
          2   -1    0    0  501    0  0.00000000000E+00 -0.00000000000E+00 -0.10297372664E+04  0.10297372664E+04  0.00000000000E+00 0.  1.
         23    2    1    2    0    0 -0.94874742210E+03  0.30232814081E+03  0.97250772716E+03  0.13945569072E+04  0.86566231722E+02 0.  0.
         11    1    3    3    0    0 -0.28680253554E+03  0.74601900324E+02  0.23995703226E+03  0.38131419493E+03  0.00000000000E+00 0. -1.
        -11    1    3    3    0    0 -0.66194488656E+03  0.22772624049E+03  0.73255069490E+03  0.10132427123E+04  0.00000000000E+00 0.  1.
         22    1    1    2    0    0  0.94874742210E+03 -0.30232814081E+03 -0.51594346187E+03  0.11214818909E+04  0.00000000000E+00 0.  1.
<mgrwt>
<rscale>  0 0.24742676E+04</rscale>
<asrwt>0</asrwt>
<pdfrwt beam="1">  1        2 0.15842112E+00 0.24742676E+04</pdfrwt>
<pdfrwt beam="2">  1       -2 0.22866177E+00 0.24742676E+04</pdfrwt>
<totfact> 0.18780009E+00</totfact>
</mgrwt>
</event>
<event>
 6    1  0.2325157E-005  0.2626184E+04  0.7818608E-02  0.8359361E-01
          2   -1    0    0  501    0  0.00000000000E+00  0.00000000000E+00  0.13443740564E+04  0.13443740564E+04  0.00000000000E+00 0.  1.
         -2   -1    0    0    0  501 -0.00000000000E+00 -0.00000000000E+00 -0.12825382464E+04  0.12825382464E+04  0.00000000000E+00 0. -1.
         23    2    1    2    0    0  0.65481823750E+03 -0.39614576884E+03  0.10957703192E+04  0.13405457284E+04  0.10311092671E+03 0.  0.
         13    1    3    3    0    0  0.44333446867E+03 -0.22320892530E+03  0.75920766562E+03  0.90706336878E+03  0.00000000000E+00 0.  1.
        -13    1    3    3    0    0  0.21148376883E+03 -0.17293684354E+03  0.33656265355E+03  0.43348235961E+03  0.00000000000E+00 0. -1.
         22    1    1    2    0    0 -0.65481823750E+03  0.39614576884E+03 -0.10339345092E+04  0.12863665743E+04  0.00000000000E+00 0. -1.
<mgrwt>
<rscale>  0 0.26261844E+04</rscale>
<asrwt>0</asrwt>
<pdfrwt beam="1">  1        2 0.20682678E+00 0.26261844E+04</pdfrwt>
<pdfrwt beam="2">  1       -2 0.19731358E+00 0.26261844E+04</pdfrwt>
<totfact> 0.19050091E+00</totfact>
</mgrwt>
</event>
<event>
 6    1  0.2325157E-005  0.3018377E+04  0.7818608E-02  0.8238503E-01
         -2   -1    0    0    0  501 -0.00000000000E+00  0.00000000000E+00  0.14622564799E+04  0.14622564799E+04  0.00000000000E+00 0. -1.
          2   -1    0    0  501    0  0.00000000000E+00 -0.00000000000E+00 -0.15576266052E+04  0.15576266052E+04  0.00000000000E+00 0.  1.
         23    2    1    2    0    0  0.12384909937E+04 -0.54668705270E+03 -0.71171755723E+03  0.15323983518E+04  0.94742557181E+02 0.  0.
         13    1    3    3    0    0  0.18187323680E+03 -0.11814859876E+03 -0.11403394414E+03  0.24503205111E+03  0.00000000000E+00 0. -1.
        -13    1    3    3    0    0  0.10566177569E+04 -0.42853845393E+03 -0.59768361310E+03  0.12873663007E+04  0.00000000000E+00 0.  1.
         22    1    1    2    0    0 -0.12384909937E+04  0.54668705270E+03  0.61634743188E+03  0.14874847333E+04  0.00000000000E+00 0. -1.
<mgrwt>
<rscale>  0 0.30183768E+04</rscale>
<asrwt>0</asrwt>
<pdfrwt beam="1">  1        2 0.23963486E+00 0.30183768E+04</pdfrwt>
<pdfrwt beam="2">  1       -2 0.22496254E+00 0.30183768E+04</pdfrwt>
<totfact> 0.92585974E-01</totfact>
</mgrwt>
</event>
<event>
 6    1  0.2325157E-005  0.3052667E+04  0.7818608E-02  0.8228849E-01
         -2   -1    0    0    0  501 -0.00000000000E+00  0.00000000000E+00  0.13228819591E+04  0.13228819591E+04  0.00000000000E+00 0. -1.
          2   -1    0    0  501    0  0.00000000000E+00 -0.00000000000E+00 -0.17610745343E+04  0.17610745343E+04  0.00000000000E+00 0.  1.
         23    2    1    2    0    0  0.12810229248E+04 -0.32890270572E+03 -0.98613973144E+03  0.16523689796E+04  0.93031990828E+02 0.  0.
         13    1    3    3    0    0  0.48662325549E+03 -0.17139612778E+03 -0.37668682180E+03  0.63880496798E+03  0.00000000000E+00 0. -1.
        -13    1    3    3    0    0  0.79439966929E+03 -0.15750657794E+03 -0.60945290964E+03  0.10135640117E+04  0.00000000000E+00 0.  1.
         22    1    1    2    0    0 -0.12810229248E+04  0.32890270572E+03  0.54794715622E+03  0.14315875138E+04  0.00000000000E+00 0. -1.
<mgrwt>
<rscale>  0 0.30526669E+04</rscale>
<asrwt>0</asrwt>
<pdfrwt beam="1">  1        2 0.27093454E+00 0.30526669E+04</pdfrwt>
<pdfrwt beam="2">  1       -2 0.20352030E+00 0.30526669E+04</pdfrwt>
<totfact> 0.97505108E-01</totfact>
</mgrwt>
</event>
<event>
 6    1  0.2325157E-005  0.3194177E+04  0.7818608E-02  0.8190357E-01
          2   -1    0    0  501    0  0.00000000000E+00  0.00000000000E+00  0.17305810364E+04  0.17305810364E+04  0.00000000000E+00 0.  1.
         -2   -1    0    0    0  501 -0.00000000000E+00 -0.00000000000E+00 -0.14738935814E+04  0.14738935814E+04  0.00000000000E+00 0. -1.
         23    2    1    2    0    0  0.30490540892E+03 -0.82597772206E+03  0.14636846872E+04  0.17104703259E+04  0.90163000379E+02 0.  0.
         13    1    3    3    0    0  0.13386167269E+03 -0.29105477362E+03  0.60183960070E+03  0.68179376180E+03  0.00000000000E+00 0. -1.
        -13    1    3    3    0    0  0.17104373623E+03 -0.53492294844E+03  0.86184508646E+03  0.10286765641E+04  0.00000000000E+00 0.  1.
         22    1    1    2    0    0 -0.30490540892E+03  0.82597772206E+03 -0.12069972322E+04  0.14940042919E+04  0.00000000000E+00 0. -1.
<mgrwt>
<rscale>  0 0.31941774E+04</rscale>
<asrwt>0</asrwt>
<pdfrwt beam="1">  1        2 0.26624324E+00 0.31941774E+04</pdfrwt>
<pdfrwt beam="2">  1       -2 0.22675286E+00 0.31941774E+04</pdfrwt>
<totfact> 0.71190224E-01</totfact>
</mgrwt>
</event>
<event>
 6    1  0.4314749E-005  0.2589044E+04  0.7818608E-02  0.8371932E-01
          2   -1    0    0  501    0  0.00000000000E+00  0.00000000000E+00  0.85213768637E+03  0.85213768637E+03  0.00000000000E+00 0.  1.
         -2   -1    0    0    0  501 -0.00000000000E+00 -0.00000000000E+00 -0.19665685825E+04  0.19665685825E+04  0.00000000000E+00 0. -1.
         23    2    1    2    0    0 -0.89075826102E+03 -0.40674539025E+02  0.46138079675E+03  0.10081021738E+04  0.91066214793E+02 0.  0.
         11    1    3    3    0    0 -0.31561352562E+03 -0.31339950643E+02  0.11936455233E+03  0.33888344075E+03  0.00000000000E+00 0. -1.
        -11    1    3    3    0    0 -0.57514473541E+03 -0.93345883826E+01  0.34201624442E+03  0.66921873304E+03  0.00000000000E+00 0.  1.
         22    1    1    2    0    0  0.89075826102E+03  0.40674539025E+02 -0.15758116929E+04  0.18106040951E+04  0.00000000000E+00 0. -1.
<mgrwt>
<rscale>  0 0.25890440E+04</rscale>
<asrwt>0</asrwt>
<pdfrwt beam="1">  1        2 0.13109811E+00 0.25890440E+04</pdfrwt>
<pdfrwt beam="2">  1       -2 0.30254901E+00 0.25890440E+04</pdfrwt>
<totfact> 0.85872903E-01</totfact>
</mgrwt>
</event>
<event>
 6    1  0.2325157E-005  0.1415691E+04  0.7818608E-02  0.8942538E-01
          2   -1    0    0  501    0  0.00000000000E+00  0.00000000000E+00  0.29415549613E+04  0.29415549613E+04  0.00000000000E+00 0.  1.
         -2   -1    0    0    0  501 -0.00000000000E+00 -0.00000000000E+00 -0.17033349439E+03  0.17033349439E+03  0.00000000000E+00 0. -1.
         23    2    1    2    0    0  0.31432320891E+03  0.62988800642E+03  0.13063688433E+04  0.14866650283E+04  0.89528605131E+02 0.  0.
         13    1    3    3    0    0  0.18042708866E+03  0.44338607462E+03  0.83914175554E+03  0.96607661776E+03  0.00000000000E+00 0. -1.
        -13    1    3    3    0    0  0.13389612025E+03  0.18650193179E+03  0.46722708779E+03  0.52058841050E+03  0.00000000000E+00 0.  1.
         22    1    1    2    0    0 -0.31432320891E+03 -0.62988800642E+03  0.14648526236E+04  0.16252234274E+04  0.00000000000E+00 0. -1.
<mgrwt>
<rscale>  0 0.14156911E+04</rscale>
<asrwt>0</asrwt>
<pdfrwt beam="1">  1        2 0.45254688E+00 0.14156911E+04</pdfrwt>
<pdfrwt beam="2">  1       -2 0.26205155E-01 0.14156911E+04</pdfrwt>
<totfact> 0.24437363E+01</totfact>
</mgrwt>
</event>
<event>
 6    1  0.2325157E-005  0.1040739E+04  0.7818608E-02  0.9264958E-01
         -1   -1    0    0    0  501 -0.00000000000E+00  0.00000000000E+00  0.16492640818E+03  0.16492640818E+03  0.00000000000E+00 0.  1.
          1   -1    0    0  501    0  0.00000000000E+00 -0.00000000000E+00 -0.16418488186E+04  0.16418488186E+04  0.00000000000E+00 0. -1.
         23    2    1    2    0    0 -0.66186381683E+02 -0.27448054333E+03  0.57029883242E+01  0.29750444962E+03  0.93574396518E+02 0.  0.
         11    1    3    3    0    0 -0.53340462496E+02 -0.27486354962E+03 -0.60962980187E+01  0.28005774530E+03  0.00000000000E+00 0. -1.
        -11    1    3    3    0    0 -0.12845919187E+02  0.38300629806E+00  0.11799286343E+02  0.17446704324E+02  0.00000000000E+00 0.  1.
         22    1    1    2    0    0  0.66186381683E+02  0.27448054333E+03 -0.14826253987E+04  0.15092707771E+04  0.00000000000E+00 0. -1.
<mgrwt>
<rscale>  0 0.10407386E+04</rscale>
<asrwt>0</asrwt>
<pdfrwt beam="1">  1        1 0.25259212E+00 0.10407386E+04</pdfrwt>
<pdfrwt beam="2">  1       -1 0.25373294E-01 0.10407386E+04</pdfrwt>
<totfact> 0.71379381E+01</totfact>
</mgrwt>
</event>
<event>
 6    1  0.2325157E-005  0.3087661E+04  0.7818608E-02  0.8219133E-01
         -2   -1    0    0    0  501 -0.00000000000E+00  0.00000000000E+00  0.11033653888E+04  0.11033653888E+04  0.00000000000E+00 0. -1.
          2   -1    0    0  501    0  0.00000000000E+00 -0.00000000000E+00 -0.21601292760E+04  0.21601292760E+04  0.00000000000E+00 0.  1.
         23    2    1    2    0    0  0.43138843000E+03  0.14726702126E+04 -0.36442526078E+03  0.15799904900E+04  0.93330837423E+02 0.  0.
         11    1    3    3    0    0  0.23200534153E+03  0.82629915543E+03 -0.25030566149E+03  0.89400766045E+03  0.00000000000E+00 0. -1.
        -11    1    3    3    0    0  0.19938308846E+03  0.64637105720E+03 -0.11411959929E+03  0.68598282959E+03  0.00000000000E+00 0.  1.
         22    1    1    2    0    0 -0.43138843000E+03 -0.14726702126E+04 -0.69233862646E+03  0.16835041748E+04  0.00000000000E+00 0. -1.
<mgrwt>
<rscale>  0 0.30876605E+04</rscale>
<asrwt>0</asrwt>
<pdfrwt beam="1">  1        2 0.33232758E+00 0.30876605E+04</pdfrwt>
<pdfrwt beam="2">  1       -2 0.16974852E+00 0.30876605E+04</pdfrwt>
<totfact> 0.98898524E-01</totfact>
</mgrwt>
</event>
<event>
 6    1  0.2325157E-005  0.1933784E+04  0.7818608E-02  0.8638220E-01
          2   -1    0    0  501    0  0.00000000000E+00  0.00000000000E+00  0.14219451330E+04  0.14219451330E+04  0.00000000000E+00 0.  1.
         -2   -1    0    0    0  501 -0.00000000000E+00 -0.00000000000E+00 -0.65746550390E+03  0.65746550390E+03  0.00000000000E+00 0. -1.
         23    2    1    2    0    0  0.51232958785E+03 -0.29902895387E+03  0.12011866560E+04  0.13427879728E+04  0.91270124198E+02 0.  0.
         11    1    3    3    0    0  0.19568956063E+03 -0.10053420346E+03  0.35336148512E+03  0.41625217042E+03  0.00000000000E+00 0. -1.
        -11    1    3    3    0    0  0.31664002722E+03 -0.19849475041E+03  0.84782517089E+03  0.92653580242E+03  0.00000000000E+00 0.  1.
         22    1    1    2    0    0 -0.51232958785E+03  0.29902895387E+03 -0.43670702692E+03  0.73662266406E+03  0.00000000000E+00 0. -1.
<mgrwt>
<rscale>  0 0.19337837E+04</rscale>
<asrwt>0</asrwt>
<pdfrwt beam="1">  1        2 0.21876079E+00 0.19337837E+04</pdfrwt>
<pdfrwt beam="2">  1       -2 0.10114854E+00 0.19337837E+04</pdfrwt>
<totfact> 0.10556851E+01</totfact>
</mgrwt>
</event>
<event>
 6    1  0.2325157E-005  0.3036075E+04  0.7818608E-02  0.8233504E-01
         -2   -1    0    0    0  501 -0.00000000000E+00  0.00000000000E+00  0.12073490691E+04  0.12073490691E+04  0.00000000000E+00 0. -1.
          2   -1    0    0  501    0  0.00000000000E+00 -0.00000000000E+00 -0.19086756981E+04  0.19086756981E+04  0.00000000000E+00 0.  1.
         23    2    1    2    0    0  0.12287405671E+04  0.55928168405E+03  0.35843679016E+03  0.13997212136E+04  0.90239458623E+02 0.  0.
         13    1    3    3    0    0  0.26530616857E+03  0.81777312647E+02  0.65139282952E+02  0.28516314300E+03  0.00000000000E+00 0. -1.
        -13    1    3    3    0    0  0.96343439854E+03  0.47750437140E+03  0.29329750721E+03  0.11145580706E+04  0.00000000000E+00 0.  1.
         22    1    1    2    0    0 -0.12287405671E+04 -0.55928168405E+03 -0.10597634192E+04  0.17163035536E+04  0.00000000000E+00 0.  1.
<mgrwt>
<rscale>  0 0.30360750E+04</rscale>
<asrwt>0</asrwt>
<pdfrwt beam="1">  1        2 0.29364241E+00 0.30360750E+04</pdfrwt>
<pdfrwt beam="2">  1       -2 0.18574601E+00 0.30360750E+04</pdfrwt>
<totfact> 0.10615435E+00</totfact>
</mgrwt>
</event>
<event>
 6    1  0.2325157E-005  0.1839336E+04  0.7818608E-02  0.8685656E-01
          2   -1    0    0  501    0  0.00000000000E+00  0.00000000000E+00  0.21202364528E+04  0.21202364528E+04  0.00000000000E+00 0.  1.
         -2   -1    0    0    0  501 -0.00000000000E+00 -0.00000000000E+00 -0.39891268502E+03  0.39891268502E+03  0.00000000000E+00 0. -1.
         23    2    1    2    0    0  0.22540226281E+03  0.35862836727E+03 -0.25155459795E+03  0.50131130195E+03  0.92805279035E+02 0.  0.
         13    1    3    3    0    0  0.23408253073E+02  0.11073841576E+03 -0.53653370553E+02  0.12525824208E+03  0.00000000000E+00 0. -1.
        -13    1    3    3    0    0  0.20199400973E+03  0.24788995151E+03 -0.19790122740E+03  0.37605305987E+03  0.00000000000E+00 0.  1.
         22    1    1    2    0    0 -0.22540226281E+03 -0.35862836727E+03  0.19728783657E+04  0.20178378358E+04  0.00000000000E+00 0.  1.
<mgrwt>
<rscale>  0 0.18393360E+04</rscale>
<asrwt>0</asrwt>
<pdfrwt beam="1">  1        2 0.32619022E+00 0.18393360E+04</pdfrwt>
<pdfrwt beam="2">  1       -2 0.61371184E-01 0.18393360E+04</pdfrwt>
<totfact> 0.13301209E+01</totfact>
</mgrwt>
</event>
<event>
 6    1  0.2325157E-005  0.5620084E+03  0.7818608E-02  0.9987520E-01
          2   -1    0    0  501    0  0.00000000000E+00  0.00000000000E+00  0.17565337663E+03  0.17565337663E+03  0.00000000000E+00 0.  1.
         -2   -1    0    0    0  501 -0.00000000000E+00 -0.00000000000E+00 -0.44954082818E+03  0.44954082818E+03  0.00000000000E+00 0. -1.
         23    2    1    2    0    0 -0.23393655769E+03  0.26186428688E+02 -0.29529061699E+03  0.38882555723E+03  0.92610600916E+02 0.  0.
         13    1    3    3    0    0 -0.20194711754E+03 -0.51113601051E+01 -0.20369075308E+03  0.28687747764E+03  0.00000000000E+00 0.  1.
        -13    1    3    3    0    0 -0.31989440144E+02  0.31297788793E+02 -0.91599863901E+02  0.10194807958E+03  0.00000000000E+00 0. -1.
         22    1    1    2    0    0  0.23393655769E+03 -0.26186428688E+02  0.21403165442E+02  0.23636864758E+03  0.00000000000E+00 0.  1.
<mgrwt>
<rscale>  0 0.56200841E+03</rscale>
<asrwt>0</asrwt>
<pdfrwt beam="1">  1        2 0.27023597E-01 0.56200841E+03</pdfrwt>
<pdfrwt beam="2">  1       -2 0.69160126E-01 0.56200841E+03</pdfrwt>
<totfact> 0.38635421E+02</totfact>
</mgrwt>
</event>
<event>
 6    1  0.2325157E-005  0.3748972E+04  0.7818608E-02  0.8057195E-01
         -2   -1    0    0    0  501 -0.00000000000E+00  0.00000000000E+00  0.22195327137E+04  0.22195327137E+04  0.00000000000E+00 0. -1.
          2   -1    0    0  501    0  0.00000000000E+00 -0.00000000000E+00 -0.15830800045E+04  0.15830800045E+04  0.00000000000E+00 0.  1.
         23    2    1    2    0    0  0.42778622588E+03 -0.14874652135E+04  0.13889509743E+04  0.20816224639E+04  0.91724896735E+02 0.  0.
         13    1    3    3    0    0  0.27788264217E+03 -0.87463596790E+03  0.87285400586E+03  0.12665231757E+04  0.00000000000E+00 0.  1.
        -13    1    3    3    0    0  0.14990358371E+03 -0.61282924560E+03  0.51609696841E+03  0.81509928811E+03  0.00000000000E+00 0. -1.
         22    1    1    2    0    0 -0.42778622588E+03  0.14874652135E+04 -0.75249826511E+03  0.17209902543E+04  0.00000000000E+00 0.  1.
<mgrwt>
<rscale>  0 0.37489721E+04</rscale>
<asrwt>0</asrwt>
<pdfrwt beam="1">  1        2 0.24355077E+00 0.37489721E+04</pdfrwt>
<pdfrwt beam="2">  1       -2 0.34146657E+00 0.37489721E+04</pdfrwt>
<totfact> 0.16151269E-01</totfact>
</mgrwt>
</event>
<event>
 6    1  0.2325157E-005  0.3034700E+04  0.7818608E-02  0.8233891E-01
         -2   -1    0    0    0  501 -0.00000000000E+00  0.00000000000E+00  0.65726395434E+03  0.65726395434E+03  0.00000000000E+00 0. -1.
          2   -1    0    0  501    0  0.00000000000E+00 -0.00000000000E+00 -0.35029328368E+04  0.35029328368E+04  0.00000000000E+00 0.  1.
         23    2    1    2    0    0  0.84026686559E+03  0.72442753360E+03 -0.28403167020E+04  0.30507499458E+04  0.93981950028E+02 0.  0.
         13    1    3    3    0    0  0.54014607386E+03  0.40656592497E+03 -0.16972624457E+04  0.18269519540E+04  0.00000000000E+00 0.  1.
        -13    1    3    3    0    0  0.30012079173E+03  0.31786160863E+03 -0.11430542563E+04  0.12237979918E+04  0.00000000000E+00 0. -1.
         22    1    1    2    0    0 -0.84026686559E+03 -0.72442753360E+03 -0.53521804261E+01  0.11094468454E+04  0.00000000000E+00 0. -1.
<mgrwt>
<rscale>  0 0.30347003E+04</rscale>
<asrwt>0</asrwt>
<pdfrwt beam="1">  1        2 0.53891274E+00 0.30347003E+04</pdfrwt>
<pdfrwt beam="2">  1       -2 0.10111753E+00 0.30347003E+04</pdfrwt>
<totfact> 0.55511306E-01</totfact>
</mgrwt>
</event>
<event>
 6    1  0.2325157E-005  0.3826244E+04  0.7818608E-02  0.8040546E-01
          2   -1    0    0  501    0  0.00000000000E+00  0.00000000000E+00  0.31644819819E+04  0.31644819819E+04  0.00000000000E+00 0.  1.
         -2   -1    0    0    0  501 -0.00000000000E+00 -0.00000000000E+00 -0.11565988360E+04  0.11565988360E+04  0.00000000000E+00 0. -1.
         23    2    1    2    0    0 -0.53990193813E+03 -0.17809841903E+04  0.15000099439E+04  0.23920048789E+04  0.90877499329E+02 0.  0.
         11    1    3    3    0    0 -0.25531232232E+03 -0.98702418439E+03  0.79935206148E+03  0.12955172097E+04  0.00000000000E+00 0. -1.
        -11    1    3    3    0    0 -0.28458961582E+03 -0.79396000595E+03  0.70065788242E+03  0.10964876692E+04  0.00000000000E+00 0.  1.
         22    1    1    2    0    0  0.53990193813E+03  0.17809841903E+04  0.50787320208E+03  0.19290759390E+04  0.00000000000E+00 0. -1.
<mgrwt>
<rscale>  0 0.38262442E+04</rscale>
<asrwt>0</asrwt>
<pdfrwt beam="1">  1        2 0.48684338E+00 0.38262442E+04</pdfrwt>
<pdfrwt beam="2">  1       -2 0.17793828E+00 0.38262442E+04</pdfrwt>
<totfact> 0.20486257E-01</totfact>
</mgrwt>
</event>
<event>
 6    1  0.2325157E-005  0.9237497E+03  0.7818608E-02  0.9396371E-01
          1   -1    0    0  501    0  0.00000000000E+00  0.00000000000E+00  0.41401247995E+03  0.41401247995E+03  0.00000000000E+00 0.  1.
         -1   -1    0    0    0  501 -0.00000000000E+00 -0.00000000000E+00 -0.51527035487E+03  0.51527035487E+03  0.00000000000E+00 0. -1.
         23    2    1    2    0    0 -0.20532565548E+02 -0.31592884430E+03  0.28109983762E+03  0.43286563000E+03  0.90127210206E+02 0.  0.
         13    1    3    3    0    0 -0.52599896514E+02 -0.24698485991E+03  0.20461675700E+03  0.32501736474E+03  0.00000000000E+00 0. -1.
        -13    1    3    3    0    0  0.32067330967E+02 -0.68943984387E+02  0.76483080619E+02  0.10784826526E+03  0.00000000000E+00 0.  1.
         22    1    1    2    0    0  0.20532565548E+02  0.31592884430E+03 -0.38235771253E+03  0.49641720482E+03  0.00000000000E+00 0. -1.
<mgrwt>
<rscale>  0 0.92374966E+03</rscale>
<asrwt>0</asrwt>
<pdfrwt beam="1">  1        1 0.63694228E-01 0.92374966E+03</pdfrwt>
<pdfrwt beam="2">  1       -1 0.79272362E-01 0.92374966E+03</pdfrwt>
<totfact> 0.91802286E+01</totfact>
</mgrwt>
</event>
<event>
 6    1  0.2325157E-005  0.2043900E+04  0.7818608E-02  0.8586366E-01
          2   -1    0    0  501    0  0.00000000000E+00  0.00000000000E+00  0.99535759342E+03  0.99535759342E+03  0.00000000000E+00 0. -1.
         -2   -1    0    0    0  501 -0.00000000000E+00 -0.00000000000E+00 -0.10492533492E+04  0.10492533492E+04  0.00000000000E+00 0.  1.
         23    2    1    2    0    0  0.78134327420E+03 -0.63120994050E+03 -0.20382763517E+03  0.10290308770E+04  0.91845195315E+02 0.  0.
         13    1    3    3    0    0  0.41768651521E+03 -0.38430494701E+03 -0.86982284082E+02  0.57421096736E+03  0.00000000000E+00 0.  1.
        -13    1    3    3    0    0  0.36365675899E+03 -0.24690499349E+03 -0.11684535109E+03  0.45481990968E+03  0.00000000000E+00 0. -1.
         22    1    1    2    0    0 -0.78134327420E+03  0.63120994050E+03  0.14993187941E+03  0.10155800656E+04  0.00000000000E+00 0. -1.
<mgrwt>
<rscale>  0 0.20439005E+04</rscale>
<asrwt>0</asrwt>
<pdfrwt beam="1">  1        2 0.15313194E+00 0.20439005E+04</pdfrwt>
<pdfrwt beam="2">  1       -2 0.16142359E+00 0.20439005E+04</pdfrwt>
<totfact> 0.57720927E+00</totfact>
</mgrwt>
</event>
<event>
 6    1  0.2325157E-005  0.4877623E+04  0.7818608E-02  0.7847667E-01
          2   -1    0    0  501    0  0.00000000000E+00  0.00000000000E+00  0.36408232264E+04  0.36408232264E+04  0.00000000000E+00 0.  1.
         -2   -1    0    0    0  501 -0.00000000000E+00 -0.00000000000E+00 -0.16336416122E+04  0.16336416122E+04  0.00000000000E+00 0. -1.
         23    2    1    2    0    0 -0.22405988404E+04 -0.24381767323E+02  0.20411655827E+04  0.30334756498E+04  0.12140818728E+03 0.  0.
         13    1    3    3    0    0 -0.12270163005E+04 -0.57301615687E+02  0.11740143166E+04  0.16991651163E+04  0.00000000000E+00 0. -1.
        -13    1    3    3    0    0 -0.10135825399E+04  0.32919848365E+02  0.86715126607E+03  0.13343105335E+04  0.00000000000E+00 0.  1.
         22    1    1    2    0    0  0.22405988404E+04  0.24381767323E+02 -0.33983968555E+02  0.22409891888E+04  0.00000000000E+00 0. -1.
<mgrwt>
<rscale>  0 0.48776225E+04</rscale>
<asrwt>0</asrwt>
<pdfrwt beam="1">  1        2 0.56012665E+00 0.48776225E+04</pdfrwt>
<pdfrwt beam="2">  1       -2 0.25132948E+00 0.48776225E+04</pdfrwt>
<totfact> 0.29825851E-02</totfact>
</mgrwt>
</event>
<event>
 6    1  0.2325157E-005  0.6198514E+04  0.7818608E-02  0.7666264E-01
          2   -1    0    0  501    0  0.00000000000E+00  0.00000000000E+00  0.34512016359E+04  0.34512016359E+04  0.00000000000E+00 0.  1.
         -2   -1    0    0    0  501 -0.00000000000E+00 -0.00000000000E+00 -0.27832030161E+04  0.27832030161E+04  0.00000000000E+00 0. -1.
         23    2    1    2    0    0  0.40983450124E+03  0.30564869854E+04  0.63756569272E+03  0.31504132166E+04  0.92392711134E+02 0.  0.
         13    1    3    3    0    0  0.34093388615E+03  0.26553232098E+04  0.58130272451E+03  0.27395054518E+04  0.00000000000E+00 0.  1.
        -13    1    3    3    0    0  0.68900615089E+02  0.40116377559E+03  0.56262968209E+02  0.41090776483E+03  0.00000000000E+00 0. -1.
         22    1    1    2    0    0 -0.40983450124E+03 -0.30564869854E+04  0.30432927041E+02  0.30839914353E+04  0.00000000000E+00 0. -1.
<mgrwt>
<rscale>  0 0.61985143E+04</rscale>
<asrwt>0</asrwt>
<pdfrwt beam="1">  1        2 0.53095409E+00 0.61985143E+04</pdfrwt>
<pdfrwt beam="2">  1       -2 0.42818508E+00 0.61985143E+04</pdfrwt>
<totfact> 0.28242927E-03</totfact>
</mgrwt>
</event>
<event>
 6    1  0.2325157E-005  0.1311031E+04  0.7818608E-02  0.9020863E-01
          1   -1    0    0  501    0  0.00000000000E+00  0.00000000000E+00  0.27701470618E+04  0.27701470618E+04  0.00000000000E+00 0. -1.
         -1   -1    0    0    0  501 -0.00000000000E+00 -0.00000000000E+00 -0.15511822599E+03  0.15511822599E+03  0.00000000000E+00 0.  1.
         23    2    1    2    0    0 -0.17948937214E+03  0.62716518598E+03  0.13148200182E+04  0.14705847130E+04  0.91187239524E+02 0.  0.
         11    1    3    3    0    0 -0.64198898297E+02  0.30531385917E+03  0.71648356171E+03  0.78146448757E+03  0.00000000000E+00 0. -1.
        -11    1    3    3    0    0 -0.11529047384E+03  0.32185132682E+03  0.59833645645E+03  0.68912022539E+03  0.00000000000E+00 0.  1.
         22    1    1    2    0    0  0.17948937214E+03 -0.62716518598E+03  0.13002088176E+04  0.14546805748E+04  0.00000000000E+00 0. -1.
<mgrwt>
<rscale>  0 0.13110306E+04</rscale>
<asrwt>0</asrwt>
<pdfrwt beam="1">  1        1 0.42617643E+00 0.13110306E+04</pdfrwt>
<pdfrwt beam="2">  1       -1 0.23864345E-01 0.13110306E+04</pdfrwt>
<totfact> 0.13126322E+01</totfact>
</mgrwt>
</event>
<event>
 6    1  0.2325157E-005  0.2252408E+04  0.7818608E-02  0.8496926E-01
          2   -1    0    0  501    0  0.00000000000E+00  0.00000000000E+00  0.10579787247E+04  0.10579787247E+04  0.00000000000E+00 0.  1.
         -2   -1    0    0    0  501 -0.00000000000E+00 -0.00000000000E+00 -0.11988292945E+04  0.11988292945E+04  0.00000000000E+00 0. -1.
         23    2    1    2    0    0  0.10729054013E+04  0.18049023563E+03 -0.35480883994E+03  0.11479884366E+04  0.91024239818E+02 0.  0.
         13    1    3    3    0    0  0.32115376892E+03  0.19378703817E+02 -0.12960865161E+03  0.34686262414E+03  0.00000000000E+00 0.  1.
        -13    1    3    3    0    0  0.75175163243E+03  0.16111153182E+03 -0.22520018833E+03  0.80112581245E+03  0.00000000000E+00 0. -1.
         22    1    1    2    0    0 -0.10729054013E+04 -0.18049023563E+03  0.21395827010E+03  0.11088195826E+04  0.00000000000E+00 0.  1.
<mgrwt>
<rscale>  0 0.22524084E+04</rscale>
<asrwt>0</asrwt>
<pdfrwt beam="1">  1        2 0.16276596E+00 0.22524084E+04</pdfrwt>
<pdfrwt beam="2">  1       -2 0.18443528E+00 0.22524084E+04</pdfrwt>
<totfact> 0.35595658E+00</totfact>
</mgrwt>
</event>
<event>
 6    1  0.2325157E-005  0.5620908E+04  0.7818608E-02  0.7739268E-01
         -2   -1    0    0    0  501 -0.00000000000E+00  0.00000000000E+00  0.18696874667E+04  0.18696874667E+04  0.00000000000E+00 0. -1.
          2   -1    0    0  501    0  0.00000000000E+00 -0.00000000000E+00 -0.42245838168E+04  0.42245838168E+04  0.00000000000E+00 0.  1.
         23    2    1    2    0    0 -0.15911646101E+04  0.68212724083E+03  0.12215917246E+04  0.21208131754E+04  0.91977139663E+02 0.  0.
         11    1    3    3    0    0 -0.86292753439E+03  0.35795454639E+03  0.60459130440E+03  0.11127919986E+04  0.00000000000E+00 0. -1.
        -11    1    3    3    0    0 -0.72823707567E+03  0.32417269444E+03  0.61700042020E+03  0.10080211767E+04  0.00000000000E+00 0.  1.
         22    1    1    2    0    0  0.15911646101E+04 -0.68212724083E+03 -0.35764880747E+04  0.39734581082E+04  0.00000000000E+00 0.  1.
<mgrwt>
<rscale>  0 0.56209079E+04</rscale>
<asrwt>0</asrwt>
<pdfrwt beam="1">  1        2 0.64993597E+00 0.56209079E+04</pdfrwt>
<pdfrwt beam="2">  1       -2 0.28764423E+00 0.56209079E+04</pdfrwt>
<totfact> 0.57597376E-03</totfact>
</mgrwt>
</event>
<event>
 6    1  0.2325157E-005  0.2366051E+04  0.7818608E-02  0.8452324E-01
          2   -1    0    0  501    0  0.00000000000E+00  0.00000000000E+00  0.66052771549E+03  0.66052771549E+03  0.00000000000E+00 0. -1.
         -2   -1    0    0    0  501 -0.00000000000E+00 -0.00000000000E+00 -0.21188351712E+04  0.21188351712E+04  0.00000000000E+00 0.  1.
         23    2    1    2    0    0  0.10372127613E+04 -0.32378734509E+02 -0.13928968676E+04  0.17395853914E+04  0.95587424153E+02 0.  0.
         13    1    3    3    0    0  0.52012990447E+03 -0.39872310507E+02 -0.63010566946E+03  0.81802082697E+03  0.00000000000E+00 0.  1.
        -13    1    3    3    0    0  0.51708285679E+03  0.74935759984E+01 -0.76279119814E+03  0.92156456443E+03  0.00000000000E+00 0. -1.
         22    1    1    2    0    0 -0.10372127613E+04  0.32378734509E+02 -0.65410588067E+02  0.10397774952E+04  0.00000000000E+00 0. -1.
<mgrwt>
<rscale>  0 0.23660510E+04</rscale>
<asrwt>0</asrwt>
<pdfrwt beam="1">  1        2 0.10161965E+00 0.23660510E+04</pdfrwt>
<pdfrwt beam="2">  1       -2 0.32597465E+00 0.23660510E+04</pdfrwt>
<totfact> 0.87444120E-01</totfact>
</mgrwt>
</event>
<event>
 6    1  0.2325157E-005  0.9516979E+03  0.7818608E-02  0.9363168E-01
         -2   -1    0    0    0  501 -0.00000000000E+00  0.00000000000E+00  0.13706494930E+03  0.13706494930E+03  0.00000000000E+00 0. -1.
          2   -1    0    0  501    0  0.00000000000E+00 -0.00000000000E+00 -0.16520068551E+04  0.16520068551E+04  0.00000000000E+00 0.  1.
         23    2    1    2    0    0  0.24668709067E+02  0.46681186725E+03 -0.88734329761E+03  0.10065107029E+04  0.84639249678E+02 0.  0.
         13    1    3    3    0    0  0.21182570932E+02  0.32153457674E+03 -0.68901730754E+03  0.76064317221E+03  0.00000000000E+00 0.  1.
        -13    1    3    3    0    0  0.34861381346E+01  0.14527729052E+03 -0.19832599008E+03  0.24586753067E+03  0.00000000000E+00 0. -1.
         22    1    1    2    0    0 -0.24668709067E+02 -0.46681186725E+03 -0.62759860821E+03  0.78256110154E+03  0.00000000000E+00 0. -1.
<mgrwt>
<rscale>  0 0.95169793E+03</rscale>
<asrwt>0</asrwt>
<pdfrwt beam="1">  1        2 0.25415492E+00 0.95169793E+03</pdfrwt>
<pdfrwt beam="2">  1       -2 0.21086914E-01 0.95169793E+03</pdfrwt>
<totfact> 0.20330117E+02</totfact>
</mgrwt>
</event>
<event>
 6    1  0.2325157E-005  0.7674805E+03  0.7818608E-02  0.9608318E-01
          2   -1    0    0  501    0  0.00000000000E+00  0.00000000000E+00  0.13632964594E+04  0.13632964594E+04  0.00000000000E+00 0.  1.
         -2   -1    0    0    0  501 -0.00000000000E+00 -0.00000000000E+00 -0.10801507425E+03  0.10801507425E+03  0.00000000000E+00 0. -1.
         23    2    1    2    0    0  0.30888137542E+02 -0.30386684552E+03  0.10643738337E+04  0.11111243184E+04  0.91741245901E+02 0.  0.
         13    1    3    3    0    0  0.15804350330E+02 -0.30101421129E+03  0.97803525825E+03  0.10234316290E+04  0.00000000000E+00 0. -1.
        -13    1    3    3    0    0  0.15083787212E+02 -0.28526342324E+01  0.86338575461E+02  0.87692689384E+02  0.00000000000E+00 0.  1.
         22    1    1    2    0    0 -0.30888137542E+02  0.30386684552E+03  0.19090755147E+03  0.36018721529E+03  0.00000000000E+00 0. -1.
<mgrwt>
<rscale>  0 0.76748047E+03</rscale>
<asrwt>0</asrwt>
<pdfrwt beam="1">  1        2 0.20973791E+00 0.76748047E+03</pdfrwt>
<pdfrwt beam="2">  1       -2 0.16617705E-01 0.76748047E+03</pdfrwt>
<totfact> 0.45116416E+02</totfact>
</mgrwt>
</event>
<event>
 6    1  0.2325157E-005  0.2572968E+04  0.7818608E-02  0.8377442E-01
         -2   -1    0    0    0  501 -0.00000000000E+00  0.00000000000E+00  0.55806320960E+03  0.55806320960E+03  0.00000000000E+00 0. -1.
          2   -1    0    0  501    0  0.00000000000E+00 -0.00000000000E+00 -0.29656864775E+04  0.29656864775E+04  0.00000000000E+00 0.  1.
         23    2    1    2    0    0  0.64062288170E+03 -0.25872231738E+02  0.31960424688E+03  0.72217210182E+03  0.91206475019E+02 0.  0.
         11    1    3    3    0    0  0.29204307389E+03  0.29001615431E+02  0.16748500533E+03  0.33790749875E+03  0.00000000000E+00 0.  1.
        -11    1    3    3    0    0  0.34857980781E+03 -0.54873847168E+02  0.15211924155E+03  0.38426460307E+03  0.00000000000E+00 0. -1.
         22    1    1    2    0    0 -0.64062288170E+03  0.25872231738E+02 -0.27272275148E+04  0.28015775853E+04  0.00000000000E+00 0.  1.
<mgrwt>
<rscale>  0 0.25729676E+04</rscale>
<asrwt>0</asrwt>
<pdfrwt beam="1">  1        2 0.45625945E+00 0.25729676E+04</pdfrwt>
<pdfrwt beam="2">  1       -2 0.85855880E-01 0.25729676E+04</pdfrwt>
<totfact> 0.19098175E+00</totfact>
</mgrwt>
</event>
<event>
 6    1  0.2325157E-005  0.1180934E+04  0.7818608E-02  0.9129710E-01
         -2   -1    0    0    0  501 -0.00000000000E+00  0.00000000000E+00  0.23276712272E+03  0.23276712272E+03  0.00000000000E+00 0. -1.
          2   -1    0    0  501    0  0.00000000000E+00 -0.00000000000E+00 -0.14978553926E+04  0.14978553926E+04  0.00000000000E+00 0.  1.
         23    2    1    2    0    0 -0.33852178370E+03  0.46501204883E+03 -0.80894203225E+03  0.99652266263E+03  0.88526843298E+02 0.  0.
         11    1    3    3    0    0 -0.11634122421E+03  0.19204794681E+03 -0.25031371181E+03  0.33626574111E+03  0.00000000000E+00 0. -1.
        -11    1    3    3    0    0 -0.22218055950E+03  0.27296410202E+03 -0.55862832045E+03  0.66025692152E+03  0.00000000000E+00 0.  1.
         22    1    1    2    0    0  0.33852178370E+03 -0.46501204883E+03 -0.45614623760E+03  0.73409985266E+03  0.00000000000E+00 0. -1.
<mgrwt>
<rscale>  0 0.11809344E+04</rscale>
<asrwt>0</asrwt>
<pdfrwt beam="1">  1        2 0.23043929E+00 0.11809344E+04</pdfrwt>
<pdfrwt beam="2">  1       -2 0.35810326E-01 0.11809344E+04</pdfrwt>
<totfact> 0.92144742E+01</totfact>
</mgrwt>
</event>
<event>
 6    1  0.2325157E-005  0.1566123E+04  0.7818608E-02  0.8841634E-01
          2   -1    0    0  501    0  0.00000000000E+00  0.00000000000E+00  0.61890000531E+03  0.61890000531E+03  0.00000000000E+00 0.  1.
         -2   -1    0    0    0  501 -0.00000000000E+00 -0.00000000000E+00 -0.99076686967E+03  0.99076686967E+03  0.00000000000E+00 0. -1.
         23    2    1    2    0    0 -0.64967546625E+03  0.40190438968E+03 -0.35247264427E+03  0.84548006166E+03  0.83631452271E+02 0.  0.
         13    1    3    3    0    0 -0.12777917435E+03  0.42805393506E+02 -0.69968541985E+02  0.15184010003E+03  0.00000000000E+00 0. -1.
        -13    1    3    3    0    0 -0.52189629190E+03  0.35909899617E+03 -0.28250410228E+03  0.69363996162E+03  0.00000000000E+00 0.  1.
         22    1    1    2    0    0  0.64967546625E+03 -0.40190438968E+03 -0.19394220088E+02  0.76418681333E+03  0.00000000000E+00 0. -1.
<mgrwt>
<rscale>  0 0.15661234E+04</rscale>
<asrwt>0</asrwt>
<pdfrwt beam="1">  1        2 0.95215386E-01 0.15661234E+04</pdfrwt>
<pdfrwt beam="2">  1       -2 0.15242567E+00 0.15661234E+04</pdfrwt>
<totfact> 0.13172848E+01</totfact>
</mgrwt>
</event>
<event>
 6    1  0.2325157E-005  0.1279784E+04  0.7818608E-02  0.9045752E-01
          2   -1    0    0  501    0  0.00000000000E+00  0.00000000000E+00  0.38795817160E+03  0.38795817160E+03  0.00000000000E+00 0.  1.
         -2   -1    0    0    0  501 -0.00000000000E+00 -0.00000000000E+00 -0.10554280329E+04  0.10554280329E+04  0.00000000000E+00 0. -1.
         23    2    1    2    0    0 -0.57430802017E+03  0.40941658924E+02 -0.64197237925E+03  0.86705640044E+03  0.90290333689E+02 0.  0.
         13    1    3    3    0    0 -0.52852212726E+03  0.13671786530E+02 -0.56922934406E+03  0.77688133127E+03  0.00000000000E+00 0. -1.
        -13    1    3    3    0    0 -0.45785892918E+02  0.27269872393E+02 -0.72743035188E+02  0.90175069166E+02  0.00000000000E+00 0.  1.
         22    1    1    2    0    0  0.57430802017E+03 -0.40941658924E+02 -0.25497482065E+02  0.57632980407E+03  0.00000000000E+00 0.  1.
<mgrwt>
<rscale>  0 0.12797842E+04</rscale>
<asrwt>0</asrwt>
<pdfrwt beam="1">  1        2 0.59685873E-01 0.12797842E+04</pdfrwt>
<pdfrwt beam="2">  1       -2 0.16237354E+00 0.12797842E+04</pdfrwt>
<totfact> 0.19524734E+01</totfact>
</mgrwt>
</event>
<event>
 6    1  0.2325157E-005  0.3244530E+04  0.7818608E-02  0.8177155E-01
         -2   -1    0    0    0  501 -0.00000000000E+00  0.00000000000E+00  0.13879346088E+04  0.13879346088E+04  0.00000000000E+00 0. -1.
          2   -1    0    0  501    0  0.00000000000E+00 -0.00000000000E+00 -0.18961581353E+04  0.18961581353E+04  0.00000000000E+00 0.  1.
         23    2    1    2    0    0  0.17147917462E+03 -0.83102290986E+03 -0.16527117564E+04  0.18593620705E+04  0.75940604326E+02 0.  0.
         13    1    3    3    0    0  0.13148857388E+03 -0.74999487326E+03 -0.14672296924E+04  0.16530409932E+04  0.00000000000E+00 0.  1.
        -13    1    3    3    0    0  0.39990600742E+02 -0.81028036599E+02 -0.18548206397E+03  0.20632107725E+03  0.00000000000E+00 0. -1.
         22    1    1    2    0    0 -0.17147917462E+03  0.83102290986E+03  0.11444882298E+04  0.14247306736E+04  0.00000000000E+00 0. -1.
<mgrwt>
<rscale>  0 0.32445299E+04</rscale>
<asrwt>0</asrwt>
<pdfrwt beam="1">  1        2 0.29171664E+00 0.32445299E+04</pdfrwt>
<pdfrwt beam="2">  1       -2 0.21352840E+00 0.32445299E+04</pdfrwt>
<totfact> 0.69586291E-01</totfact>
</mgrwt>
</event>
<event>
 6    1  0.2325157E-005  0.5078326E+04  0.7818608E-02  0.7816537E-01
          2   -1    0    0  501    0  0.00000000000E+00  0.00000000000E+00  0.28526116675E+04  0.28526116675E+04  0.00000000000E+00 0.  1.
         -2   -1    0    0    0  501 -0.00000000000E+00 -0.00000000000E+00 -0.22601564730E+04  0.22601564730E+04  0.00000000000E+00 0. -1.
         23    2    1    2    0    0  0.36451748118E+03 -0.24455394716E+03  0.28133944797E+04  0.28488664342E+04  0.90398200082E+02 0.  0.
         11    1    3    3    0    0  0.11588941184E+03 -0.29887099491E+02  0.74516799409E+03  0.75471778428E+03  0.00000000000E+00 0.  1.
        -11    1    3    3    0    0  0.24862806934E+03 -0.21466684766E+03  0.20682264856E+04  0.20941486499E+04  0.00000000000E+00 0. -1.
         22    1    1    2    0    0 -0.36451748118E+03  0.24455394716E+03 -0.22209392851E+04  0.22639017062E+04  0.00000000000E+00 0. -1.
<mgrwt>
<rscale>  0 0.50783260E+04</rscale>
<asrwt>0</asrwt>
<pdfrwt beam="1">  1        2 0.43886333E+00 0.50783260E+04</pdfrwt>
<pdfrwt beam="2">  1       -2 0.34771638E+00 0.50783260E+04</pdfrwt>
<totfact> 0.24991727E-02</totfact>
</mgrwt>
</event>
<event>
 6    1  0.2325157E-005  0.2778348E+04  0.7818608E-02  0.8310022E-01
         -2   -1    0    0    0  501 -0.00000000000E+00  0.00000000000E+00  0.12287005353E+04  0.12287005353E+04  0.00000000000E+00 0. -1.
          2   -1    0    0  501    0  0.00000000000E+00 -0.00000000000E+00 -0.15706064171E+04  0.15706064171E+04  0.00000000000E+00 0.  1.
         23    2    1    2    0    0 -0.63824694721E+03 -0.71941380983E+03  0.83676438863E+03  0.12780643677E+04  0.91424779932E+02 0.  0.
         11    1    3    3    0    0 -0.50963320522E+03 -0.62267519560E+03  0.68194387444E+03  0.10547501367E+04  0.00000000000E+00 0. -1.
        -11    1    3    3    0    0 -0.12861374198E+03 -0.96738614232E+02  0.15482051419E+03  0.22331423090E+03  0.00000000000E+00 0.  1.
         22    1    1    2    0    0  0.63824694721E+03  0.71941380983E+03 -0.11786702704E+04  0.15212425848E+04  0.00000000000E+00 0.  1.
<mgrwt>
<rscale>  0 0.27783484E+04</rscale>
<asrwt>0</asrwt>
<pdfrwt beam="1">  1        2 0.24163175E+00 0.27783484E+04</pdfrwt>
<pdfrwt beam="2">  1       -2 0.18903085E+00 0.27783484E+04</pdfrwt>
<totfact> 0.15889279E+00</totfact>
</mgrwt>
</event>
<event>
 6    1  0.2325157E-005  0.1041511E+04  0.7818608E-02  0.9264153E-01
         -2   -1    0    0    0  501 -0.00000000000E+00  0.00000000000E+00  0.38783667178E+03  0.38783667178E+03  0.00000000000E+00 0. -1.
          2   -1    0    0  501    0  0.00000000000E+00 -0.00000000000E+00 -0.69922750052E+03  0.69922750052E+03  0.00000000000E+00 0.  1.
         23    2    1    2    0    0  0.24825586236E+01  0.15573544377E+03  0.35730497492E+03  0.40046838921E+03  0.91915146243E+02 0.  0.
         13    1    3    3    0    0  0.41983730915E+01  0.90253766919E+02  0.30041783268E+03  0.31371044447E+03  0.00000000000E+00 0. -1.
        -13    1    3    3    0    0 -0.17158144679E+01  0.65481676848E+02  0.56887142240E+02  0.86757944733E+02  0.00000000000E+00 0.  1.
         22    1    1    2    0    0 -0.24825586236E+01 -0.15573544377E+03 -0.66869580365E+03  0.68659578310E+03  0.00000000000E+00 0.  1.
<mgrwt>
<rscale>  0 0.10415106E+04</rscale>
<asrwt>0</asrwt>
<pdfrwt beam="1">  1        2 0.10757346E+00 0.10415106E+04</pdfrwt>
<pdfrwt beam="2">  1       -2 0.59667181E-01 0.10415106E+04</pdfrwt>
<totfact> 0.10716552E+02</totfact>
</mgrwt>
</event>
<event>
 6    1  0.2325157E-005  0.2003981E+04  0.7818608E-02  0.8604761E-01
          2   -1    0    0  501    0  0.00000000000E+00  0.00000000000E+00  0.18036824006E+04  0.18036824006E+04  0.00000000000E+00 0.  1.
         -2   -1    0    0    0  501 -0.00000000000E+00 -0.00000000000E+00 -0.55663090357E+03  0.55663090357E+03  0.00000000000E+00 0. -1.
         23    2    1    2    0    0  0.61157555305E+03 -0.58481913282E+03 -0.28890048998E+01  0.85087985629E+03  0.89163379796E+02 0.  0.
         11    1    3    3    0    0  0.28143547161E+03 -0.24118712413E+03  0.38092515025E+02  0.37259655558E+03  0.00000000000E+00 0.  1.
        -11    1    3    3    0    0  0.33014008144E+03 -0.34363200869E+03 -0.40981519925E+02  0.47828330072E+03  0.00000000000E+00 0. -1.
         22    1    1    2    0    0 -0.61157555305E+03  0.58481913282E+03  0.12499405020E+04  0.15094334479E+04  0.00000000000E+00 0.  1.
<mgrwt>
<rscale>  0 0.20039814E+04</rscale>
<asrwt>0</asrwt>
<pdfrwt beam="1">  1        2 0.27748960E+00 0.20039814E+04</pdfrwt>
<pdfrwt beam="2">  1       -2 0.85635524E-01 0.20039814E+04</pdfrwt>
<totfact> 0.94484351E+00</totfact>
</mgrwt>
</event>
<event>
 6    1  0.2325157E-005  0.1072428E+04  0.7818608E-02  0.9232490E-01
         -2   -1    0    0    0  501 -0.00000000000E+00  0.00000000000E+00  0.14627733536E+04  0.14627733536E+04  0.00000000000E+00 0. -1.
          2   -1    0    0  501    0  0.00000000000E+00 -0.00000000000E+00 -0.19656172814E+03  0.19656172814E+03  0.00000000000E+00 0.  1.
         23    2    1    2    0    0 -0.30554591419E+03  0.28734899139E+03  0.13062434068E+03  0.44876239499E+03  0.91636347858E+02 0.  0.
         11    1    3    3    0    0 -0.29140594362E+03  0.23424983234E+03  0.12099032717E+03  0.39297463938E+03  0.00000000000E+00 0.  1.
        -11    1    3    3    0    0 -0.14139970569E+02  0.53099159053E+02  0.96340135143E+01  0.55787755612E+02  0.00000000000E+00 0. -1.
         22    1    1    2    0    0  0.30554591419E+03 -0.28734899139E+03  0.11355872848E+04  0.12105726868E+04  0.00000000000E+00 0. -1.
<mgrwt>
<rscale>  0 0.10724276E+04</rscale>
<asrwt>0</asrwt>
<pdfrwt beam="1">  1        2 0.30240267E-01 0.10724276E+04</pdfrwt>
<pdfrwt beam="2">  1       -2 0.22504205E+00 0.10724276E+04</pdfrwt>
<totfact> 0.16154598E+01</totfact>
</mgrwt>
</event>
<event>
 6    1  0.2325157E-005  0.2654379E+04  0.7818608E-02  0.8349961E-01
         -2   -1    0    0    0  501 -0.00000000000E+00  0.00000000000E+00  0.10155916733E+04  0.10155916733E+04  0.00000000000E+00 0. -1.
          2   -1    0    0  501    0  0.00000000000E+00 -0.00000000000E+00 -0.17343898634E+04  0.17343898634E+04  0.00000000000E+00 0.  1.
         23    2    1    2    0    0 -0.21820303355E+03 -0.67961418585E+03  0.79731195882E+03  0.10742494612E+04  0.93901755865E+02 0.  0.
         13    1    3    3    0    0 -0.14287785757E+03 -0.33694412562E+03  0.35723953497E+03  0.51143475763E+03  0.00000000000E+00 0.  1.
        -13    1    3    3    0    0 -0.75325175980E+02 -0.34267006023E+03  0.44007242386E+03  0.56281470357E+03  0.00000000000E+00 0. -1.
         22    1    1    2    0    0  0.21820303355E+03  0.67961418585E+03 -0.15161101489E+04  0.16757320755E+04  0.00000000000E+00 0.  1.
<mgrwt>
<rscale>  0 0.26543790E+04</rscale>
<asrwt>0</asrwt>
<pdfrwt beam="1">  1        2 0.26682921E+00 0.26543790E+04</pdfrwt>
<pdfrwt beam="2">  1       -2 0.15624487E+00 0.26543790E+04</pdfrwt>
<totfact> 0.22205195E+00</totfact>
</mgrwt>
</event>
<event>
 6    1  0.2325157E-005  0.1253710E+04  0.7818608E-02  0.9067101E-01
         -2   -1    0    0    0  501 -0.00000000000E+00  0.00000000000E+00  0.56409180069E+03  0.56409180069E+03  0.00000000000E+00 0. -1.
          2   -1    0    0  501    0  0.00000000000E+00 -0.00000000000E+00 -0.69660155244E+03  0.69660155244E+03  0.00000000000E+00 0.  1.
         23    2    1    2    0    0  0.99352708419E+02 -0.30406915394E+03 -0.60478813057E+03  0.69027606889E+03  0.91560675866E+02 0.  0.
         11    1    3    3    0    0  0.11128205807E+03 -0.25947291619E+03 -0.55298310492E+03  0.62088662815E+03  0.00000000000E+00 0.  1.
        -11    1    3    3    0    0 -0.11929349655E+02 -0.44596237754E+02 -0.51805025644E+02  0.69389440746E+02  0.00000000000E+00 0. -1.
         22    1    1    2    0    0 -0.99352708419E+02  0.30406915394E+03  0.47227837882E+03  0.57041728423E+03  0.00000000000E+00 0. -1.
<mgrwt>
<rscale>  0 0.12537101E+04</rscale>
<asrwt>0</asrwt>
<pdfrwt beam="1">  1        2 0.10716947E+00 0.12537101E+04</pdfrwt>
<pdfrwt beam="2">  1       -2 0.86783354E-01 0.12537101E+04</pdfrwt>
<totfact> 0.46599880E+01</totfact>
</mgrwt>
</event>
<event>
 6    1  0.2325157E-005  0.1123128E+04  0.7818608E-02  0.9182939E-01
         -2   -1    0    0    0  501 -0.00000000000E+00  0.00000000000E+00  0.77889964620E+03  0.77889964620E+03  0.00000000000E+00 0. -1.
          2   -1    0    0  501    0  0.00000000000E+00 -0.00000000000E+00 -0.40487109698E+03  0.40487109698E+03  0.00000000000E+00 0.  1.
         23    2    1    2    0    0  0.59289682349E+02  0.53901187051E+03  0.32653491491E+03  0.63943196239E+03  0.90548997120E+02 0.  0.
         13    1    3    3    0    0 -0.20739275010E+02  0.19497426849E+03  0.10392132414E+03  0.22191152406E+03  0.00000000000E+00 0. -1.
        -13    1    3    3    0    0  0.80028957359E+02  0.34403760202E+03  0.22261359078E+03  0.41752043832E+03  0.00000000000E+00 0.  1.
         22    1    1    2    0    0 -0.59289682349E+02 -0.53901187051E+03  0.47493634303E+02  0.54433878080E+03  0.00000000000E+00 0.  1.
<mgrwt>
<rscale>  0 0.11231277E+04</rscale>
<asrwt>0</asrwt>
<pdfrwt beam="1">  1        2 0.62287861E-01 0.11231277E+04</pdfrwt>
<pdfrwt beam="2">  1       -2 0.11983071E+00 0.11231277E+04</pdfrwt>
<totfact> 0.41425989E+01</totfact>
</mgrwt>
</event>
<event>
 6    1  0.2325157E-005  0.1850353E+04  0.7818608E-02  0.8679971E-01
         -2   -1    0    0    0  501 -0.00000000000E+00  0.00000000000E+00  0.42601554095E+03  0.42601554095E+03  0.00000000000E+00 0. -1.
          2   -1    0    0  501    0  0.00000000000E+00 -0.00000000000E+00 -0.20092028978E+04  0.20092028978E+04  0.00000000000E+00 0.  1.
         23    2    1    2    0    0  0.88713006539E+02 -0.42894449074E+03 -0.18620121680E+04  0.19159818366E+04  0.10969827134E+03 0.  0.
         13    1    3    3    0    0  0.15184524813E+02 -0.17652169501E+03 -0.96929049866E+03  0.98534996290E+03  0.00000000000E+00 0.  1.
        -13    1    3    3    0    0  0.73528481726E+02 -0.25242279573E+03 -0.89272166936E+03  0.93063187371E+03  0.00000000000E+00 0. -1.
         22    1    1    2    0    0 -0.88713006539E+02  0.42894449074E+03  0.27882481117E+03  0.51923660213E+03  0.00000000000E+00 0. -1.
<mgrwt>
<rscale>  0 0.18503531E+04</rscale>
<asrwt>0</asrwt>
<pdfrwt beam="1">  1        2 0.30910814E+00 0.18503531E+04</pdfrwt>
<pdfrwt beam="2">  1       -2 0.65540851E-01 0.18503531E+04</pdfrwt>
<totfact> 0.13313853E+01</totfact>
</mgrwt>
</event>
<event>
 6    1  0.2325157E-005  0.2499130E+04  0.7818608E-02  0.8403296E-01
         -2   -1    0    0    0  501 -0.00000000000E+00  0.00000000000E+00  0.50513291446E+03  0.50513291446E+03  0.00000000000E+00 0.  1.
          2   -1    0    0  501    0  0.00000000000E+00 -0.00000000000E+00 -0.30910916247E+04  0.30910916247E+04  0.00000000000E+00 0. -1.
         23    2    1    2    0    0  0.89540502123E+02 -0.15379401729E+03 -0.30720464014E+04  0.30785843700E+04  0.92425808139E+02 0.  0.
         11    1    3    3    0    0  0.56088259263E+02 -0.15604750548E+03 -0.24180031413E+04  0.24236823034E+04  0.00000000000E+00 0.  1.
        -11    1    3    3    0    0  0.33452242860E+02  0.22534881858E+01 -0.65404326011E+03  0.65490206661E+03  0.00000000000E+00 0. -1.
         22    1    1    2    0    0 -0.89540502123E+02  0.15379401729E+03  0.48608769110E+03  0.51764016914E+03  0.00000000000E+00 0.  1.
<mgrwt>
<rscale>  0 0.24991295E+04</rscale>
<asrwt>0</asrwt>
<pdfrwt beam="1">  1        2 0.47555257E+00 0.24991295E+04</pdfrwt>
<pdfrwt beam="2">  1       -2 0.77712753E-01 0.24991295E+04</pdfrwt>
<totfact> 0.20069186E+00</totfact>
</mgrwt>
</event>
<event>
 6    1  0.2325157E-005  0.1023015E+04  0.7818608E-02  0.9283657E-01
          2   -1    0    0  501    0  0.00000000000E+00  0.00000000000E+00  0.12643012725E+04  0.12643012725E+04  0.00000000000E+00 0.  1.
         -2   -1    0    0    0  501 -0.00000000000E+00 -0.00000000000E+00 -0.20694414106E+03  0.20694414106E+03  0.00000000000E+00 0. -1.
         23    2    1    2    0    0  0.21580347407E+03  0.30815229409E+03  0.10226378439E+04  0.10934433428E+04  0.91110966894E+02 0.  0.
         13    1    3    3    0    0  0.22269945544E+01  0.20793029383E+02  0.13011451301E+03  0.13178427855E+03  0.00000000000E+00 0.  1.
        -13    1    3    3    0    0  0.21357647951E+03  0.28735926471E+03  0.89252333091E+03  0.96165906424E+03  0.00000000000E+00 0. -1.
         22    1    1    2    0    0 -0.21580347407E+03 -0.30815229409E+03  0.34719287543E+02  0.37780207080E+03  0.00000000000E+00 0. -1.
<mgrwt>
<rscale>  0 0.10230146E+04</rscale>
<asrwt>0</asrwt>
<pdfrwt beam="1">  1        2 0.19450788E+00 0.10230146E+04</pdfrwt>
<pdfrwt beam="2">  1       -2 0.31837561E-01 0.10230146E+04</pdfrwt>
<totfact> 0.15845025E+02</totfact>
</mgrwt>
</event>
<event>
 6    1  0.2325157E-005  0.1194168E+04  0.7818608E-02  0.9117977E-01
         -2   -1    0    0    0  501 -0.00000000000E+00  0.00000000000E+00  0.18228395232E+03  0.18228395232E+03  0.00000000000E+00 0. -1.
          2   -1    0    0  501    0  0.00000000000E+00 -0.00000000000E+00 -0.19557898338E+04  0.19557898338E+04  0.00000000000E+00 0.  1.
         23    2    1    2    0    0  0.28500049161E+03  0.76091578752E+02 -0.18142155224E+04  0.18402945332E+04  0.91053823221E+02 0.  0.
         11    1    3    3    0    0  0.54894834417E+01  0.23201286725E+02 -0.16751373435E+03  0.16920190699E+03  0.00000000000E+00 0. -1.
        -11    1    3    3    0    0  0.27951100817E+03  0.52890292028E+02 -0.16467017880E+04  0.16710926262E+04  0.00000000000E+00 0.  1.
         22    1    1    2    0    0 -0.28500049161E+03 -0.76091578752E+02  0.40709640940E+02  0.29777925287E+03  0.00000000000E+00 0. -1.
<mgrwt>
<rscale>  0 0.11941677E+04</rscale>
<asrwt>0</asrwt>
<pdfrwt beam="1">  1        2 0.30089074E+00 0.11941677E+04</pdfrwt>
<pdfrwt beam="2">  1       -2 0.28043685E-01 0.11941677E+04</pdfrwt>
<totfact> 0.81213557E+01</totfact>
</mgrwt>
</event>
<event>
 6    1  0.2325157E-005  0.4023474E+04  0.7818608E-02  0.7999828E-01
          1   -1    0    0  501    0  0.00000000000E+00  0.00000000000E+00  0.21775100848E+04  0.21775100848E+04  0.00000000000E+00 0.  1.
         -1   -1    0    0    0  501 -0.00000000000E+00 -0.00000000000E+00 -0.18585840896E+04  0.18585840896E+04  0.00000000000E+00 0. -1.
         23    2    1    2    0    0  0.23578987275E+03 -0.19677437257E+04  0.50025963150E+03  0.20459951512E+04  0.90687516235E+02 0.  0.
         11    1    3    3    0    0  0.93739000270E+02 -0.54515046551E+03  0.16989256100E+03  0.57865318845E+03  0.00000000000E+00 0. -1.
        -11    1    3    3    0    0  0.14205087248E+03 -0.14225932602E+04  0.33036707050E+03  0.14673419628E+04  0.00000000000E+00 0.  1.
         22    1    1    2    0    0 -0.23578987275E+03  0.19677437257E+04 -0.18133363631E+03  0.19900990231E+04  0.00000000000E+00 0. -1.
<mgrwt>
<rscale>  0 0.40234739E+04</rscale>
<asrwt>0</asrwt>
<pdfrwt beam="1">  1        1 0.33500155E+00 0.40234739E+04</pdfrwt>
<pdfrwt beam="2">  1       -1 0.28593601E+00 0.40234739E+04</pdfrwt>
<totfact> 0.71819886E-02</totfact>
</mgrwt>
</event>
<event>
 6    1  0.2325157E-005  0.2080595E+04  0.7818608E-02  0.8569840E-01
          2   -1    0    0  501    0  0.00000000000E+00  0.00000000000E+00  0.95347127927E+03  0.95347127927E+03  0.00000000000E+00 0.  1.
         -2   -1    0    0    0  501 -0.00000000000E+00 -0.00000000000E+00 -0.11350302545E+04  0.11350302545E+04  0.00000000000E+00 0. -1.
         23    2    1    2    0    0 -0.77817818710E+03 -0.35246115659E+03  0.50124541703E+03  0.99487820013E+03  0.93517416683E+02 0.  0.
         13    1    3    3    0    0 -0.14195364265E+02  0.49095883897E+01  0.31526326447E+01  0.15347687687E+02  0.00000000000E+00 0. -1.
        -13    1    3    3    0    0 -0.76398282283E+03 -0.35737074498E+03  0.49809278438E+03  0.97953051244E+03  0.00000000000E+00 0.  1.
         22    1    1    2    0    0  0.77817818710E+03  0.35246115659E+03 -0.68280439224E+03  0.10936233336E+04  0.00000000000E+00 0. -1.
<mgrwt>
<rscale>  0 0.20805949E+04</rscale>
<asrwt>0</asrwt>
<pdfrwt beam="1">  1        2 0.14668789E+00 0.20805949E+04</pdfrwt>
<pdfrwt beam="2">  1       -2 0.17462004E+00 0.20805949E+04</pdfrwt>
<totfact> 0.49267355E+00</totfact>
</mgrwt>
</event>
<event>
 6    1  0.2325157E-005  0.2772760E+04  0.7818608E-02  0.8311775E-01
         -2   -1    0    0    0  501 -0.00000000000E+00  0.00000000000E+00  0.11804503926E+04  0.11804503926E+04  0.00000000000E+00 0. -1.
          2   -1    0    0  501    0  0.00000000000E+00 -0.00000000000E+00 -0.16282345039E+04  0.16282345039E+04  0.00000000000E+00 0.  1.
         23    2    1    2    0    0  0.44606072963E+03  0.41687665782E+03  0.10349360257E+04  0.12051839370E+04  0.92840843722E+02 0.  0.
         11    1    3    3    0    0  0.36625386087E+03  0.35560233363E+03  0.79231967956E+03  0.94253137078E+03  0.00000000000E+00 0.  1.
        -11    1    3    3    0    0  0.79806868757E+02  0.61274324196E+02  0.24261634618E+03  0.26265256621E+03  0.00000000000E+00 0. -1.
         22    1    1    2    0    0 -0.44606072963E+03 -0.41687665782E+03 -0.14827201371E+04  0.16035009595E+04  0.00000000000E+00 0.  1.
<mgrwt>
<rscale>  0 0.27727604E+04</rscale>
<asrwt>0</asrwt>
<pdfrwt beam="1">  1        2 0.25049761E+00 0.27727604E+04</pdfrwt>
<pdfrwt beam="2">  1       -2 0.18160775E+00 0.27727604E+04</pdfrwt>
<totfact> 0.16578990E+00</totfact>
</mgrwt>
</event>
<event>
 6    1  0.2325157E-005  0.4601568E+04  0.7818608E-02  0.7893093E-01
         -2   -1    0    0    0  501 -0.00000000000E+00  0.00000000000E+00  0.39411557244E+04  0.39411557244E+04  0.00000000000E+00 0. -1.
          2   -1    0    0  501    0  0.00000000000E+00 -0.00000000000E+00 -0.13431612441E+04  0.13431612441E+04  0.00000000000E+00 0.  1.
         23    2    1    2    0    0 -0.21553747468E+04  0.49597266503E+02  0.22191789678E+04  0.30953442915E+04  0.91108747280E+02 0.  0.
         11    1    3    3    0    0 -0.10948050907E+04 -0.10993608097E+02  0.11660274575E+04  0.15994808776E+04  0.00000000000E+00 0.  1.
        -11    1    3    3    0    0 -0.10605696561E+04  0.60590874600E+02  0.10531515103E+04  0.14958634139E+04  0.00000000000E+00 0. -1.
         22    1    1    2    0    0  0.21553747468E+04 -0.49597266503E+02  0.37881551260E+03  0.21889726770E+04  0.00000000000E+00 0.  1.
<mgrwt>
<rscale>  0 0.46015683E+04</rscale>
<asrwt>0</asrwt>
<pdfrwt beam="1">  1        2 0.20664019E+00 0.46015683E+04</pdfrwt>
<pdfrwt beam="2">  1       -2 0.60633165E+00 0.46015683E+04</pdfrwt>
<totfact> 0.56579432E-03</totfact>
</mgrwt>
</event>
<event>
 6    1  0.2325157E-005  0.1400177E+04  0.7818608E-02  0.8953691E-01
          2   -1    0    0  501    0  0.00000000000E+00  0.00000000000E+00  0.41152157573E+03  0.41152157573E+03  0.00000000000E+00 0.  1.
         -2   -1    0    0    0  501 -0.00000000000E+00 -0.00000000000E+00 -0.11910035536E+04  0.11910035536E+04  0.00000000000E+00 0. -1.
         23    2    1    2    0    0 -0.27247033849E+03 -0.60978309038E+03 -0.61342849869E+03  0.91430331875E+03  0.11653554388E+03 0.  0.
         11    1    3    3    0    0 -0.20325174129E+03 -0.35475002347E+03 -0.42508956549E+03  0.58979656508E+03  0.00000000000E+00 0.  1.
        -11    1    3    3    0    0 -0.69218597202E+02 -0.25503306691E+03 -0.18833893321E+03  0.32450675367E+03  0.00000000000E+00 0. -1.
         22    1    1    2    0    0  0.27247033849E+03  0.60978309038E+03 -0.16605347922E+03  0.68822181063E+03  0.00000000000E+00 0.  1.
<mgrwt>
<rscale>  0 0.14001766E+04</rscale>
<asrwt>0</asrwt>
<pdfrwt beam="1">  1        2 0.63311012E-01 0.14001766E+04</pdfrwt>
<pdfrwt beam="2">  1       -2 0.18323131E+00 0.14001766E+04</pdfrwt>
<totfact> 0.12896804E+01</totfact>
</mgrwt>
</event>
<event>
 6    1  0.2325157E-005  0.1200195E+04  0.7818608E-02  0.9112686E-01
          2   -1    0    0  501    0  0.00000000000E+00  0.00000000000E+00  0.14230345143E+04  0.14230345143E+04  0.00000000000E+00 0.  1.
         -2   -1    0    0    0  501 -0.00000000000E+00 -0.00000000000E+00 -0.25306262375E+03  0.25306262375E+03  0.00000000000E+00 0. -1.
         23    2    1    2    0    0 -0.23354113937E+03 -0.54660714528E+03  0.51517406730E+03  0.79174368811E+03  0.90182664633E+02 0.  0.
         13    1    3    3    0    0 -0.84836207944E+02 -0.20151939405E+03  0.24832984526E+03  0.33087000530E+03  0.00000000000E+00 0. -1.
        -13    1    3    3    0    0 -0.14870493142E+03 -0.34508775123E+03  0.26684422203E+03  0.46087368281E+03  0.00000000000E+00 0.  1.
         22    1    1    2    0    0  0.23354113937E+03  0.54660714528E+03  0.65479782321E+03  0.88435344989E+03  0.00000000000E+00 0.  1.
<mgrwt>
<rscale>  0 0.12001947E+04</rscale>
<asrwt>0</asrwt>
<pdfrwt beam="1">  1        2 0.21892838E+00 0.12001947E+04</pdfrwt>
<pdfrwt beam="2">  1       -2 0.38932712E-01 0.12001947E+04</pdfrwt>
<totfact> 0.86321109E+01</totfact>
</mgrwt>
</event>
<event>
 6    1  0.2325157E-005  0.1042550E+04  0.7818608E-02  0.9263070E-01
         -1   -1    0    0    0  501 -0.00000000000E+00  0.00000000000E+00  0.70892447861E+03  0.70892447861E+03  0.00000000000E+00 0. -1.
          1   -1    0    0  501    0  0.00000000000E+00 -0.00000000000E+00 -0.38329556864E+03  0.38329556864E+03  0.00000000000E+00 0.  1.
         23    2    1    2    0    0  0.32759378355E+03 -0.22808021129E+03 -0.18054446555E+03  0.44758855880E+03  0.91656664351E+02 0.  0.
         13    1    3    3    0    0  0.16678886656E+03 -0.16892319511E+03 -0.90749840564E+02  0.25414386756E+03  0.00000000000E+00 0. -1.
        -13    1    3    3    0    0  0.16080491699E+03 -0.59157016181E+02 -0.89794624989E+02  0.19344469124E+03  0.00000000000E+00 0.  1.
         22    1    1    2    0    0 -0.32759378355E+03  0.22808021129E+03  0.50617337553E+03  0.64463148845E+03  0.00000000000E+00 0. -1.
<mgrwt>
<rscale>  0 0.10425500E+04</rscale>
<asrwt>0</asrwt>
<pdfrwt beam="1">  1        1 0.58968549E-01 0.10425500E+04</pdfrwt>
<pdfrwt beam="2">  1       -1 0.10906530E+00 0.10425500E+04</pdfrwt>
<totfact> 0.49482570E+01</totfact>
</mgrwt>
</event>
<event>
 6    1  0.2325157E-005  0.2094415E+04  0.7818608E-02  0.8563707E-01
         -2   -1    0    0    0  501 -0.00000000000E+00  0.00000000000E+00  0.77860877880E+03  0.77860877880E+03  0.00000000000E+00 0. -1.
          2   -1    0    0  501    0  0.00000000000E+00 -0.00000000000E+00 -0.14084659147E+04  0.14084659147E+04  0.00000000000E+00 0.  1.
         23    2    1    2    0    0 -0.52595984309E+03  0.57001587869E+03 -0.10471904771E+04  0.13063255940E+04  0.91251321060E+02 0.  0.
         11    1    3    3    0    0 -0.39538819144E+03  0.37876616568E+03 -0.69396236722E+03  0.88395667162E+03  0.00000000000E+00 0. -1.
        -11    1    3    3    0    0 -0.13057165165E+03  0.19124971301E+03 -0.35322810991E+03  0.42236892236E+03  0.00000000000E+00 0.  1.
         22    1    1    2    0    0  0.52595984309E+03 -0.57001587869E+03  0.41733334127E+03  0.88074909948E+03  0.00000000000E+00 0. -1.
<mgrwt>
<rscale>  0 0.20944154E+04</rscale>
<asrwt>0</asrwt>
<pdfrwt beam="1">  1        2 0.21668706E+00 0.20944154E+04</pdfrwt>
<pdfrwt beam="2">  1       -2 0.11978597E+00 0.20944154E+04</pdfrwt>
<totfact> 0.70381313E+00</totfact>
</mgrwt>
</event>
<event>
 6    1  0.2325157E-005  0.2445291E+04  0.7818608E-02  0.8422739E-01
         -2   -1    0    0    0  501 -0.00000000000E+00  0.00000000000E+00  0.46590707747E+03  0.46590707747E+03  0.00000000000E+00 0. -1.
          2   -1    0    0  501    0  0.00000000000E+00 -0.00000000000E+00 -0.32084976416E+04  0.32084976416E+04  0.00000000000E+00 0.  1.
         23    2    1    2    0    0  0.70178237335E+02  0.11924787910E+04 -0.99196001913E+03  0.15550562444E+04  0.85349820094E+02 0.  0.
         11    1    3    3    0    0  0.14951062361E+01  0.29597101605E+03 -0.28988355217E+03  0.41428679861E+03  0.00000000000E+00 0.  1.
        -11    1    3    3    0    0  0.68683131099E+02  0.89650777493E+03 -0.70207646696E+03  0.11407694458E+04  0.00000000000E+00 0. -1.
         22    1    1    2    0    0 -0.70178237335E+02 -0.11924787910E+04 -0.17506305450E+04  0.21193484747E+04  0.00000000000E+00 0. -1.
<mgrwt>
<rscale>  0 0.24452908E+04</rscale>
<asrwt>0</asrwt>
<pdfrwt beam="1">  1        2 0.49361504E+00 0.24452908E+04</pdfrwt>
<pdfrwt beam="2">  1       -2 0.71678010E-01 0.24452908E+04</pdfrwt>
<totfact> 0.20258260E+00</totfact>
</mgrwt>
</event>
<event>
 6    1  0.2325157E-005  0.1405031E+04  0.7818608E-02  0.8950185E-01
         -2   -1    0    0    0  501 -0.00000000000E+00  0.00000000000E+00  0.18264432221E+03  0.18264432221E+03  0.00000000000E+00 0. -1.
          2   -1    0    0  501    0  0.00000000000E+00 -0.00000000000E+00 -0.27021279925E+04  0.27021279925E+04  0.00000000000E+00 0.  1.
         23    2    1    2    0    0  0.11497142523E+03  0.50375465002E+03 -0.22331796205E+04  0.22940463334E+04  0.92575302494E+02 0.  0.
         11    1    3    3    0    0  0.71620603604E+02  0.44990916208E+03 -0.19150651203E+04  0.19685076022E+04  0.00000000000E+00 0.  1.
        -11    1    3    3    0    0  0.43350821625E+02  0.53845487935E+02 -0.31811450016E+03  0.32553873121E+03  0.00000000000E+00 0. -1.
         22    1    1    2    0    0 -0.11497142523E+03 -0.50375465002E+03 -0.28630404986E+03  0.59072598131E+03  0.00000000000E+00 0. -1.
<mgrwt>
<rscale>  0 0.14050314E+04</rscale>
<asrwt>0</asrwt>
<pdfrwt beam="1">  1        2 0.41571201E+00 0.14050314E+04</pdfrwt>
<pdfrwt beam="2">  1       -2 0.28099126E-01 0.14050314E+04</pdfrwt>
<totfact> 0.30000191E+01</totfact>
</mgrwt>
</event>
<event>
 6    1  0.2783725E-005  0.2151071E+04  0.7818608E-02  0.8539074E-01
         -2   -1    0    0    0  501 -0.00000000000E+00  0.00000000000E+00  0.79201043858E+03  0.79201043858E+03  0.00000000000E+00 0.  1.
          2   -1    0    0  501    0  0.00000000000E+00 -0.00000000000E+00 -0.14605574901E+04  0.14605574901E+04  0.00000000000E+00 0. -1.
         23    2    1    2    0    0  0.36758654273E+03  0.61292437456E+03 -0.11745597325E+04  0.13768710697E+04  0.73397697997E+02 0.  0.
         11    1    3    3    0    0  0.13997211117E+03  0.29314048058E+03 -0.56991646654E+03  0.65599414029E+03  0.00000000000E+00 0. -1.
        -11    1    3    3    0    0  0.22761443156E+03  0.31978389398E+03 -0.60464326601E+03  0.72087692946E+03  0.00000000000E+00 0.  1.
         22    1    1    2    0    0 -0.36758654273E+03 -0.61292437456E+03  0.50601268104E+03  0.87569685891E+03  0.00000000000E+00 0.  1.
<mgrwt>
<rscale>  0 0.21510712E+04</rscale>
<asrwt>0</asrwt>
<pdfrwt beam="1">  1        2 0.22470115E+00 0.21510712E+04</pdfrwt>
<pdfrwt beam="2">  1       -2 0.12184776E+00 0.21510712E+04</pdfrwt>
<totfact> 0.62701654E+00</totfact>
</mgrwt>
</event>
<event>
 6    1  0.2325157E-005  0.1828308E+04  0.7818608E-02  0.8691389E-01
          2   -1    0    0  501    0  0.00000000000E+00  0.00000000000E+00  0.43108919034E+03  0.43108919034E+03  0.00000000000E+00 0.  1.
         -2   -1    0    0    0  501 -0.00000000000E+00 -0.00000000000E+00 -0.19385259530E+04  0.19385259530E+04  0.00000000000E+00 0. -1.
         23    2    1    2    0    0  0.41911137295E+03  0.79835897036E+03 -0.93214084829E+03  0.13000372932E+04  0.90437901889E+02 0.  0.
         13    1    3    3    0    0  0.18706365918E+03  0.26831448228E+03 -0.35766657525E+03  0.48467602895E+03  0.00000000000E+00 0. -1.
        -13    1    3    3    0    0  0.23204771377E+03  0.53004448808E+03 -0.57447427304E+03  0.81536126422E+03  0.00000000000E+00 0.  1.
         22    1    1    2    0    0 -0.41911137295E+03 -0.79835897036E+03 -0.57529591437E+03  0.10695778502E+04  0.00000000000E+00 0. -1.
<mgrwt>
<rscale>  0 0.18283081E+04</rscale>
<asrwt>0</asrwt>
<pdfrwt beam="1">  1        2 0.66321413E-01 0.18283081E+04</pdfrwt>
<pdfrwt beam="2">  1       -2 0.29823476E+00 0.18283081E+04</pdfrwt>
<totfact> 0.22453282E+00</totfact>
</mgrwt>
</event>
<event>
 6    1  0.2325157E-005  0.5092968E+04  0.7818608E-02  0.7814324E-01
          2   -1    0    0  501    0  0.00000000000E+00  0.00000000000E+00  0.27291409127E+04  0.27291409127E+04  0.00000000000E+00 0. -1.
         -2   -1    0    0    0  501 -0.00000000000E+00 -0.00000000000E+00 -0.23760515826E+04  0.23760515826E+04  0.00000000000E+00 0.  1.
         23    2    1    2    0    0 -0.22564075699E+04 -0.11615486680E+04 -0.23409850377E+02  0.25395888504E+04  0.91613746461E+02 0.  0.
         13    1    3    3    0    0 -0.19289085912E+04 -0.10284651690E+04 -0.22934164279E+02  0.21860820965E+04  0.00000000000E+00 0.  1.
        -13    1    3    3    0    0 -0.32749897873E+03 -0.13308349905E+03 -0.47568609860E+00  0.35350675392E+03  0.00000000000E+00 0. -1.
         22    1    1    2    0    0  0.22564075699E+04  0.11615486680E+04  0.37649918051E+03  0.25656036449E+04  0.00000000000E+00 0. -1.
<mgrwt>
<rscale>  0 0.50929675E+04</rscale>
<asrwt>0</asrwt>
<pdfrwt beam="1">  1        2 0.41986783E+00 0.50929675E+04</pdfrwt>
<pdfrwt beam="2">  1       -2 0.36554640E+00 0.50929675E+04</pdfrwt>
<totfact> 0.22857918E-02</totfact>
</mgrwt>
</event>
<event>
 6    1  0.2325157E-005  0.4699638E+04  0.7818608E-02  0.7876589E-01
          2   -1    0    0  501    0  0.00000000000E+00  0.00000000000E+00  0.13699802427E+04  0.13699802427E+04  0.00000000000E+00 0.  1.
         -2   -1    0    0    0  501 -0.00000000000E+00 -0.00000000000E+00 -0.40304597785E+04  0.40304597785E+04  0.00000000000E+00 0. -1.
         23    2    1    2    0    0 -0.62700252373E+03  0.13790891436E+04 -0.33934952134E+04  0.37174869575E+04  0.94236325644E+02 0.  0.
         13    1    3    3    0    0 -0.35162996659E+03  0.69872274897E+03 -0.16635856644E+04  0.18383074759E+04  0.00000000000E+00 0. -1.
        -13    1    3    3    0    0 -0.27537255714E+03  0.68036639465E+03 -0.17299095491E+04  0.18791794816E+04  0.00000000000E+00 0.  1.
         22    1    1    2    0    0  0.62700252373E+03 -0.13790891436E+04  0.73301567764E+03  0.16829530637E+04  0.00000000000E+00 0.  1.
<mgrwt>
<rscale>  0 0.46996384E+04</rscale>
<asrwt>0</asrwt>
<pdfrwt beam="1">  1        2 0.21076619E+00 0.46996384E+04</pdfrwt>
<pdfrwt beam="2">  1       -2 0.62007073E+00 0.46996384E+04</pdfrwt>
<totfact> 0.48213010E-03</totfact>
</mgrwt>
</event>
<event>
 6    1  0.2325157E-005  0.1370886E+04  0.7818608E-02  0.8975167E-01
          2   -1    0    0  501    0  0.00000000000E+00  0.00000000000E+00  0.10277530128E+04  0.10277530128E+04  0.00000000000E+00 0.  1.
         -2   -1    0    0    0  501 -0.00000000000E+00 -0.00000000000E+00 -0.45714497620E+03  0.45714497620E+03  0.00000000000E+00 0. -1.
         23    2    1    2    0    0 -0.36119791010E+03  0.30852248116E+03  0.81713879062E+03  0.94970880351E+03  0.92633453357E+02 0.  0.
         13    1    3    3    0    0 -0.22280831881E+03  0.12970274948E+03  0.44200348075E+03  0.51169661632E+03  0.00000000000E+00 0. -1.
        -13    1    3    3    0    0 -0.13838959128E+03  0.17881973169E+03  0.37513530987E+03  0.43801218719E+03  0.00000000000E+00 0.  1.
         22    1    1    2    0    0  0.36119791010E+03 -0.30852248116E+03 -0.24653075399E+03  0.53518918553E+03  0.00000000000E+00 0. -1.
<mgrwt>
<rscale>  0 0.13708860E+04</rscale>
<asrwt>0</asrwt>
<pdfrwt beam="1">  1        2 0.15811585E+00 0.13708860E+04</pdfrwt>
<pdfrwt beam="2">  1       -2 0.70329996E-01 0.13708860E+04</pdfrwt>
<totfact> 0.43399928E+01</totfact>
</mgrwt>
</event>
<event>
 6    1  0.2325157E-005  0.1451236E+04  0.7818608E-02  0.8917544E-01
          2   -1    0    0  501    0  0.00000000000E+00  0.00000000000E+00  0.16231642669E+04  0.16231642669E+04  0.00000000000E+00 0.  1.
         -2   -1    0    0    0  501 -0.00000000000E+00 -0.00000000000E+00 -0.32437955401E+03  0.32437955401E+03  0.00000000000E+00 0. -1.
         23    2    1    2    0    0 -0.11516575041E+03  0.12768659962E+03  0.15940721420E+04  0.16058397332E+04  0.89934625166E+02 0.  0.
         13    1    3    3    0    0 -0.22222450181E+02  0.90134974581E+02  0.84700534648E+03  0.85207758326E+03  0.00000000000E+00 0. -1.
        -13    1    3    3    0    0 -0.92943300228E+02  0.37551625039E+02  0.74706679557E+03  0.75376214992E+03  0.00000000000E+00 0.  1.
         22    1    1    2    0    0  0.11516575041E+03 -0.12768659962E+03 -0.29528742914E+03  0.34170408776E+03  0.00000000000E+00 0. -1.
<mgrwt>
<rscale>  0 0.14512358E+04</rscale>
<asrwt>0</asrwt>
<pdfrwt beam="1">  1        2 0.24971758E+00 0.14512358E+04</pdfrwt>
<pdfrwt beam="2">  1       -2 0.49904548E-01 0.14512358E+04</pdfrwt>
<totfact> 0.39867773E+01</totfact>
</mgrwt>
</event>
<event>
 6    1  0.2325157E-005  0.3935103E+04  0.7818608E-02  0.8017768E-01
          2   -1    0    0  501    0  0.00000000000E+00  0.00000000000E+00  0.26264075109E+04  0.26264075109E+04  0.00000000000E+00 0.  1.
         -2   -1    0    0    0  501 -0.00000000000E+00 -0.00000000000E+00 -0.14739748167E+04  0.14739748167E+04  0.00000000000E+00 0. -1.
         23    2    1    2    0    0 -0.84185282744E+01 -0.18930915153E+04  0.11310968440E+04  0.22071518674E+04  0.90955694438E+02 0.  0.
         13    1    3    3    0    0 -0.25695565764E+02 -0.24087104483E+03  0.16563341340E+03  0.29345110320E+03  0.00000000000E+00 0.  1.
        -13    1    3    3    0    0  0.17277037490E+02 -0.16522204705E+04  0.96546343064E+03  0.19137007642E+04  0.00000000000E+00 0. -1.
         22    1    1    2    0    0  0.84185282744E+01  0.18930915153E+04  0.21335850102E+02  0.18932304602E+04  0.00000000000E+00 0.  1.
<mgrwt>
<rscale>  0 0.39351028E+04</rscale>
<asrwt>0</asrwt>
<pdfrwt beam="1">  1        2 0.40406269E+00 0.39351028E+04</pdfrwt>
<pdfrwt beam="2">  1       -2 0.22676536E+00 0.39351028E+04</pdfrwt>
<totfact> 0.20857739E-01</totfact>
</mgrwt>
</event>
<event>
 6    1  0.2325157E-005  0.1771647E+04  0.7818608E-02  0.8721524E-01
         -2   -1    0    0    0  501 -0.00000000000E+00  0.00000000000E+00  0.66943381013E+03  0.66943381013E+03  0.00000000000E+00 0. -1.
          2   -1    0    0  501    0  0.00000000000E+00 -0.00000000000E+00 -0.11721594987E+04  0.11721594987E+04  0.00000000000E+00 0.  1.
         23    2    1    2    0    0  0.16706098552E+03  0.16415012372E+03 -0.11376852518E+04  0.11648154406E+04  0.87250457315E+02 0.  0.
         13    1    3    3    0    0  0.41747784606E+02  0.94334078510E+02 -0.57182685739E+03  0.58105744184E+03  0.00000000000E+00 0. -1.
        -13    1    3    3    0    0  0.12531320091E+03  0.69816045206E+02 -0.56585839445E+03  0.58375799871E+03  0.00000000000E+00 0.  1.
         22    1    1    2    0    0 -0.16706098552E+03 -0.16415012372E+03  0.63495956327E+03  0.67677786828E+03  0.00000000000E+00 0. -1.
<mgrwt>
<rscale>  0 0.17716469E+04</rscale>
<asrwt>0</asrwt>
<pdfrwt beam="1">  1        2 0.18033223E+00 0.17716469E+04</pdfrwt>
<pdfrwt beam="2">  1       -2 0.10298982E+00 0.17716469E+04</pdfrwt>
<totfact> 0.14343568E+01</totfact>
</mgrwt>
</event>
<event>
 6    1  0.2325157E-005  0.3261529E+04  0.7818608E-02  0.8172754E-01
         -2   -1    0    0    0  501 -0.00000000000E+00  0.00000000000E+00  0.26919793867E+04  0.26919793867E+04  0.00000000000E+00 0. -1.
          2   -1    0    0  501    0  0.00000000000E+00 -0.00000000000E+00 -0.98789469521E+03  0.98789469521E+03  0.00000000000E+00 0.  1.
         23    2    1    2    0    0 -0.12343218659E+04  0.67452925988E+03 -0.75373342500E+02  0.14116123938E+04  0.91805329895E+02 0.  0.
         11    1    3    3    0    0 -0.45759197459E+03  0.22803305986E+03  0.12338899545E+02  0.51141151731E+03  0.00000000000E+00 0.  1.
        -11    1    3    3    0    0 -0.77672989129E+03  0.44649620002E+03 -0.87712242044E+02  0.90020087650E+03  0.00000000000E+00 0. -1.
         22    1    1    2    0    0  0.12343218659E+04 -0.67452925988E+03  0.17794580340E+04  0.22682616881E+04  0.00000000000E+00 0. -1.
<mgrwt>
<rscale>  0 0.32615286E+04</rscale>
<asrwt>0</asrwt>
<pdfrwt beam="1">  1        2 0.15198380E+00 0.32615286E+04</pdfrwt>
<pdfrwt beam="2">  1       -2 0.41415067E+00 0.32615286E+04</pdfrwt>
<totfact> 0.12862530E-01</totfact>
</mgrwt>
</event>
<event>
 6    1  0.2325157E-005  0.1831237E+04  0.7818608E-02  0.8689862E-01
          2   -1    0    0  501    0  0.00000000000E+00  0.00000000000E+00  0.13670350347E+04  0.13670350347E+04  0.00000000000E+00 0.  1.
         -2   -1    0    0    0  501 -0.00000000000E+00 -0.00000000000E+00 -0.61326696752E+03  0.61326696752E+03  0.00000000000E+00 0. -1.
         23    2    1    2    0    0 -0.82716189871E+03  0.62308308383E+02  0.79128914579E+03  0.11499484852E+04  0.90354160789E+02 0.  0.
         13    1    3    3    0    0 -0.22224511744E+03 -0.10410404046E+02  0.17225092465E+03  0.28137457203E+03  0.00000000000E+00 0. -1.
        -13    1    3    3    0    0 -0.60491678127E+03  0.72718712429E+02  0.61903822114E+03  0.86857391316E+03  0.00000000000E+00 0.  1.
         22    1    1    2    0    0  0.82716189871E+03 -0.62308308383E+02 -0.37521078579E+02  0.83035351707E+03  0.00000000000E+00 0. -1.
<mgrwt>
<rscale>  0 0.18312372E+04</rscale>
<asrwt>0</asrwt>
<pdfrwt beam="1">  1        2 0.21031308E+00 0.18312372E+04</pdfrwt>
<pdfrwt beam="2">  1       -2 0.94348765E-01 0.18312372E+04</pdfrwt>
<totfact> 0.13483548E+01</totfact>
</mgrwt>
</event>
<event>
 6    1  0.2325157E-005  0.2756082E+04  0.7818608E-02  0.8317034E-01
          2   -1    0    0  501    0  0.00000000000E+00  0.00000000000E+00  0.11456090229E+04  0.11456090229E+04  0.00000000000E+00 0.  1.
         -2   -1    0    0    0  501 -0.00000000000E+00 -0.00000000000E+00 -0.16576314872E+04  0.16576314872E+04  0.00000000000E+00 0. -1.
         23    2    1    2    0    0  0.34640589885E+03  0.49128290102E+03  0.10032284356E+04  0.11731051706E+04  0.91392077105E+02 0.  0.
         11    1    3    3    0    0  0.17098115356E+03  0.22637473920E+03  0.38765903925E+03  0.48037444575E+03  0.00000000000E+00 0.  1.
        -11    1    3    3    0    0  0.17542474530E+03  0.26490816182E+03  0.61556939636E+03  0.69273072488E+03  0.00000000000E+00 0. -1.
         22    1    1    2    0    0 -0.34640589885E+03 -0.49128290102E+03 -0.15152508999E+04  0.16301353396E+04  0.00000000000E+00 0. -1.
<mgrwt>
<rscale>  0 0.27560824E+04</rscale>
<asrwt>0</asrwt>
<pdfrwt beam="1">  1        2 0.17624754E+00 0.27560824E+04</pdfrwt>
<pdfrwt beam="2">  1       -2 0.25502023E+00 0.27560824E+04</pdfrwt>
<totfact> 0.10677188E+00</totfact>
</mgrwt>
</event>
<event>
 6    1  0.2325157E-005  0.3194554E+04  0.7818608E-02  0.8190257E-01
         -2   -1    0    0    0  501 -0.00000000000E+00  0.00000000000E+00  0.97229501288E+03  0.97229501288E+03  0.00000000000E+00 0. -1.
          2   -1    0    0  501    0  0.00000000000E+00 -0.00000000000E+00 -0.26239920574E+04  0.26239920574E+04  0.00000000000E+00 0.  1.
         23    2    1    2    0    0 -0.37447332392E+03 -0.51989966093E+03  0.81895055151E+03  0.10439106342E+04  0.92430939428E+02 0.  0.
         11    1    3    3    0    0 -0.10721295569E+03 -0.17730109992E+03  0.33134897064E+03  0.39079718301E+03  0.00000000000E+00 0.  1.
        -11    1    3    3    0    0 -0.26726036823E+03 -0.34259856101E+03  0.48760158087E+03  0.65311345117E+03  0.00000000000E+00 0. -1.
         22    1    1    2    0    0  0.37447332392E+03  0.51989966093E+03 -0.24706475960E+04  0.25523764361E+04  0.00000000000E+00 0.  1.
<mgrwt>
<rscale>  0 0.31945544E+04</rscale>
<asrwt>0</asrwt>
<pdfrwt beam="1">  1        2 0.40369108E+00 0.31945544E+04</pdfrwt>
<pdfrwt beam="2">  1       -2 0.14958385E+00 0.31945544E+04</pdfrwt>
<totfact> 0.74883607E-01</totfact>
</mgrwt>
</event>
<event>
 6    1  0.2325157E-005  0.3204451E+04  0.7818608E-02  0.8187643E-01
          2   -1    0    0  501    0  0.00000000000E+00  0.00000000000E+00  0.25102694508E+04  0.25102694508E+04  0.00000000000E+00 0.  1.
         -2   -1    0    0    0  501 -0.00000000000E+00 -0.00000000000E+00 -0.10226495777E+04  0.10226495777E+04  0.00000000000E+00 0. -1.
         23    2    1    2    0    0  0.80304548431E+03 -0.83524721059E+03 -0.47441649078E+03  0.12542995680E+04  0.75342198806E+02 0.  0.
         13    1    3    3    0    0  0.20661238390E+03 -0.24753248662E+03 -0.10506852958E+03  0.33911709632E+03  0.00000000000E+00 0.  1.
        -13    1    3    3    0    0  0.59643310041E+03 -0.58771472397E+03 -0.36934796120E+03  0.91518247169E+03  0.00000000000E+00 0. -1.
         22    1    1    2    0    0 -0.80304548431E+03  0.83524721059E+03  0.19620363639E+04  0.22786194605E+04  0.00000000000E+00 0.  1.
<mgrwt>
<rscale>  0 0.32044507E+04</rscale>
<asrwt>0</asrwt>
<pdfrwt beam="1">  1        2 0.38619530E+00 0.32044507E+04</pdfrwt>
<pdfrwt beam="2">  1       -2 0.15733071E+00 0.32044507E+04</pdfrwt>
<totfact> 0.76194896E-01</totfact>
</mgrwt>
</event>
<event>
 6    1  0.2325157E-005  0.3214974E+04  0.7818608E-02  0.8184874E-01
          1   -1    0    0  501    0  0.00000000000E+00  0.00000000000E+00  0.22676925548E+04  0.22676925548E+04  0.00000000000E+00 0. -1.
         -1   -1    0    0    0  501 -0.00000000000E+00 -0.00000000000E+00 -0.11394905818E+04  0.11394905818E+04  0.00000000000E+00 0.  1.
         23    2    1    2    0    0  0.69328380851E+03  0.68710292062E+03 -0.78730790036E+03  0.12573154807E+04  0.90750347059E+02 0.  0.
         11    1    3    3    0    0  0.53639513529E+03  0.52608429322E+03 -0.55535180915E+03  0.93429120550E+03  0.00000000000E+00 0. -1.
        -11    1    3    3    0    0  0.15688867322E+03  0.16101862739E+03 -0.23195609121E+03  0.32302427525E+03  0.00000000000E+00 0.  1.
         22    1    1    2    0    0 -0.69328380851E+03 -0.68710292062E+03  0.19155098734E+04  0.21498676559E+04  0.00000000000E+00 0. -1.
<mgrwt>
<rscale>  0 0.32149739E+04</rscale>
<asrwt>0</asrwt>
<pdfrwt beam="1">  1        1 0.34887578E+00 0.32149739E+04</pdfrwt>
<pdfrwt beam="2">  1       -1 0.17530624E+00 0.32149739E+04</pdfrwt>
<totfact> 0.36820874E-01</totfact>
</mgrwt>
</event>
<event>
 6    1  0.2325157E-005  0.1859670E+04  0.7818608E-02  0.8675196E-01
          2   -1    0    0  501    0  0.00000000000E+00  0.00000000000E+00  0.26747369026E+04  0.26747369026E+04  0.00000000000E+00 0. -1.
         -2   -1    0    0    0  501 -0.00000000000E+00 -0.00000000000E+00 -0.32324406841E+03  0.32324406841E+03  0.00000000000E+00 0.  1.
         23    2    1    2    0    0 -0.54003742832E+03  0.10695242274E+03  0.23821259816E+04  0.24466030294E+04  0.90900752864E+02 0.  0.
         13    1    3    3    0    0 -0.10219189311E+02  0.14744132000E+02  0.12585574894E+03  0.12712785218E+03  0.00000000000E+00 0.  1.
        -13    1    3    3    0    0 -0.52981823901E+03  0.92208290741E+02  0.22562702326E+04  0.23194751773E+04  0.00000000000E+00 0. -1.
         22    1    1    2    0    0  0.54003742832E+03 -0.10695242274E+03 -0.30633147388E+02  0.55137794156E+03  0.00000000000E+00 0.  1.
<mgrwt>
<rscale>  0 0.18596697E+04</rscale>
<asrwt>0</asrwt>
<pdfrwt beam="1">  1        2 0.41149797E+00 0.18596697E+04</pdfrwt>
<pdfrwt beam="2">  1       -2 0.49729858E-01 0.18596697E+04</pdfrwt>
<totfact> 0.98993522E+00</totfact>
</mgrwt>
</event>
<event>
 6    1  0.2325157E-005  0.3098035E+04  0.7818608E-02  0.8216277E-01
          2   -1    0    0  501    0  0.00000000000E+00  0.00000000000E+00  0.22372335007E+04  0.22372335007E+04  0.00000000000E+00 0.  1.
         -2   -1    0    0    0  501 -0.00000000000E+00 -0.00000000000E+00 -0.10725097678E+04  0.10725097678E+04  0.00000000000E+00 0. -1.
         23    2    1    2    0    0 -0.15102723282E+04 -0.16395957701E+03  0.89912616944E+03  0.17675541381E+04  0.89523820183E+02 0.  0.
         13    1    3    3    0    0 -0.10878758272E+04 -0.15760270741E+03  0.64019636843E+03  0.12720706816E+04  0.00000000000E+00 0. -1.
        -13    1    3    3    0    0 -0.42239650101E+03 -0.63568695995E+01  0.25892980101E+03  0.49548345654E+03  0.00000000000E+00 0.  1.
         22    1    1    2    0    0  0.15102723282E+04  0.16395957701E+03  0.26559756346E+03  0.15421891304E+04  0.00000000000E+00 0. -1.
<mgrwt>
<rscale>  0 0.30980347E+04</rscale>
<asrwt>0</asrwt>
<pdfrwt beam="1">  1        2 0.34418977E+00 0.30980347E+04</pdfrwt>
<pdfrwt beam="2">  1       -2 0.16500150E+00 0.30980347E+04</pdfrwt>
<totfact> 0.96722423E-01</totfact>
</mgrwt>
</event>
<event>
 6    1  0.2325157E-005  0.1420449E+04  0.7818608E-02  0.8939148E-01
          2   -1    0    0  501    0  0.00000000000E+00  0.00000000000E+00  0.11385571968E+04  0.11385571968E+04  0.00000000000E+00 0.  1.
         -2   -1    0    0    0  501 -0.00000000000E+00 -0.00000000000E+00 -0.44303368474E+03  0.44303368474E+03  0.00000000000E+00 0. -1.
         23    2    1    2    0    0  0.16361013182E+03 -0.23052111613E+03 -0.37270667060E+03  0.47659134157E+03  0.91218333335E+02 0.  0.
         11    1    3    3    0    0  0.11118617919E+03 -0.11328307821E+03 -0.26535850939E+03  0.30920957417E+03  0.00000000000E+00 0. -1.
        -11    1    3    3    0    0  0.52423952630E+02 -0.11723803791E+03 -0.10734816121E+03  0.16738176740E+03  0.00000000000E+00 0.  1.
         22    1    1    2    0    0 -0.16361013182E+03  0.23052111613E+03  0.10682301827E+04  0.11049995400E+04  0.00000000000E+00 0.  1.
<mgrwt>
<rscale>  0 0.14204495E+04</rscale>
<asrwt>0</asrwt>
<pdfrwt beam="1">  1        2 0.17516265E+00 0.14204495E+04</pdfrwt>
<pdfrwt beam="2">  1       -2 0.68159029E-01 0.14204495E+04</pdfrwt>
<totfact> 0.39506609E+01</totfact>
</mgrwt>
</event>
<event>
 6    1  0.2325157E-005  0.2849199E+04  0.7818608E-02  0.8288155E-01
          1   -1    0    0  501    0  0.00000000000E+00  0.00000000000E+00  0.33247577713E+04  0.33247577713E+04  0.00000000000E+00 0.  1.
         -1   -1    0    0    0  501 -0.00000000000E+00 -0.00000000000E+00 -0.61041561991E+03  0.61041561991E+03  0.00000000000E+00 0. -1.
         23    2    1    2    0    0  0.71163038912E+03 -0.51907591437E+03  0.29024527793E+04  0.30344829761E+04  0.89426959190E+02 0.  0.
         11    1    3    3    0    0  0.43596919587E+03 -0.33671766347E+03  0.19498594187E+04  0.20261785897E+04  0.00000000000E+00 0.  1.
        -11    1    3    3    0    0  0.27566119326E+03 -0.18235825090E+03  0.95259336054E+03  0.10083043864E+04  0.00000000000E+00 0. -1.
         22    1    1    2    0    0 -0.71163038912E+03  0.51907591437E+03 -0.18811062781E+03  0.90069041513E+03  0.00000000000E+00 0. -1.
<mgrwt>
<rscale>  0 0.28491992E+04</rscale>
<asrwt>0</asrwt>
<pdfrwt beam="1">  1        1 0.51150119E+00 0.28491992E+04</pdfrwt>
<pdfrwt beam="2">  1       -1 0.93910097E-01 0.28491992E+04</pdfrwt>
<totfact> 0.32370900E-01</totfact>
</mgrwt>
</event>
<event>
 6    1  0.2325157E-005  0.1031314E+04  0.7818608E-02  0.9274852E-01
          2   -1    0    0  501    0  0.00000000000E+00  0.00000000000E+00  0.80152010977E+03  0.80152010977E+03  0.00000000000E+00 0.  1.
         -2   -1    0    0    0  501 -0.00000000000E+00 -0.00000000000E+00 -0.33174724831E+03  0.33174724831E+03  0.00000000000E+00 0. -1.
         23    2    1    2    0    0  0.31910945315E+03  0.17269936708E+03 -0.15934760181E+03  0.40701088012E+03  0.92791615226E+02 0.  0.
         11    1    3    3    0    0  0.25238577693E+03  0.10186990343E+03 -0.86935696310E+02  0.28571642045E+03  0.00000000000E+00 0.  1.
        -11    1    3    3    0    0  0.66723676218E+02  0.70829463652E+02 -0.72411905500E+02  0.12129445967E+03  0.00000000000E+00 0. -1.
         22    1    1    2    0    0 -0.31910945315E+03 -0.17269936708E+03  0.62912046327E+03  0.72625647796E+03  0.00000000000E+00 0.  1.
<mgrwt>
<rscale>  0 0.10313139E+04</rscale>
<asrwt>0</asrwt>
<pdfrwt beam="1">  1        2 0.12331079E+00 0.10313139E+04</pdfrwt>
<pdfrwt beam="2">  1       -2 0.51038039E-01 0.10313139E+04</pdfrwt>
<totfact> 0.12426489E+02</totfact>
</mgrwt>
</event>
<event>
 6    1  0.2325157E-005  0.2079734E+04  0.7818608E-02  0.8570224E-01
         -2   -1    0    0    0  501 -0.00000000000E+00  0.00000000000E+00  0.61755754447E+03  0.61755754447E+03  0.00000000000E+00 0. -1.
          2   -1    0    0  501    0  0.00000000000E+00 -0.00000000000E+00 -0.17509676808E+04  0.17509676808E+04  0.00000000000E+00 0.  1.
         23    2    1    2    0    0 -0.22066167957E+02 -0.98190221728E+03 -0.18559371966E+03  0.10036168621E+04  0.90459367145E+02 0.  0.
         11    1    3    3    0    0  0.24212264222E+02 -0.51329787985E+03 -0.68698454119E+02  0.51844037728E+03  0.00000000000E+00 0. -1.
        -11    1    3    3    0    0 -0.46278432179E+02 -0.46860433743E+03 -0.11689526554E+03  0.48517648485E+03  0.00000000000E+00 0.  1.
         22    1    1    2    0    0  0.22066167957E+02  0.98190221728E+03 -0.94781641669E+03  0.13649083632E+04  0.00000000000E+00 0. -1.
<mgrwt>
<rscale>  0 0.20797339E+04</rscale>
<asrwt>0</asrwt>
<pdfrwt beam="1">  1        2 0.26937964E+00 0.20797339E+04</pdfrwt>
<pdfrwt beam="2">  1       -2 0.95008854E-01 0.20797339E+04</pdfrwt>
<totfact> 0.79021664E+00</totfact>
</mgrwt>
</event>
<event>
 6    1  0.2325157E-005  0.3250866E+04  0.7818608E-02  0.8175511E-01
         -2   -1    0    0    0  501 -0.00000000000E+00  0.00000000000E+00  0.17909555690E+04  0.17909555690E+04  0.00000000000E+00 0. -1.
          2   -1    0    0  501    0  0.00000000000E+00 -0.00000000000E+00 -0.14752080141E+04  0.14752080141E+04  0.00000000000E+00 0.  1.
         23    2    1    2    0    0  0.65839307542E+03 -0.14516632085E+04  0.47085153411E+03  0.16646440681E+04  0.92364459979E+02 0.  0.
         11    1    3    3    0    0  0.91005937279E+02 -0.18511874372E+03  0.29804676019E+02  0.20842108485E+03  0.00000000000E+00 0.  1.
        -11    1    3    3    0    0  0.56738713814E+03 -0.12665444648E+04  0.44104685809E+03  0.14562229832E+04  0.00000000000E+00 0. -1.
         22    1    1    2    0    0 -0.65839307542E+03  0.14516632085E+04 -0.15510397921E+03  0.16015195150E+04  0.00000000000E+00 0.  1.
<mgrwt>
<rscale>  0 0.32508657E+04</rscale>
<asrwt>0</asrwt>
<pdfrwt beam="1">  1        2 0.22695508E+00 0.32508657E+04</pdfrwt>
<pdfrwt beam="2">  1       -2 0.27553163E+00 0.32508657E+04</pdfrwt>
<totfact> 0.49296606E-01</totfact>
</mgrwt>
</event>
<event>
 6    1  0.2325157E-005  0.1666159E+04  0.7818608E-02  0.8780904E-01
         -2   -1    0    0    0  501 -0.00000000000E+00  0.00000000000E+00  0.34802008176E+03  0.34802008176E+03  0.00000000000E+00 0. -1.
          2   -1    0    0  501    0  0.00000000000E+00 -0.00000000000E+00 -0.19942001154E+04  0.19942001154E+04  0.00000000000E+00 0.  1.
         23    2    1    2    0    0 -0.66258717285E+03 -0.45401462816E+03 -0.11250102724E+04  0.13847396677E+04  0.81882782841E+02 0.  0.
         13    1    3    3    0    0 -0.41739569081E+03 -0.25105534778E+03 -0.63217618241E+03  0.79805681249E+03  0.00000000000E+00 0. -1.
        -13    1    3    3    0    0 -0.24519148205E+03 -0.20295928037E+03 -0.49283409000E+03  0.58668285523E+03  0.00000000000E+00 0.  1.
         22    1    1    2    0    0  0.66258717285E+03  0.45401462816E+03 -0.52116976119E+03  0.95748052941E+03  0.00000000000E+00 0.  1.
<mgrwt>
<rscale>  0 0.16661593E+04</rscale>
<asrwt>0</asrwt>
<pdfrwt beam="1">  1        2 0.30680001E+00 0.16661593E+04</pdfrwt>
<pdfrwt beam="2">  1       -2 0.53541552E-01 0.16661593E+04</pdfrwt>
<totfact> 0.21113855E+01</totfact>
</mgrwt>
</event>
<event>
 6    1  0.2325157E-005  0.1355938E+04  0.7818608E-02  0.8986345E-01
          2   -1    0    0  501    0  0.00000000000E+00  0.00000000000E+00  0.25965484527E+04  0.25965484527E+04  0.00000000000E+00 0.  1.
         -2   -1    0    0    0  501 -0.00000000000E+00 -0.00000000000E+00 -0.17702041820E+03  0.17702041820E+03  0.00000000000E+00 0. -1.
         23    2    1    2    0    0  0.12212689583E+03  0.47493593555E+03  0.26627236256E+03  0.56517825546E+03  0.89701548600E+02 0.  0.
         11    1    3    3    0    0  0.30330315885E+02  0.28125586851E+03  0.17162744812E+03  0.33087878835E+03  0.00000000000E+00 0. -1.
        -11    1    3    3    0    0  0.91796579947E+02  0.19368006705E+03  0.94644914438E+02  0.23429946711E+03  0.00000000000E+00 0.  1.
         22    1    1    2    0    0 -0.12212689583E+03 -0.47493593555E+03  0.21532556719E+04  0.22083906154E+04  0.00000000000E+00 0.  1.
<mgrwt>
<rscale>  0 0.13559382E+04</rscale>
<asrwt>0</asrwt>
<pdfrwt beam="1">  1        2 0.39946896E+00 0.13559382E+04</pdfrwt>
<pdfrwt beam="2">  1       -2 0.27233912E-01 0.13559382E+04</pdfrwt>
<totfact> 0.36811996E+01</totfact>
</mgrwt>
</event>
<event>
 6    1  0.2325157E-005  0.3035224E+04  0.7818608E-02  0.8233743E-01
          2   -1    0    0  501    0  0.00000000000E+00  0.00000000000E+00  0.26403691651E+04  0.26403691651E+04  0.00000000000E+00 0.  1.
         -2   -1    0    0    0  501 -0.00000000000E+00 -0.00000000000E+00 -0.87228207288E+03  0.87228207288E+03  0.00000000000E+00 0. -1.
         23    2    1    2    0    0 -0.59582769024E+03  0.10164756094E+04 -0.21930443965E+03  0.12022490215E+04  0.95262645358E+02 0.  0.
         13    1    3    3    0    0 -0.30601306943E+03  0.53671637874E+03 -0.67156987855E+02  0.62146482675E+03  0.00000000000E+00 0.  1.
        -13    1    3    3    0    0 -0.28981462081E+03  0.47975923063E+03 -0.15214745179E+03  0.58078419477E+03  0.00000000000E+00 0. -1.
         22    1    1    2    0    0  0.59582769024E+03 -0.10164756094E+04  0.19873915319E+04  0.23104022165E+04  0.00000000000E+00 0.  1.
<mgrwt>
<rscale>  0 0.30352243E+04</rscale>
<asrwt>0</asrwt>
<pdfrwt beam="1">  1        2 0.40621064E+00 0.30352243E+04</pdfrwt>
<pdfrwt beam="2">  1       -2 0.13419724E+00 0.30352243E+04</pdfrwt>
<totfact> 0.98472196E-01</totfact>
</mgrwt>
</event>
<event>
 6    1  0.2325157E-005  0.2122308E+04  0.7818608E-02  0.8551480E-01
          2   -1    0    0  501    0  0.00000000000E+00  0.00000000000E+00  0.92712039659E+03  0.92712039659E+03  0.00000000000E+00 0.  1.
         -2   -1    0    0    0  501 -0.00000000000E+00 -0.00000000000E+00 -0.12145642645E+04  0.12145642645E+04  0.00000000000E+00 0. -1.
         23    2    1    2    0    0  0.93210562091E+01 -0.40312677374E+03 -0.11324226793E+04  0.12054222675E+04  0.89797776262E+02 0.  0.
         13    1    3    3    0    0 -0.31791784262E+02 -0.11085496916E+03 -0.26007849008E+03  0.28450019813E+03  0.00000000000E+00 0. -1.
        -13    1    3    3    0    0  0.41112840471E+02 -0.29227180458E+03 -0.87234418923E+03  0.92092206939E+03  0.00000000000E+00 0.  1.
         22    1    1    2    0    0 -0.93210562091E+01  0.40312677374E+03  0.84497881142E+03  0.93626239354E+03  0.00000000000E+00 0.  1.
<mgrwt>
<rscale>  0 0.21223075E+04</rscale>
<asrwt>0</asrwt>
<pdfrwt beam="1">  1        2 0.14263391E+00 0.21223075E+04</pdfrwt>
<pdfrwt beam="2">  1       -2 0.18685604E+00 0.21223075E+04</pdfrwt>
<totfact> 0.42080175E+00</totfact>
</mgrwt>
</event>
<event>
 6    1  0.2325157E-005  0.2961153E+04  0.7818608E-02  0.8254912E-01
         -2   -1    0    0    0  501 -0.00000000000E+00  0.00000000000E+00  0.15432231819E+04  0.15432231819E+04  0.00000000000E+00 0. -1.
          2   -1    0    0  501    0  0.00000000000E+00 -0.00000000000E+00 -0.14204732459E+04  0.14204732459E+04  0.00000000000E+00 0.  1.
         23    2    1    2    0    0 -0.10564894861E+04  0.80863660690E+03 -0.58537222467E+03  0.14565467369E+04  0.93832611371E+02 0.  0.
         11    1    3    3    0    0 -0.39247857865E+03  0.28787222768E+03 -0.26265352438E+03  0.55307931442E+03  0.00000000000E+00 0.  1.
        -11    1    3    3    0    0 -0.66401090750E+03  0.52076437922E+03 -0.32271870028E+03  0.90346742246E+03  0.00000000000E+00 0. -1.
         22    1    1    2    0    0  0.10564894861E+04 -0.80863660690E+03  0.70812216068E+03  0.15071496909E+04  0.00000000000E+00 0. -1.
<mgrwt>
<rscale>  0 0.29611533E+04</rscale>
<asrwt>0</asrwt>
<pdfrwt beam="1">  1        2 0.21853435E+00 0.29611533E+04</pdfrwt>
<pdfrwt beam="2">  1       -2 0.23741895E+00 0.29611533E+04</pdfrwt>
<totfact> 0.92969811E-01</totfact>
</mgrwt>
</event>
<event>
 6    1  0.2325157E-005  0.1720637E+04  0.7818608E-02  0.8749681E-01
          2   -1    0    0  501    0  0.00000000000E+00  0.00000000000E+00  0.63036994318E+03  0.63036994318E+03  0.00000000000E+00 0.  1.
         -2   -1    0    0    0  501 -0.00000000000E+00 -0.00000000000E+00 -0.11741481239E+04  0.11741481239E+04  0.00000000000E+00 0. -1.
         23    2    1    2    0    0 -0.58334371000E+03 -0.55296263341E+03 -0.58737223166E+03  0.99955968360E+03  0.89754468451E+02 0.  0.
         11    1    3    3    0    0 -0.31619349365E+03 -0.24751756331E+03 -0.26243041937E+03  0.47970094287E+03  0.00000000000E+00 0.  1.
        -11    1    3    3    0    0 -0.26715021635E+03 -0.30544507010E+03 -0.32494181229E+03  0.51985874073E+03  0.00000000000E+00 0. -1.
         22    1    1    2    0    0  0.58334371000E+03  0.55296263341E+03  0.43594050894E+02  0.80495838353E+03  0.00000000000E+00 0.  1.
<mgrwt>
<rscale>  0 0.17206367E+04</rscale>
<asrwt>0</asrwt>
<pdfrwt beam="1">  1        2 0.96979991E-01 0.17206367E+04</pdfrwt>
<pdfrwt beam="2">  1       -2 0.18063817E+00 0.17206367E+04</pdfrwt>
<totfact> 0.79560037E+00</totfact>
</mgrwt>
</event>
<event>
 6    1  0.2325157E-005  0.1693610E+04  0.7818608E-02  0.8765017E-01
         -2   -1    0    0    0  501 -0.00000000000E+00  0.00000000000E+00  0.43305168680E+03  0.43305168680E+03  0.00000000000E+00 0. -1.
          2   -1    0    0  501    0  0.00000000000E+00 -0.00000000000E+00 -0.16558728878E+04  0.16558728878E+04  0.00000000000E+00 0.  1.
         23    2    1    2    0    0  0.34809041941E+02  0.26409272786E+03  0.37678801074E+03  0.46728766438E+03  0.73701546379E+02 0.  0.
         13    1    3    3    0    0  0.36873600357E+02  0.18224073861E+03  0.31061477120E+03  0.36201227230E+03  0.00000000000E+00 0. -1.
        -13    1    3    3    0    0 -0.20645584157E+01  0.81851989254E+02  0.66173239536E+02  0.10527539208E+03  0.00000000000E+00 0.  1.
         22    1    1    2    0    0 -0.34809041941E+02 -0.26409272786E+03 -0.15996092118E+04  0.16216369103E+04  0.00000000000E+00 0.  1.
<mgrwt>
<rscale>  0 0.16936098E+04</rscale>
<asrwt>0</asrwt>
<pdfrwt beam="1">  1        2 0.25474967E+00 0.16936098E+04</pdfrwt>
<pdfrwt beam="2">  1       -2 0.66623337E-01 0.16936098E+04</pdfrwt>
<totfact> 0.20449783E+01</totfact>
</mgrwt>
</event>
<event>
 6    1  0.2325157E-005  0.1920501E+04  0.7818608E-02  0.8644718E-01
          2   -1    0    0  501    0  0.00000000000E+00  0.00000000000E+00  0.10894333202E+04  0.10894333202E+04  0.00000000000E+00 0.  1.
         -2   -1    0    0    0  501 -0.00000000000E+00 -0.00000000000E+00 -0.84638612196E+03  0.84638612196E+03  0.00000000000E+00 0. -1.
         23    2    1    2    0    0  0.54884960880E+03  0.74279703379E+03  0.37825088699E+03  0.10024045484E+04  0.93583217665E+02 0.  0.
         13    1    3    3    0    0  0.10431418626E+03  0.18063376047E+03  0.52120780796E+02  0.21500367594E+03  0.00000000000E+00 0. -1.
        -13    1    3    3    0    0  0.44453542254E+03  0.56216327332E+03  0.32613010620E+03  0.78740087245E+03  0.00000000000E+00 0.  1.
         22    1    1    2    0    0 -0.54884960880E+03 -0.74279703379E+03 -0.13520368873E+03  0.93341489378E+03  0.00000000000E+00 0.  1.
<mgrwt>
<rscale>  0 0.19205012E+04</rscale>
<asrwt>0</asrwt>
<pdfrwt beam="1">  1        2 0.16760513E+00 0.19205012E+04</pdfrwt>
<pdfrwt beam="2">  1       -2 0.13021325E+00 0.19205012E+04</pdfrwt>
<totfact> 0.89447238E+00</totfact>
</mgrwt>
</event>
<event>
 6    1  0.2325157E-005  0.1983002E+04  0.7818608E-02  0.8614609E-01
          2   -1    0    0  501    0  0.00000000000E+00  0.00000000000E+00  0.22478117375E+04  0.22478117375E+04  0.00000000000E+00 0.  1.
         -2   -1    0    0    0  501 -0.00000000000E+00 -0.00000000000E+00 -0.43734703241E+03  0.43734703241E+03  0.00000000000E+00 0. -1.
         23    2    1    2    0    0 -0.54949869755E+03  0.59837318978E+03  0.14304397731E+03  0.83035657660E+03  0.95032478653E+02 0.  0.
         11    1    3    3    0    0 -0.21080501681E+03  0.23131479709E+03  0.10227746018E+03  0.32925061781E+03  0.00000000000E+00 0. -1.
        -11    1    3    3    0    0 -0.33869368073E+03  0.36705839269E+03  0.40766517128E+02  0.50110595879E+03  0.00000000000E+00 0.  1.
         22    1    1    2    0    0  0.54949869755E+03 -0.59837318978E+03  0.16674207278E+04  0.18548021933E+04  0.00000000000E+00 0.  1.
<mgrwt>
<rscale>  0 0.19830016E+04</rscale>
<asrwt>0</asrwt>
<pdfrwt beam="1">  1        2 0.34581718E+00 0.19830016E+04</pdfrwt>
<pdfrwt beam="2">  1       -2 0.67284160E-01 0.19830016E+04</pdfrwt>
<totfact> 0.91488875E+00</totfact>
</mgrwt>
</event>
<event>
 6    1  0.2325157E-005  0.2283000E+04  0.7818608E-02  0.8484654E-01
         -2   -1    0    0    0  501 -0.00000000000E+00  0.00000000000E+00  0.18314147581E+04  0.18314147581E+04  0.00000000000E+00 0. -1.
          2   -1    0    0  501    0  0.00000000000E+00 -0.00000000000E+00 -0.71148420580E+03  0.71148420580E+03  0.00000000000E+00 0.  1.
         23    2    1    2    0    0  0.68139395281E+02 -0.53767068992E+03 -0.55588451474E+03  0.78162417362E+03  0.90531801443E+02 0.  0.
         11    1    3    3    0    0  0.26527447917E+02 -0.14813806250E+03 -0.21431663512E+03  0.26187823725E+03  0.00000000000E+00 0. -1.
        -11    1    3    3    0    0  0.41611947364E+02 -0.38953262742E+03 -0.34156787962E+03  0.51974593637E+03  0.00000000000E+00 0.  1.
         22    1    1    2    0    0 -0.68139395281E+02  0.53767068992E+03  0.16758150671E+04  0.17612747903E+04  0.00000000000E+00 0. -1.
<mgrwt>
<rscale>  0 0.22830004E+04</rscale>
<asrwt>0</asrwt>
<pdfrwt beam="1">  1        2 0.10945911E+00 0.22830004E+04</pdfrwt>
<pdfrwt beam="2">  1       -2 0.28175612E+00 0.22830004E+04</pdfrwt>
<totfact> 0.14972648E+00</totfact>
</mgrwt>
</event>
<event>
 6    1  0.2325157E-005  0.5490331E+04  0.7818608E-02  0.7757021E-01
         -2   -1    0    0    0  501 -0.00000000000E+00  0.00000000000E+00  0.24388005153E+04  0.24388005153E+04  0.00000000000E+00 0. -1.
          2   -1    0    0  501    0  0.00000000000E+00 -0.00000000000E+00 -0.30900164658E+04  0.30900164658E+04  0.00000000000E+00 0.  1.
         23    2    1    2    0    0 -0.21412590124E+04 -0.15575575835E+04 -0.10526903221E+04  0.28507285854E+04  0.86722368479E+02 0.  0.
         13    1    3    3    0    0 -0.67046622065E+03 -0.43908240330E+03 -0.32535073002E+03  0.86496902108E+03  0.00000000000E+00 0. -1.
        -13    1    3    3    0    0 -0.14707927917E+04 -0.11184751802E+04 -0.72733959209E+03  0.19857595643E+04  0.00000000000E+00 0.  1.
         22    1    1    2    0    0  0.21412590124E+04  0.15575575835E+04  0.40147437160E+03  0.26780883957E+04  0.00000000000E+00 0. -1.
<mgrwt>
<rscale>  0 0.54903310E+04</rscale>
<asrwt>0</asrwt>
<pdfrwt beam="1">  1        2 0.47538715E+00 0.54903310E+04</pdfrwt>
<pdfrwt beam="2">  1       -2 0.37520008E+00 0.54903310E+04</pdfrwt>
<totfact> 0.11495884E-02</totfact>
</mgrwt>
</event>
<event>
 6    1  0.2325157E-005  0.3499585E+04  0.7818608E-02  0.8113888E-01
         -1   -1    0    0    0  501 -0.00000000000E+00  0.00000000000E+00  0.13877378455E+04  0.13877378455E+04  0.00000000000E+00 0. -1.
          1   -1    0    0  501    0  0.00000000000E+00 -0.00000000000E+00 -0.22063052216E+04  0.22063052216E+04  0.00000000000E+00 0.  1.
         23    2    1    2    0    0 -0.99996486252E+03 -0.14344591611E+04 -0.41248780701E+03  0.17989098052E+04  0.91255054373E+02 0.  0.
         11    1    3    3    0    0 -0.93990673798E+03 -0.13314919463E+04 -0.40550588030E+03  0.16795030510E+04  0.00000000000E+00 0.  1.
        -11    1    3    3    0    0 -0.60058124543E+02 -0.10296721480E+03 -0.69819267034E+01  0.11940675420E+03  0.00000000000E+00 0. -1.
         22    1    1    2    0    0  0.99996486252E+03  0.14344591611E+04 -0.40607956909E+03  0.17951332618E+04  0.00000000000E+00 0. -1.
<mgrwt>
<rscale>  0 0.34995847E+04</rscale>
<asrwt>0</asrwt>
<pdfrwt beam="1">  1        1 0.33943157E+00 0.34995847E+04</pdfrwt>
<pdfrwt beam="2">  1       -1 0.21349813E+00 0.34995847E+04</pdfrwt>
<totfact> 0.21423004E-01</totfact>
</mgrwt>
</event>
<event>
 6    1  0.2325157E-005  0.3089651E+04  0.7818608E-02  0.8218584E-01
         -2   -1    0    0    0  501 -0.00000000000E+00  0.00000000000E+00  0.99177545422E+03  0.99177545422E+03  0.00000000000E+00 0. -1.
          2   -1    0    0  501    0  0.00000000000E+00 -0.00000000000E+00 -0.24062757786E+04  0.24062757786E+04  0.00000000000E+00 0.  1.
         23    2    1    2    0    0 -0.13734610031E+04  0.66327623816E+03 -0.96868357204E+03  0.18090002356E+04  0.88337391453E+02 0.  0.
         11    1    3    3    0    0 -0.47390713910E+03  0.23942518322E+03 -0.28910606065E+03  0.60456158425E+03  0.00000000000E+00 0.  1.
        -11    1    3    3    0    0 -0.89955386395E+03  0.42385105494E+03 -0.67957751139E+03  0.12044386514E+04  0.00000000000E+00 0. -1.
         22    1    1    2    0    0  0.13734610031E+04 -0.66327623816E+03 -0.44581675234E+03  0.15890509972E+04  0.00000000000E+00 0.  1.
<mgrwt>
<rscale>  0 0.30896506E+04</rscale>
<asrwt>0</asrwt>
<pdfrwt beam="1">  1        2 0.37019627E+00 0.30896506E+04</pdfrwt>
<pdfrwt beam="2">  1       -2 0.15258084E+00 0.30896506E+04</pdfrwt>
<totfact> 0.95911809E-01</totfact>
</mgrwt>
</event>
<event>
 6    1  0.2325157E-005  0.3403313E+04  0.7818608E-02  0.8137094E-01
         -1   -1    0    0    0  501 -0.00000000000E+00  0.00000000000E+00  0.26068534017E+04  0.26068534017E+04  0.00000000000E+00 0. -1.
          1   -1    0    0  501    0  0.00000000000E+00 -0.00000000000E+00 -0.11107781079E+04  0.11107781079E+04  0.00000000000E+00 0.  1.
         23    2    1    2    0    0 -0.77585184477E+03  0.89780149671E+03 -0.58181923924E+03  0.13248006959E+04  0.92680332701E+02 0.  0.
         11    1    3    3    0    0 -0.71643198296E+03  0.81352198971E+03 -0.50313152195E+03  0.11950875040E+04  0.00000000000E+00 0. -1.
        -11    1    3    3    0    0 -0.59419861815E+02  0.84279506996E+02 -0.78687717291E+02  0.12971319181E+03  0.00000000000E+00 0.  1.
         22    1    1    2    0    0  0.77585184477E+03 -0.89780149671E+03  0.20778945330E+04  0.23928308137E+04  0.00000000000E+00 0. -1.
<mgrwt>
<rscale>  0 0.34033135E+04</rscale>
<asrwt>0</asrwt>
<pdfrwt beam="1">  1        1 0.17088894E+00 0.34033135E+04</pdfrwt>
<pdfrwt beam="2">  1       -1 0.40105437E+00 0.34033135E+04</pdfrwt>
<totfact> 0.71948002E-02</totfact>
</mgrwt>
</event>
<event>
 6    1  0.2325157E-005  0.1255669E+04  0.7818608E-02  0.9065478E-01
          2   -1    0    0  501    0  0.00000000000E+00  0.00000000000E+00  0.27476399341E+04  0.27476399341E+04  0.00000000000E+00 0.  1.
         -2   -1    0    0    0  501 -0.00000000000E+00 -0.00000000000E+00 -0.14345980591E+03  0.14345980591E+03  0.00000000000E+00 0. -1.
         23    2    1    2    0    0  0.21271580676E+03  0.44607835199E+03  0.21881958164E+04  0.22451300362E+04  0.90410386906E+02 0.  0.
         13    1    3    3    0    0  0.87312710632E+02  0.21837403161E+03  0.85091980889E+03  0.88282231977E+03  0.00000000000E+00 0. -1.
        -13    1    3    3    0    0  0.12540309613E+03  0.22770432038E+03  0.13372760075E+04  0.13623077164E+04  0.00000000000E+00 0.  1.
         22    1    1    2    0    0 -0.21271580676E+03 -0.44607835199E+03  0.41598431179E+03  0.64596970379E+03  0.00000000000E+00 0. -1.
<mgrwt>
<rscale>  0 0.12556686E+04</rscale>
<asrwt>0</asrwt>
<pdfrwt beam="1">  1        2 0.42271380E+00 0.12556686E+04</pdfrwt>
<pdfrwt beam="2">  1       -2 0.22070741E-01 0.12556686E+04</pdfrwt>
<totfact> 0.44271685E+01</totfact>
</mgrwt>
</event>
<event>
 6    1  0.2325157E-005  0.2425911E+04  0.7818608E-02  0.8429866E-01
          2   -1    0    0  501    0  0.00000000000E+00  0.00000000000E+00  0.88415170296E+03  0.88415170296E+03  0.00000000000E+00 0.  1.
         -2   -1    0    0    0  501 -0.00000000000E+00 -0.00000000000E+00 -0.16640367920E+04  0.16640367920E+04  0.00000000000E+00 0. -1.
         23    2    1    2    0    0 -0.12972444683E+03  0.10821261280E+04 -0.94604325036E+03  0.14457212966E+04  0.85363029115E+02 0.  0.
         13    1    3    3    0    0  0.13314073851E+01  0.27709370562E+03 -0.22137745375E+03  0.35466980611E+03  0.00000000000E+00 0. -1.
        -13    1    3    3    0    0 -0.13105585422E+03  0.80503242241E+03 -0.72466579661E+03  0.10910514905E+04  0.00000000000E+00 0.  1.
         22    1    1    2    0    0  0.12972444683E+03 -0.10821261280E+04  0.16615816127E+03  0.11024671984E+04  0.00000000000E+00 0.  1.
<mgrwt>
<rscale>  0 0.24259109E+04</rscale>
<asrwt>0</asrwt>
<pdfrwt beam="1">  1        2 0.13602334E+00 0.24259109E+04</pdfrwt>
<pdfrwt beam="2">  1       -2 0.25600566E+00 0.24259109E+04</pdfrwt>
<totfact> 0.15919448E+00</totfact>
</mgrwt>
</event>
<event>
 6    1  0.2325157E-005  0.2903344E+04  0.7818608E-02  0.8271883E-01
          2   -1    0    0  501    0  0.00000000000E+00  0.00000000000E+00  0.20657202606E+04  0.20657202606E+04  0.00000000000E+00 0.  1.
         -2   -1    0    0    0  501 -0.00000000000E+00 -0.00000000000E+00 -0.10201533516E+04  0.10201533516E+04  0.00000000000E+00 0. -1.
         23    2    1    2    0    0  0.13744977256E+04 -0.17317119610E+03  0.97912874319E+03  0.16989178484E+04  0.91632412160E+02 0.  0.
         11    1    3    3    0    0  0.43759937428E+03 -0.96575801357E+02  0.30146826437E+03  0.54009555840E+03  0.00000000000E+00 0. -1.
        -11    1    3    3    0    0  0.93689835132E+03 -0.76595394743E+02  0.67766047882E+03  0.11588222900E+04  0.00000000000E+00 0.  1.
         22    1    1    2    0    0 -0.13744977256E+04  0.17317119610E+03  0.66438165856E+02  0.13869557638E+04  0.00000000000E+00 0. -1.
<mgrwt>
<rscale>  0 0.29033439E+04</rscale>
<asrwt>0</asrwt>
<pdfrwt beam="1">  1        2 0.31780312E+00 0.29033439E+04</pdfrwt>
<pdfrwt beam="2">  1       -2 0.15694667E+00 0.29033439E+04</pdfrwt>
<totfact> 0.14064161E+00</totfact>
</mgrwt>
</event>
<event>
 6    1  0.2325157E-005  0.4158240E+04  0.7818608E-02  0.7973364E-01
          2   -1    0    0  501    0  0.00000000000E+00  0.00000000000E+00  0.23319594028E+04  0.23319594028E+04  0.00000000000E+00 0.  1.
         -2   -1    0    0    0  501 -0.00000000000E+00 -0.00000000000E+00 -0.18536944419E+04  0.18536944419E+04  0.00000000000E+00 0. -1.
         23    2    1    2    0    0 -0.32770473641E+03  0.92810559491E+03 -0.16030383882E+04  0.18833519487E+04  0.92261037786E+02 0.  0.
         11    1    3    3    0    0 -0.80644289493E+02  0.33623626897E+03 -0.61068480697E+03  0.70177935526E+03  0.00000000000E+00 0.  1.
        -11    1    3    3    0    0 -0.24706044692E+03  0.59186932595E+03 -0.99235358123E+03  0.11815725935E+04  0.00000000000E+00 0. -1.
         22    1    1    2    0    0  0.32770473641E+03 -0.92810559491E+03  0.20813033490E+04  0.23023018960E+04  0.00000000000E+00 0.  1.
<mgrwt>
<rscale>  0 0.41582401E+04</rscale>
<asrwt>0</asrwt>
<pdfrwt beam="1">  1        2 0.35876298E+00 0.41582401E+04</pdfrwt>
<pdfrwt beam="2">  1       -2 0.28518376E+00 0.41582401E+04</pdfrwt>
<totfact> 0.13260071E-01</totfact>
</mgrwt>
</event>
<event>
 6    1  0.2325157E-005  0.3766691E+04  0.7818608E-02  0.8053341E-01
         -2   -1    0    0    0  501 -0.00000000000E+00  0.00000000000E+00  0.15176325179E+04  0.15176325179E+04  0.00000000000E+00 0. -1.
          2   -1    0    0  501    0  0.00000000000E+00 -0.00000000000E+00 -0.23371871335E+04  0.23371871335E+04  0.00000000000E+00 0.  1.
         23    2    1    2    0    0  0.58285274133E+03  0.12054119608E+04 -0.17638853349E+04  0.22163765427E+04  0.91094408504E+02 0.  0.
         11    1    3    3    0    0  0.34711281360E+03  0.81322090681E+03 -0.11426263684E+04  0.14447873776E+04  0.00000000000E+00 0. -1.
        -11    1    3    3    0    0  0.23573992773E+03  0.39219105394E+03 -0.62125896646E+03  0.77158916512E+03  0.00000000000E+00 0.  1.
         22    1    1    2    0    0 -0.58285274133E+03 -0.12054119608E+04  0.94433071919E+03  0.16384431087E+04  0.00000000000E+00 0. -1.
<mgrwt>
<rscale>  0 0.37666915E+04</rscale>
<asrwt>0</asrwt>
<pdfrwt beam="1">  1        2 0.35956725E+00 0.37666915E+04</pdfrwt>
<pdfrwt beam="2">  1       -2 0.23348193E+00 0.37666915E+04</pdfrwt>
<totfact> 0.28233232E-01</totfact>
</mgrwt>
</event>
<event>
 6    1  0.2325157E-005  0.3025031E+04  0.7818608E-02  0.8236619E-01
         -2   -1    0    0    0  501 -0.00000000000E+00  0.00000000000E+00  0.80160829140E+03  0.80160829140E+03  0.00000000000E+00 0. -1.
          2   -1    0    0  501    0  0.00000000000E+00 -0.00000000000E+00 -0.28538919713E+04  0.28538919713E+04  0.00000000000E+00 0.  1.
         23    2    1    2    0    0 -0.11706665540E+04  0.94401558883E+03 -0.84341956510E+03  0.17259982387E+04  0.78023999727E+02 0.  0.
         13    1    3    3    0    0 -0.62628334648E+03  0.54806421495E+03 -0.48866481421E+03  0.96508989967E+03  0.00000000000E+00 0.  1.
        -13    1    3    3    0    0 -0.54438320753E+03  0.39595137387E+03 -0.35475475089E+03  0.76090833902E+03  0.00000000000E+00 0. -1.
         22    1    1    2    0    0  0.11706665540E+04 -0.94401558883E+03 -0.12088641148E+04  0.19295020240E+04  0.00000000000E+00 0. -1.
<mgrwt>
<rscale>  0 0.30250312E+04</rscale>
<asrwt>0</asrwt>
<pdfrwt beam="1">  1        2 0.43906029E+00 0.30250312E+04</pdfrwt>
<pdfrwt beam="2">  1       -2 0.12332436E+00 0.30250312E+04</pdfrwt>
<totfact> 0.90808744E-01</totfact>
</mgrwt>
</event>
<event>
 6    1  0.2325157E-005  0.1755321E+04  0.7818608E-02  0.8730427E-01
         -2   -1    0    0    0  501 -0.00000000000E+00  0.00000000000E+00  0.32203885470E+03  0.32203885470E+03  0.00000000000E+00 0. -1.
          2   -1    0    0  501    0  0.00000000000E+00 -0.00000000000E+00 -0.23919088615E+04  0.23919088615E+04  0.00000000000E+00 0.  1.
         23    2    1    2    0    0  0.74370874157E+03 -0.16440053941E+03 -0.17045497526E+04  0.18692056740E+04  0.91157902582E+02 0.  0.
         11    1    3    3    0    0  0.61359096314E+03 -0.15537978865E+03 -0.13385424555E+04  0.14806527796E+04  0.00000000000E+00 0. -1.
        -11    1    3    3    0    0  0.13011777843E+03 -0.90207507642E+01 -0.36600729711E+03  0.38855289440E+03  0.00000000000E+00 0.  1.
         22    1    1    2    0    0 -0.74370874157E+03  0.16440053941E+03 -0.36532025423E+03  0.84474204216E+03  0.00000000000E+00 0. -1.
<mgrwt>
<rscale>  0 0.17553206E+04</rscale>
<asrwt>0</asrwt>
<pdfrwt beam="1">  1        2 0.36798596E+00 0.17553206E+04</pdfrwt>
<pdfrwt beam="2">  1       -2 0.49544441E-01 0.17553206E+04</pdfrwt>
<totfact> 0.14692049E+01</totfact>
</mgrwt>
</event>
<event>
 6    1  0.2325157E-005  0.5660749E+03  0.7818608E-02  0.9978402E-01
         -2   -1    0    0    0  501 -0.00000000000E+00  0.00000000000E+00  0.59541977459E+03  0.59541977459E+03  0.00000000000E+00 0. -1.
          2   -1    0    0  501    0  0.00000000000E+00 -0.00000000000E+00 -0.13454407090E+03  0.13454407090E+03  0.00000000000E+00 0.  1.
         23    2    1    2    0    0  0.26565795528E+03 -0.63610179058E+02  0.18270821552E+03  0.34009520664E+03  0.87533156474E+02 0.  0.
         11    1    3    3    0    0  0.25494381698E+03 -0.37028823319E+02  0.15766688092E+03  0.30203696613E+03  0.00000000000E+00 0. -1.
        -11    1    3    3    0    0  0.10714138301E+02 -0.26581355739E+02  0.25041334595E+02  0.38058240510E+02  0.00000000000E+00 0.  1.
         22    1    1    2    0    0 -0.26565795528E+03  0.63610179058E+02  0.27816748817E+03  0.38986863885E+03  0.00000000000E+00 0.  1.
<mgrwt>
<rscale>  0 0.56607491E+03</rscale>
<asrwt>0</asrwt>
<pdfrwt beam="1">  1        2 0.20699088E-01 0.56607491E+03</pdfrwt>
<pdfrwt beam="2">  1       -2 0.91603040E-01 0.56607491E+03</pdfrwt>
<totfact> 0.28009204E+02</totfact>
</mgrwt>
</event>
<event>
 6    1  0.2325157E-005  0.5096372E+04  0.7818608E-02  0.7813811E-01
         -2   -1    0    0    0  501 -0.00000000000E+00  0.00000000000E+00  0.23613383270E+04  0.23613383270E+04  0.00000000000E+00 0. -1.
          2   -1    0    0  501    0  0.00000000000E+00 -0.00000000000E+00 -0.27498185256E+04  0.27498185256E+04  0.00000000000E+00 0.  1.
         23    2    1    2    0    0  0.12491680345E+04 -0.61581264489E+02  0.20313378142E+04  0.23872383066E+04  0.91435149061E+02 0.  0.
         11    1    3    3    0    0  0.19804699400E+03  0.55567398303E+01  0.26795693684E+03  0.33324826960E+03  0.00000000000E+00 0.  1.
        -11    1    3    3    0    0  0.10511210405E+04 -0.67138004320E+02  0.17633808774E+04  0.20539900370E+04  0.00000000000E+00 0. -1.
         22    1    1    2    0    0 -0.12491680345E+04  0.61581264489E+02 -0.24198180128E+04  0.27239185460E+04  0.00000000000E+00 0.  1.
<mgrwt>
<rscale>  0 0.50963720E+04</rscale>
<asrwt>0</asrwt>
<pdfrwt beam="1">  1        2 0.42304900E+00 0.50963720E+04</pdfrwt>
<pdfrwt beam="2">  1       -2 0.36328282E+00 0.50963720E+04</pdfrwt>
<totfact> 0.22958264E-02</totfact>
</mgrwt>
</event>
<event>
 6    1  0.2325157E-005  0.4741378E+03  0.7818608E-02  0.1020759E+00
         -2   -1    0    0    0  501 -0.00000000000E+00  0.00000000000E+00  0.69804017972E+03  0.69804017972E+03  0.00000000000E+00 0. -1.
          2   -1    0    0  501    0  0.00000000000E+00 -0.00000000000E+00 -0.80513495642E+02  0.80513495642E+02  0.00000000000E+00 0.  1.
         23    2    1    2    0    0  0.11599079838E+03 -0.16392887994E+03  0.49980942623E+03  0.54577933017E+03  0.87971993884E+02 0.  0.
         13    1    3    3    0    0  0.52428495885E+02 -0.83904515287E+02  0.35507326429E+03  0.36859969870E+03  0.00000000000E+00 0.  1.
        -13    1    3    3    0    0  0.63562302493E+02 -0.80024364649E+02  0.14473616193E+03  0.17717963147E+03  0.00000000000E+00 0. -1.
         22    1    1    2    0    0 -0.11599079838E+03  0.16392887994E+03  0.11771725786E+03  0.23277434520E+03  0.00000000000E+00 0.  1.
<mgrwt>
<rscale>  0 0.47413776E+03</rscale>
<asrwt>0</asrwt>
<pdfrwt beam="1">  1        2 0.12386692E-01 0.47413776E+03</pdfrwt>
<pdfrwt beam="2">  1       -2 0.10739079E+00 0.47413776E+03</pdfrwt>
<totfact> 0.35748061E+02</totfact>
</mgrwt>
</event>
<event>
 6    1  0.2325157E-005  0.4166487E+04  0.7818608E-02  0.7971778E-01
          2   -1    0    0  501    0  0.00000000000E+00  0.00000000000E+00  0.21180569315E+04  0.21180569315E+04  0.00000000000E+00 0.  1.
         -2   -1    0    0    0  501 -0.00000000000E+00 -0.00000000000E+00 -0.20490023387E+04  0.20490023387E+04  0.00000000000E+00 0. -1.
         23    2    1    2    0    0 -0.10378809026E+04 -0.63997565082E+03  0.17227132508E+04  0.21124662306E+04  0.89482004843E+02 0.  0.
         13    1    3    3    0    0 -0.40675566434E+03 -0.24573575458E+03  0.59735980476E+03  0.76333149279E+03  0.00000000000E+00 0.  1.
        -13    1    3    3    0    0 -0.63112523830E+03 -0.39423989624E+03  0.11253534460E+04  0.13491347378E+04  0.00000000000E+00 0. -1.
         22    1    1    2    0    0  0.10378809026E+04  0.63997565082E+03 -0.16536586580E+04  0.20545930397E+04  0.00000000000E+00 0. -1.
<mgrwt>
<rscale>  0 0.41664871E+04</rscale>
<asrwt>0</asrwt>
<pdfrwt beam="1">  1        2 0.32585491E+00 0.41664871E+04</pdfrwt>
<pdfrwt beam="2">  1       -2 0.31523113E+00 0.41664871E+04</pdfrwt>
<totfact> 0.11449269E-01</totfact>
</mgrwt>
</event>
<event>
 6    1  0.2325157E-005  0.2915612E+04  0.7818608E-02  0.8268248E-01
         -2   -1    0    0    0  501 -0.00000000000E+00  0.00000000000E+00  0.80339807997E+03  0.80339807997E+03  0.00000000000E+00 0. -1.
          2   -1    0    0  501    0  0.00000000000E+00 -0.00000000000E+00 -0.26452618566E+04  0.26452618566E+04  0.00000000000E+00 0.  1.
         23    2    1    2    0    0  0.11676772185E+04  0.82192808725E+03 -0.12604720478E+04  0.19068907549E+04  0.91688062159E+02 0.  0.
         13    1    3    3    0    0  0.99228162447E+03  0.68148568424E+03 -0.10202214738E+04  0.15779408784E+04  0.00000000000E+00 0.  1.
        -13    1    3    3    0    0  0.17539559399E+03  0.14044240302E+03 -0.24025057400E+03  0.32894987652E+03  0.00000000000E+00 0. -1.
         22    1    1    2    0    0 -0.11676772185E+04 -0.82192808725E+03 -0.58139172884E+03  0.15417691817E+04  0.00000000000E+00 0. -1.
<mgrwt>
<rscale>  0 0.29156120E+04</rscale>
<asrwt>0</asrwt>
<pdfrwt beam="1">  1        2 0.40696336E+00 0.29156120E+04</pdfrwt>
<pdfrwt beam="2">  1       -2 0.12359970E+00 0.29156120E+04</pdfrwt>
<totfact> 0.12163124E+00</totfact>
</mgrwt>
</event>
<event>
 6    1  0.2325157E-005  0.6878003E+03  0.7818608E-02  0.9738326E-01
         -2   -1    0    0    0  501 -0.00000000000E+00  0.00000000000E+00  0.91062880056E+03  0.91062880056E+03  0.00000000000E+00 0. -1.
          2   -1    0    0  501    0  0.00000000000E+00 -0.00000000000E+00 -0.12987435548E+03  0.12987435548E+03  0.00000000000E+00 0.  1.
         23    2    1    2    0    0 -0.21318475856E+03  0.19020990147E+03  0.12413896244E+03  0.32442254609E+03  0.90619857189E+02 0.  0.
         13    1    3    3    0    0 -0.16192045675E+03  0.11522914473E+03  0.44577352480E+02  0.20367407901E+03  0.00000000000E+00 0.  1.
        -13    1    3    3    0    0 -0.51264301813E+02  0.74980756736E+02  0.79561609964E+02  0.12074846708E+03  0.00000000000E+00 0. -1.
         22    1    1    2    0    0  0.21318475856E+03 -0.19020990147E+03  0.65661548264E+03  0.71608060995E+03  0.00000000000E+00 0. -1.
<mgrwt>
<rscale>  0 0.68780034E+03</rscale>
<asrwt>0</asrwt>
<pdfrwt beam="1">  1        2 0.19980671E-01 0.68780034E+03</pdfrwt>
<pdfrwt beam="2">  1       -2 0.14009673E+00 0.68780034E+03</pdfrwt>
<totfact> 0.10328672E+02</totfact>
</mgrwt>
</event>
<event>
 6    1  0.2325157E-005  0.1797585E+04  0.7818608E-02  0.8707585E-01
          1   -1    0    0  501    0  0.00000000000E+00  0.00000000000E+00  0.15174245759E+04  0.15174245759E+04  0.00000000000E+00 0.  1.
         -1   -1    0    0    0  501 -0.00000000000E+00 -0.00000000000E+00 -0.53236791369E+03  0.53236791369E+03  0.00000000000E+00 0. -1.
         23    2    1    2    0    0  0.32133757427E+03 -0.78893034615E+02  0.14438602057E+04  0.14841224098E+04  0.91679256132E+02 0.  0.
         11    1    3    3    0    0  0.13797063097E+03 -0.62192178641E+02  0.49721966036E+03  0.51974142874E+03  0.00000000000E+00 0.  1.
        -11    1    3    3    0    0  0.18336694330E+03 -0.16700855974E+02  0.94664054536E+03  0.96438098105E+03  0.00000000000E+00 0. -1.
         22    1    1    2    0    0 -0.32133757427E+03  0.78893034615E+02 -0.45880354357E+03  0.56567007976E+03  0.00000000000E+00 0. -1.
<mgrwt>
<rscale>  0 0.17975852E+04</rscale>
<asrwt>0</asrwt>
<pdfrwt beam="1">  1        1 0.23344993E+00 0.17975852E+04</pdfrwt>
<pdfrwt beam="2">  1       -1 0.81902757E-01 0.17975852E+04</pdfrwt>
<totfact> 0.89066601E+00</totfact>
</mgrwt>
</event>
<event>
 6    1  0.2325157E-005  0.4481342E+04  0.7818608E-02  0.7913911E-01
         -2   -1    0    0    0  501 -0.00000000000E+00  0.00000000000E+00  0.16288616920E+04  0.16288616920E+04  0.00000000000E+00 0. -1.
          2   -1    0    0  501    0  0.00000000000E+00 -0.00000000000E+00 -0.30822798475E+04  0.30822798475E+04  0.00000000000E+00 0.  1.
         23    2    1    2    0    0  0.13044801433E+04 -0.25051609353E+02 -0.26409159553E+04  0.29469286690E+04  0.87495541247E+02 0.  0.
         11    1    3    3    0    0  0.11030942167E+04 -0.28314513784E+02 -0.21598621802E+04  0.24254119650E+04  0.00000000000E+00 0. -1.
        -11    1    3    3    0    0  0.20138592665E+03  0.32629044305E+01 -0.48105377516E+03  0.52151670405E+03  0.00000000000E+00 0.  1.
         22    1    1    2    0    0 -0.13044801433E+04  0.25051609353E+02  0.11874977999E+04  0.17642128704E+04  0.00000000000E+00 0. -1.
<mgrwt>
<rscale>  0 0.44813425E+04</rscale>
<asrwt>0</asrwt>
<pdfrwt beam="1">  1        2 0.47419689E+00 0.44813425E+04</pdfrwt>
<pdfrwt beam="2">  1       -2 0.25059411E+00 0.44813425E+04</pdfrwt>
<totfact> 0.74637170E-02</totfact>
</mgrwt>
</event>
<event>
 6    1  0.2325157E-005  0.3556875E+04  0.7818608E-02  0.8100442E-01
          2   -1    0    0  501    0  0.00000000000E+00  0.00000000000E+00  0.32420586361E+04  0.32420586361E+04  0.00000000000E+00 0.  1.
         -2   -1    0    0    0  501 -0.00000000000E+00 -0.00000000000E+00 -0.97556524586E+03  0.97556524586E+03  0.00000000000E+00 0. -1.
         23    2    1    2    0    0 -0.83331893095E+03  0.15292015309E+04  0.71306738234E+03  0.18839550698E+04  0.89128279556E+02 0.  0.
         13    1    3    3    0    0 -0.49106361775E+03  0.83528091965E+03  0.43003203568E+03  0.10600779420E+04  0.00000000000E+00 0. -1.
        -13    1    3    3    0    0 -0.34225531320E+03  0.69392061128E+03  0.28303534665E+03  0.82387712775E+03  0.00000000000E+00 0.  1.
         22    1    1    2    0    0  0.83331893095E+03 -0.15292015309E+04  0.15534260079E+04  0.23336688122E+04  0.00000000000E+00 0.  1.
<mgrwt>
<rscale>  0 0.35568749E+04</rscale>
<asrwt>0</asrwt>
<pdfrwt beam="1">  1        2 0.49877825E+00 0.35568749E+04</pdfrwt>
<pdfrwt beam="2">  1       -2 0.15008696E+00 0.35568749E+04</pdfrwt>
<totfact> 0.29742698E-01</totfact>
</mgrwt>
</event>
<event>
 6    1  0.2325157E-005  0.2451330E+04  0.7818608E-02  0.8420532E-01
         -2   -1    0    0    0  501 -0.00000000000E+00  0.00000000000E+00  0.65480459719E+03  0.65480459719E+03  0.00000000000E+00 0. -1.
          2   -1    0    0  501    0  0.00000000000E+00 -0.00000000000E+00 -0.22942037419E+04  0.22942037419E+04  0.00000000000E+00 0.  1.
         23    2    1    2    0    0  0.47046071066E+03  0.12526137245E+03 -0.21716005182E+04  0.22277164469E+04  0.99237421238E+02 0.  0.
         13    1    3    3    0    0  0.32344617400E+03  0.47563505911E+02 -0.13066797023E+04  0.13469564057E+04  0.00000000000E+00 0. -1.
        -13    1    3    3    0    0  0.14701453666E+03  0.77697866534E+02 -0.86492081590E+03  0.88076004124E+03  0.00000000000E+00 0.  1.
         22    1    1    2    0    0 -0.47046071066E+03 -0.12526137245E+03  0.53220137349E+03  0.72129189212E+03  0.00000000000E+00 0. -1.
<mgrwt>
<rscale>  0 0.24513304E+04</rscale>
<asrwt>0</asrwt>
<pdfrwt beam="1">  1        2 0.35295442E+00 0.24513304E+04</pdfrwt>
<pdfrwt beam="2">  1       -2 0.10073917E+00 0.24513304E+04</pdfrwt>
<totfact> 0.33196349E+00</totfact>
</mgrwt>
</event>
<event>
 6    1  0.2325157E-005  0.3291084E+04  0.7818608E-02  0.8165168E-01
          2   -1    0    0  501    0  0.00000000000E+00  0.00000000000E+00  0.12062296556E+04  0.12062296556E+04  0.00000000000E+00 0.  1.
         -2   -1    0    0    0  501 -0.00000000000E+00 -0.00000000000E+00 -0.22448528852E+04  0.22448528852E+04  0.00000000000E+00 0. -1.
         23    2    1    2    0    0  0.64588090466E+02 -0.75556964400E+03 -0.20496486729E+04  0.21872670656E+04  0.89556829205E+02 0.  0.
         13    1    3    3    0    0  0.24561426564E+02 -0.81998460890E+02 -0.17346119802E+03  0.19343163775E+03  0.00000000000E+00 0. -1.
        -13    1    3    3    0    0  0.40026663902E+02 -0.67357118311E+03 -0.18761874749E+04  0.19938354278E+04  0.00000000000E+00 0.  1.
         22    1    1    2    0    0 -0.64588090466E+02  0.75556964400E+03  0.10110254433E+04  0.12638154752E+04  0.00000000000E+00 0.  1.
<mgrwt>
<rscale>  0 0.32910838E+04</rscale>
<asrwt>0</asrwt>
<pdfrwt beam="1">  1        2 0.18557379E+00 0.32910838E+04</pdfrwt>
<pdfrwt beam="2">  1       -2 0.34536198E+00 0.32910838E+04</pdfrwt>
<totfact> 0.26108369E-01</totfact>
</mgrwt>
</event>
<event>
 6    1  0.2325157E-005  0.1022397E+04  0.7818608E-02  0.9284316E-01
          2   -1    0    0  501    0  0.00000000000E+00  0.00000000000E+00  0.72114741026E+03  0.72114741026E+03  0.00000000000E+00 0.  1.
         -2   -1    0    0    0  501 -0.00000000000E+00 -0.00000000000E+00 -0.36237239604E+03  0.36237239604E+03  0.00000000000E+00 0. -1.
         23    2    1    2    0    0 -0.14219851008E+03  0.44017017508E+03 -0.39753206815E+02  0.47295044721E+03  0.90175433276E+02 0.  0.
         11    1    3    3    0    0 -0.27960625466E+02  0.12379726075E+03  0.27662092204E+02  0.12989514883E+03  0.00000000000E+00 0. -1.
        -11    1    3    3    0    0 -0.11423788461E+03  0.31637291433E+03 -0.67415299019E+02  0.34305529838E+03  0.00000000000E+00 0.  1.
         22    1    1    2    0    0  0.14219851008E+03 -0.44017017508E+03  0.39852822103E+03  0.61056935909E+03  0.00000000000E+00 0.  1.
<mgrwt>
<rscale>  0 0.10223970E+04</rscale>
<asrwt>0</asrwt>
<pdfrwt beam="1">  1        2 0.11094576E+00 0.10223970E+04</pdfrwt>
<pdfrwt beam="2">  1       -2 0.55749599E-01 0.10223970E+04</pdfrwt>
<totfact> 0.11893699E+02</totfact>
</mgrwt>
</event>
<event>
 6    1  0.2325157E-005  0.1715062E+04  0.7818608E-02  0.8752820E-01
         -2   -1    0    0    0  501 -0.00000000000E+00  0.00000000000E+00  0.53008515876E+03  0.53008515876E+03  0.00000000000E+00 0. -1.
          2   -1    0    0  501    0  0.00000000000E+00 -0.00000000000E+00 -0.13872480589E+04  0.13872480589E+04  0.00000000000E+00 0.  1.
         23    2    1    2    0    0 -0.51553886409E+03  0.58900581752E+03 -0.81458825590E+03  0.11334194636E+04  0.91528577110E+02 0.  0.
         11    1    3    3    0    0 -0.24095308890E+03  0.20820373716E+03 -0.34077708690E+03  0.46640777242E+03  0.00000000000E+00 0.  1.
        -11    1    3    3    0    0 -0.27458577519E+03  0.38080208036E+03 -0.47381116900E+03  0.66701169121E+03  0.00000000000E+00 0. -1.
         22    1    1    2    0    0  0.51553886409E+03 -0.58900581752E+03 -0.42574644259E+02  0.78391375405E+03  0.00000000000E+00 0. -1.
<mgrwt>
<rscale>  0 0.17150622E+04</rscale>
<asrwt>0</asrwt>
<pdfrwt beam="1">  1        2 0.21342278E+00 0.17150622E+04</pdfrwt>
<pdfrwt beam="2">  1       -2 0.81551564E-01 0.17150622E+04</pdfrwt>
<totfact> 0.18515012E+01</totfact>
</mgrwt>
</event>
<event>
 6    1  0.2325157E-005  0.1583749E+04  0.7818608E-02  0.8830594E-01
         -2   -1    0    0    0  501 -0.00000000000E+00  0.00000000000E+00  0.10716626801E+04  0.10716626801E+04  0.00000000000E+00 0. -1.
          2   -1    0    0  501    0  0.00000000000E+00 -0.00000000000E+00 -0.58513326967E+03  0.58513326967E+03  0.00000000000E+00 0.  1.
         23    2    1    2    0    0  0.64981841392E+03 -0.44108700392E+03  0.32308830918E+03  0.85458979816E+03  0.95477492114E+02 0.  0.
         13    1    3    3    0    0  0.35345136198E+03 -0.25787134652E+03  0.13095606113E+03  0.45670010575E+03  0.00000000000E+00 0.  1.
        -13    1    3    3    0    0  0.29636705194E+03 -0.18321565739E+03  0.19213224804E+03  0.39788969241E+03  0.00000000000E+00 0. -1.
         22    1    1    2    0    0 -0.64981841392E+03  0.44108700392E+03  0.16344110125E+03  0.80220615160E+03  0.00000000000E+00 0.  1.
<mgrwt>
<rscale>  0 0.15837493E+04</rscale>
<asrwt>0</asrwt>
<pdfrwt beam="1">  1        2 0.90020503E-01 0.15837493E+04</pdfrwt>
<pdfrwt beam="2">  1       -2 0.16487118E+00 0.15837493E+04</pdfrwt>
<totfact> 0.11378193E+01</totfact>
</mgrwt>
</event>
<event>
 6    1  0.2325157E-005  0.2169353E+04  0.7818608E-02  0.8531293E-01
         -2   -1    0    0    0  501 -0.00000000000E+00  0.00000000000E+00  0.45519580107E+03  0.45519580107E+03  0.00000000000E+00 0. -1.
          2   -1    0    0  501    0  0.00000000000E+00 -0.00000000000E+00 -0.25846539088E+04  0.25846539088E+04  0.00000000000E+00 0.  1.
         23    2    1    2    0    0  0.24694588638E+03 -0.10506899917E+04 -0.94701989957E+03  0.14388837997E+04  0.92780220319E+02 0.  0.
         13    1    3    3    0    0  0.14976497939E+03 -0.61906470782E+03 -0.49784815073E+03  0.80840796799E+03  0.00000000000E+00 0.  1.
        -13    1    3    3    0    0  0.97180906986E+02 -0.43162528390E+03 -0.44917174884E+03  0.63047583169E+03  0.00000000000E+00 0. -1.
         22    1    1    2    0    0 -0.24694588638E+03  0.10506899917E+04 -0.11824382082E+04  0.16009659102E+04  0.00000000000E+00 0.  1.
<mgrwt>
<rscale>  0 0.21693535E+04</rscale>
<asrwt>0</asrwt>
<pdfrwt beam="1">  1        2 0.39763907E+00 0.21693535E+04</pdfrwt>
<pdfrwt beam="2">  1       -2 0.70030122E-01 0.21693535E+04</pdfrwt>
<totfact> 0.52890987E+00</totfact>
</mgrwt>
</event>
<event>
 6    1  0.2325157E-005  0.3622234E+04  0.7818608E-02  0.8085418E-01
          2   -1    0    0  501    0  0.00000000000E+00  0.00000000000E+00  0.36762380521E+04  0.36762380521E+04  0.00000000000E+00 0.  1.
         -2   -1    0    0    0  501 -0.00000000000E+00 -0.00000000000E+00 -0.89225558023E+03  0.89225558023E+03  0.00000000000E+00 0. -1.
         23    2    1    2    0    0 -0.65358443669E+03  0.12693532162E+04 -0.99422938332E+01  0.14309076495E+04  0.94697670899E+02 0.  0.
         11    1    3    3    0    0 -0.52947356558E+03  0.98620486276E+03 -0.41705567100E+02  0.11201257261E+04  0.00000000000E+00 0. -1.
        -11    1    3    3    0    0 -0.12411087111E+03  0.28314835341E+03  0.31763273267E+02  0.31078192337E+03  0.00000000000E+00 0.  1.
         22    1    1    2    0    0  0.65358443669E+03 -0.12693532162E+04  0.27939247657E+04  0.31375859828E+04  0.00000000000E+00 0.  1.
<mgrwt>
<rscale>  0 0.36222335E+04</rscale>
<asrwt>0</asrwt>
<pdfrwt beam="1">  1        2 0.56557508E+00 0.36222335E+04</pdfrwt>
<pdfrwt beam="2">  1       -2 0.13727009E+00 0.36222335E+04</pdfrwt>
<totfact> 0.18648324E-01</totfact>
</mgrwt>
</event>
<event>
 6    1  0.2325157E-005  0.3253258E+04  0.7818608E-02  0.8174892E-01
          2   -1    0    0  501    0  0.00000000000E+00  0.00000000000E+00  0.38927185799E+04  0.38927185799E+04  0.00000000000E+00 0.  1.
         -2   -1    0    0    0  501 -0.00000000000E+00 -0.00000000000E+00 -0.67971042914E+03  0.67971042914E+03  0.00000000000E+00 0. -1.
         23    2    1    2    0    0 -0.90410847492E+03  0.13134447772E+04  0.11641059509E+04  0.19761721763E+04  0.86974067172E+02 0.  0.
         11    1    3    3    0    0 -0.83194384728E+03  0.11617073569E+04  0.10400911083E+04  0.17673381288E+04  0.00000000000E+00 0.  1.
        -11    1    3    3    0    0 -0.72164627645E+02  0.15173742022E+03  0.12401484268E+03  0.20883404747E+03  0.00000000000E+00 0. -1.
         22    1    1    2    0    0  0.90410847492E+03 -0.13134447772E+04  0.20489021998E+04  0.25962568327E+04  0.00000000000E+00 0. -1.
<mgrwt>
<rscale>  0 0.32532577E+04</rscale>
<asrwt>0</asrwt>
<pdfrwt beam="1">  1        2 0.59887977E+00 0.32532577E+04</pdfrwt>
<pdfrwt beam="2">  1       -2 0.10457084E+00 0.32532577E+04</pdfrwt>
<totfact> 0.25875965E-01</totfact>
</mgrwt>
</event>
<event>
 6    1  0.2325157E-005  0.1287002E+04  0.7818608E-02  0.9039937E-01
         -2   -1    0    0    0  501 -0.00000000000E+00  0.00000000000E+00  0.18970492640E+03  0.18970492640E+03  0.00000000000E+00 0. -1.
          2   -1    0    0  501    0  0.00000000000E+00 -0.00000000000E+00 -0.21828298926E+04  0.21828298926E+04  0.00000000000E+00 0.  1.
         23    2    1    2    0    0 -0.32937934644E+03  0.54513327001E+03 -0.88677165534E+03  0.10959461286E+04  0.95251835750E+02 0.  0.
         11    1    3    3    0    0 -0.16428217026E+03  0.20507769861E+03 -0.41827102857E+03  0.49395966158E+03  0.00000000000E+00 0.  1.
        -11    1    3    3    0    0 -0.16509717619E+03  0.34005557140E+03 -0.46850062677E+03  0.60198646705E+03  0.00000000000E+00 0. -1.
         22    1    1    2    0    0  0.32937934644E+03 -0.54513327001E+03 -0.11063533109E+04  0.12765886904E+04  0.00000000000E+00 0.  1.
<mgrwt>
<rscale>  0 0.12870021E+04</rscale>
<asrwt>0</asrwt>
<pdfrwt beam="1">  1        2 0.33582000E+00 0.12870021E+04</pdfrwt>
<pdfrwt beam="2">  1       -2 0.29185372E-01 0.12870021E+04</pdfrwt>
<totfact> 0.56030164E+01</totfact>
</mgrwt>
</event>
<event>
 6    1  0.2325157E-005  0.2981451E+04  0.7818608E-02  0.8249047E-01
          2   -1    0    0  501    0  0.00000000000E+00  0.00000000000E+00  0.22796396903E+04  0.22796396903E+04  0.00000000000E+00 0.  1.
         -2   -1    0    0    0  501 -0.00000000000E+00 -0.00000000000E+00 -0.97483089210E+03  0.97483089210E+03  0.00000000000E+00 0. -1.
         23    2    1    2    0    0 -0.93964114027E+03  0.91532078544E+03 -0.11677805031E+03  0.13201369037E+04  0.91579029923E+02 0.  0.
         11    1    3    3    0    0 -0.53614447114E+03  0.55581346771E+03 -0.30383958678E+02  0.77285360177E+03  0.00000000000E+00 0.  1.
        -11    1    3    3    0    0 -0.40349666913E+03  0.35950731773E+03 -0.86394091635E+02  0.54728330193E+03  0.00000000000E+00 0. -1.
         22    1    1    2    0    0  0.93964114027E+03 -0.91532078544E+03  0.14215868486E+04  0.19343336787E+04  0.00000000000E+00 0.  1.
<mgrwt>
<rscale>  0 0.29814515E+04</rscale>
<asrwt>0</asrwt>
<pdfrwt beam="1">  1        2 0.35071380E+00 0.29814515E+04</pdfrwt>
<pdfrwt beam="2">  1       -2 0.14997398E+00 0.29814515E+04</pdfrwt>
<totfact> 0.11963926E+00</totfact>
</mgrwt>
</event>
<event>
 6    1  0.2325157E-005  0.1983053E+04  0.7818608E-02  0.8614585E-01
         -2   -1    0    0    0  501 -0.00000000000E+00  0.00000000000E+00  0.74422864964E+03  0.74422864964E+03  0.00000000000E+00 0. -1.
          2   -1    0    0  501    0  0.00000000000E+00 -0.00000000000E+00 -0.13209977838E+04  0.13209977838E+04  0.00000000000E+00 0.  1.
         23    2    1    2    0    0 -0.41009260394E+03  0.72114980959E+03  0.27258944604E+03  0.87794256282E+03  0.90802785425E+02 0.  0.
         11    1    3    3    0    0 -0.21747501194E+03  0.29212938318E+03  0.11274778818E+03  0.38124404398E+03  0.00000000000E+00 0.  1.
        -11    1    3    3    0    0 -0.19261759200E+03  0.42902042641E+03  0.15984165786E+03  0.49669851884E+03  0.00000000000E+00 0. -1.
         22    1    1    2    0    0  0.41009260394E+03 -0.72114980959E+03 -0.84935858023E+03  0.11872838706E+04  0.00000000000E+00 0.  1.
<mgrwt>
<rscale>  0 0.19830526E+04</rscale>
<asrwt>0</asrwt>
<pdfrwt beam="1">  1        2 0.20323043E+00 0.19830526E+04</pdfrwt>
<pdfrwt beam="2">  1       -2 0.11449672E+00 0.19830526E+04</pdfrwt>
<totfact> 0.89133067E+00</totfact>
</mgrwt>
</event>
<event>
 6    1  0.2325157E-005  0.4483436E+04  0.7818608E-02  0.7913543E-01
          2   -1    0    0  501    0  0.00000000000E+00  0.00000000000E+00  0.33821435561E+04  0.33821435561E+04  0.00000000000E+00 0. -1.
         -2   -1    0    0    0  501 -0.00000000000E+00 -0.00000000000E+00 -0.14858330161E+04  0.14858330161E+04  0.00000000000E+00 0.  1.
         23    2    1    2    0    0  0.92489919924E+03 -0.14569888890E+04 -0.60332576940E+03  0.18304715384E+04  0.91481786811E+02 0.  0.
         11    1    3    3    0    0  0.51235856708E+03 -0.73486198156E+03 -0.28713802371E+03  0.94073464795E+03  0.00000000000E+00 0.  1.
        -11    1    3    3    0    0  0.41254063216E+03 -0.72212690746E+03 -0.31618774569E+03  0.88973689043E+03  0.00000000000E+00 0. -1.
         22    1    1    2    0    0 -0.92489919924E+03  0.14569888890E+04  0.24996363094E+04  0.30375050338E+04  0.00000000000E+00 0. -1.
<mgrwt>
<rscale>  0 0.44834364E+04</rscale>
<asrwt>0</asrwt>
<pdfrwt beam="1">  1        2 0.52032978E+00 0.44834364E+04</pdfrwt>
<pdfrwt beam="2">  1       -2 0.22858970E+00 0.44834364E+04</pdfrwt>
<totfact> 0.64816619E-02</totfact>
</mgrwt>
</event>
<event>
 6    1  0.2325157E-005  0.2288921E+04  0.7818608E-02  0.8482302E-01
          4   -1    0    0  501    0  0.00000000000E+00  0.00000000000E+00  0.89187085344E+03  0.89187085344E+03  0.00000000000E+00 0.  1.
         -4   -1    0    0    0  501 -0.00000000000E+00 -0.00000000000E+00 -0.14685868458E+04  0.14685868458E+04  0.00000000000E+00 0. -1.
         23    2    1    2    0    0  0.25658199552E+02  0.95313950591E+03 -0.93820038048E+03  0.13407497882E+04  0.90866823711E+02 0.  0.
         13    1    3    3    0    0  0.25404741763E+02  0.22740906609E+03 -0.17938195397E+03  0.29075448346E+03  0.00000000000E+00 0.  1.
        -13    1    3    3    0    0  0.25345778855E+00  0.72573043982E+03 -0.75881842651E+03  0.10499953047E+04  0.00000000000E+00 0. -1.
         22    1    1    2    0    0 -0.25658199552E+02 -0.95313950591E+03  0.36148438814E+03  0.10197079110E+04  0.00000000000E+00 0.  1.
<mgrwt>
<rscale>  0 0.22889210E+04</rscale>
<asrwt>0</asrwt>
<pdfrwt beam="1">  1        4 0.13721090E+00 0.22889210E+04</pdfrwt>
<pdfrwt beam="2">  1       -4 0.22593644E+00 0.22889210E+04</pdfrwt>
<totfact> 0.61052682E-02</totfact>
</mgrwt>
</event>
<event>
 6    1  0.2325157E-005  0.1561011E+04  0.7818608E-02  0.8844865E-01
          2   -1    0    0  501    0  0.00000000000E+00  0.00000000000E+00  0.88993248016E+03  0.88993248016E+03  0.00000000000E+00 0.  1.
         -2   -1    0    0    0  501 -0.00000000000E+00 -0.00000000000E+00 -0.68453391101E+03  0.68453391101E+03  0.00000000000E+00 0. -1.
         23    2    1    2    0    0  0.48585834268E+03 -0.54588328851E+03 -0.16581573112E+03  0.75480368581E+03  0.90481233416E+02 0.  0.
         13    1    3    3    0    0  0.76708536490E+02 -0.53365218707E+02 -0.23568299943E+00  0.93445715175E+02  0.00000000000E+00 0. -1.
        -13    1    3    3    0    0  0.40914980619E+03 -0.49251806981E+03 -0.16558004812E+03  0.66135797064E+03  0.00000000000E+00 0.  1.
         22    1    1    2    0    0 -0.48585834268E+03  0.54588328851E+03  0.37121430027E+03  0.81966270536E+03  0.00000000000E+00 0. -1.
<mgrwt>
<rscale>  0 0.15610112E+04</rscale>
<asrwt>0</asrwt>
<pdfrwt beam="1">  1        2 0.13691269E+00 0.15610112E+04</pdfrwt>
<pdfrwt beam="2">  1       -2 0.10531291E+00 0.15610112E+04</pdfrwt>
<totfact> 0.20912416E+01</totfact>
</mgrwt>
</event>
<event>
 6    1  0.2325157E-005  0.6982537E+03  0.7818608E-02  0.9720223E-01
          2   -1    0    0  501    0  0.00000000000E+00  0.00000000000E+00  0.20479198587E+03  0.20479198587E+03  0.00000000000E+00 0.  1.
         -2   -1    0    0    0  501 -0.00000000000E+00 -0.00000000000E+00 -0.59518706882E+03  0.59518706882E+03  0.00000000000E+00 0. -1.
         23    2    1    2    0    0 -0.17163207512E+02  0.28271605754E+03 -0.42074420053E+03  0.51512117114E+03  0.90006631944E+02 0.  0.
         13    1    3    3    0    0  0.28758221904E+02  0.10486194416E+03 -0.11367924589E+03  0.15730872070E+03  0.00000000000E+00 0. -1.
        -13    1    3    3    0    0 -0.45921429416E+02  0.17785411338E+03 -0.30706495464E+03  0.35781245045E+03  0.00000000000E+00 0.  1.
         22    1    1    2    0    0  0.17163207512E+02 -0.28271605754E+03  0.30349117580E+02  0.28485788355E+03  0.00000000000E+00 0.  1.
<mgrwt>
<rscale>  0 0.69825366E+03</rscale>
<asrwt>0</asrwt>
<pdfrwt beam="1">  1        2 0.31506459E-01 0.69825366E+03</pdfrwt>
<pdfrwt beam="2">  1       -2 0.91567242E-01 0.69825366E+03</pdfrwt>
<totfact> 0.17271458E+02</totfact>
</mgrwt>
</event>
<event>
 6    1  0.2325157E-005  0.8532038E+03  0.7818608E-02  0.9486047E-01
         -2   -1    0    0    0  501 -0.00000000000E+00  0.00000000000E+00  0.79336769004E+03  0.79336769004E+03  0.00000000000E+00 0.  1.
          2   -1    0    0  501    0  0.00000000000E+00 -0.00000000000E+00 -0.22938821974E+03  0.22938821974E+03  0.00000000000E+00 0. -1.
         23    2    1    2    0    0  0.28762711008E+03 -0.14800458479E+02 -0.82619484198E+02  0.31491509719E+03  0.96938801543E+02 0.  0.
         11    1    3    3    0    0  0.15684371765E+02 -0.25795793678E+02  0.96291163371E+00  0.30205126849E+02  0.00000000000E+00 0. -1.
        -11    1    3    3    0    0  0.27194273831E+03  0.10995335199E+02 -0.83582395832E+02  0.28470997034E+03  0.00000000000E+00 0.  1.
         22    1    1    2    0    0 -0.28762711008E+03  0.14800458479E+02  0.64659895449E+03  0.70784081259E+03  0.00000000000E+00 0.  1.
<mgrwt>
<rscale>  0 0.85320385E+03</rscale>
<asrwt>0</asrwt>
<pdfrwt beam="1">  1        2 0.35290496E-01 0.85320385E+03</pdfrwt>
<pdfrwt beam="2">  1       -2 0.12205657E+00 0.85320385E+03</pdfrwt>
<totfact> 0.75803713E+01</totfact>
</mgrwt>
</event>
<event>
 6    1  0.2325157E-005  0.1077418E+04  0.7818608E-02  0.9227485E-01
         -1   -1    0    0    0  501 -0.00000000000E+00  0.00000000000E+00  0.68836091309E+03  0.68836091309E+03  0.00000000000E+00 0. -1.
          1   -1    0    0  501    0  0.00000000000E+00 -0.00000000000E+00 -0.42159210678E+03  0.42159210678E+03  0.00000000000E+00 0.  1.
         23    2    1    2    0    0  0.52730013163E+03  0.88644073446E+02  0.13925872870E+03  0.56026035986E+03  0.92711793965E+02 0.  0.
         13    1    3    3    0    0  0.63129915703E+02 -0.15554259695E+02  0.32580384714E+02  0.72724154993E+02  0.00000000000E+00 0. -1.
        -13    1    3    3    0    0  0.46417021592E+03  0.10419833314E+03  0.10667834399E+03  0.48753620487E+03  0.00000000000E+00 0.  1.
         22    1    1    2    0    0 -0.52730013163E+03 -0.88644073446E+02  0.12751007761E+03  0.54969266000E+03  0.00000000000E+00 0.  1.
<mgrwt>
<rscale>  0 0.10774183E+04</rscale>
<asrwt>0</asrwt>
<pdfrwt beam="1">  1        1 0.64860325E-01 0.10774183E+04</pdfrwt>
<pdfrwt beam="2">  1       -1 0.10590168E+00 0.10774183E+04</pdfrwt>
<totfact> 0.46592694E+01</totfact>
</mgrwt>
</event>
<event>
 6    1  0.2325157E-005  0.2592698E+04  0.7818608E-02  0.8370686E-01
          2   -1    0    0  501    0  0.00000000000E+00  0.00000000000E+00  0.13181522980E+04  0.13181522980E+04  0.00000000000E+00 0.  1.
         -2   -1    0    0    0  501 -0.00000000000E+00 -0.00000000000E+00 -0.12749064073E+04  0.12749064073E+04  0.00000000000E+00 0. -1.
         23    2    1    2    0    0 -0.10178699814E+04 -0.67467575813E+03  0.45229152393E+03  0.13052058381E+04  0.88022607815E+02 0.  0.
         11    1    3    3    0    0 -0.16562006025E+03 -0.72461539511E+02  0.65045203588E+02  0.19212380793E+03  0.00000000000E+00 0. -1.
        -11    1    3    3    0    0 -0.85224992116E+03 -0.60221421862E+03  0.38724632034E+03  0.11130820302E+04  0.00000000000E+00 0.  1.
         22    1    1    2    0    0  0.10178699814E+04  0.67467575813E+03 -0.40904563317E+03  0.12878528672E+04  0.00000000000E+00 0. -1.
<mgrwt>
<rscale>  0 0.25926981E+04</rscale>
<asrwt>0</asrwt>
<pdfrwt beam="1">  1        2 0.20279266E+00 0.25926981E+04</pdfrwt>
<pdfrwt beam="2">  1       -2 0.19613945E+00 0.25926981E+04</pdfrwt>
<totfact> 0.20141057E+00</totfact>
</mgrwt>
</event>
<event>
 6    1  0.2374278E-005  0.3271030E+04  0.7818608E-02  0.8170306E-01
          2   -1    0    0  501    0  0.00000000000E+00  0.00000000000E+00  0.13028257727E+04  0.13028257727E+04  0.00000000000E+00 0.  1.
         -2   -1    0    0    0  501 -0.00000000000E+00 -0.00000000000E+00 -0.20531592954E+04  0.20531592954E+04  0.00000000000E+00 0. -1.
         23    2    1    2    0    0  0.54965910422E+03  0.15230499948E+04 -0.15003827720E+03  0.16290916726E+04  0.98090649926E+02 0.  0.
         13    1    3    3    0    0  0.21114237071E+03  0.54356770691E+03 -0.99223961621E+02  0.59151698815E+03  0.00000000000E+00 0. -1.
        -13    1    3    3    0    0  0.33851673351E+03  0.97948228793E+03 -0.50814315577E+02  0.10375746845E+04  0.00000000000E+00 0.  1.
         22    1    1    2    0    0 -0.54965910422E+03 -0.15230499948E+04 -0.60029524543E+03  0.17268933955E+04  0.00000000000E+00 0. -1.
<mgrwt>
<rscale>  0 0.32710297E+04</rscale>
<asrwt>0</asrwt>
<pdfrwt beam="1">  1        2 0.20043473E+00 0.32710297E+04</pdfrwt>
<pdfrwt beam="2">  1       -2 0.31587066E+00 0.32710297E+04</pdfrwt>
<totfact> 0.35001090E-01</totfact>
</mgrwt>
</event>
<event>
 6    1  0.2325157E-005  0.1731182E+04  0.7818608E-02  0.8743777E-01
          2   -1    0    0  501    0  0.00000000000E+00  0.00000000000E+00  0.25162717427E+04  0.25162717427E+04  0.00000000000E+00 0.  1.
         -2   -1    0    0    0  501 -0.00000000000E+00 -0.00000000000E+00 -0.29776101543E+03  0.29776101543E+03  0.00000000000E+00 0. -1.
         23    2    1    2    0    0  0.59054459123E+03 -0.48315181213E+03  0.17681367262E+04  0.19280218504E+04  0.93713314633E+02 0.  0.
         13    1    3    3    0    0  0.38152075288E+03 -0.29135704014E+03  0.10022144774E+04  0.11112519374E+04  0.00000000000E+00 0.  1.
        -13    1    3    3    0    0  0.20902383834E+03 -0.19179477199E+03  0.76592224873E+03  0.81676991293E+03  0.00000000000E+00 0. -1.
         22    1    1    2    0    0 -0.59054459123E+03  0.48315181213E+03  0.45037400115E+03  0.88601090778E+03  0.00000000000E+00 0. -1.
<mgrwt>
<rscale>  0 0.17311818E+04</rscale>
<asrwt>0</asrwt>
<pdfrwt beam="1">  1        2 0.38711871E+00 0.17311818E+04</pdfrwt>
<pdfrwt beam="2">  1       -2 0.45809389E-01 0.17311818E+04</pdfrwt>
<totfact> 0.14632735E+01</totfact>
</mgrwt>
</event>
<event>
 6    1  0.2325157E-005  0.2728411E+04  0.7818608E-02  0.8325845E-01
         -2   -1    0    0    0  501 -0.00000000000E+00  0.00000000000E+00  0.12703140588E+04  0.12703140588E+04  0.00000000000E+00 0. -1.
          2   -1    0    0  501    0  0.00000000000E+00 -0.00000000000E+00 -0.14650363768E+04  0.14650363768E+04  0.00000000000E+00 0.  1.
         23    2    1    2    0    0 -0.61379882234E+02  0.88761485293E+03  0.93716466014E+03  0.12956297167E+04  0.93547557555E+02 0.  0.
         11    1    3    3    0    0  0.24625078128E+02  0.20798138766E+03  0.20942577021E+03  0.29617867127E+03  0.00000000000E+00 0.  1.
        -11    1    3    3    0    0 -0.86004960362E+02  0.67963346528E+03  0.72773888993E+03  0.99945104544E+03  0.00000000000E+00 0. -1.
         22    1    1    2    0    0  0.61379882234E+02 -0.88761485293E+03 -0.11318869782E+04  0.14397207189E+04  0.00000000000E+00 0.  1.
<mgrwt>
<rscale>  0 0.27284108E+04</rscale>
<asrwt>0</asrwt>
<pdfrwt beam="1">  1        2 0.22539021E+00 0.27284108E+04</pdfrwt>
<pdfrwt beam="2">  1       -2 0.19543293E+00 0.27284108E+04</pdfrwt>
<totfact> 0.16581096E+00</totfact>
</mgrwt>
</event>
<event>
 6    1  0.2325157E-005  0.1847019E+04  0.7818608E-02  0.8681687E-01
         -2   -1    0    0    0  501 -0.00000000000E+00  0.00000000000E+00  0.56826150347E+03  0.56826150347E+03  0.00000000000E+00 0. -1.
          2   -1    0    0  501    0  0.00000000000E+00 -0.00000000000E+00 -0.15008409048E+04  0.15008409048E+04  0.00000000000E+00 0.  1.
         23    2    1    2    0    0  0.40544987796E+03 -0.70323292143E+03 -0.95543801384E+03  0.12570379641E+04  0.91413891419E+02 0.  0.
         11    1    3    3    0    0  0.85482152310E+02 -0.89839185437E+02 -0.16878157272E+03  0.20944091504E+03  0.00000000000E+00 0. -1.
        -11    1    3    3    0    0  0.31996772565E+03 -0.61339373599E+03 -0.78665644111E+03  0.10475970490E+04  0.00000000000E+00 0.  1.
         22    1    1    2    0    0 -0.40544987796E+03  0.70323292143E+03  0.22858612528E+02  0.81206444417E+03  0.00000000000E+00 0.  1.
<mgrwt>
<rscale>  0 0.18470193E+04</rscale>
<asrwt>0</asrwt>
<pdfrwt beam="1">  1        2 0.23089860E+00 0.18470193E+04</pdfrwt>
<pdfrwt beam="2">  1       -2 0.87424847E-01 0.18470193E+04</pdfrwt>
<totfact> 0.13474787E+01</totfact>
</mgrwt>
</event>
<event>
 6    1  0.2325157E-005  0.2184972E+04  0.7818608E-02  0.8524709E-01
         -2   -1    0    0    0  501 -0.00000000000E+00  0.00000000000E+00  0.20352196277E+04  0.20352196277E+04  0.00000000000E+00 0. -1.
          2   -1    0    0  501    0  0.00000000000E+00 -0.00000000000E+00 -0.58643579567E+03  0.58643579567E+03  0.00000000000E+00 0.  1.
         23    2    1    2    0    0  0.29606203190E+03 -0.57377099355E+03 -0.32895292193E+03  0.73030303785E+03  0.90920968292E+02 0.  0.
         13    1    3    3    0    0  0.27132018196E+03 -0.47870320029E+03 -0.30526784971E+03  0.62925341094E+03  0.00000000000E+00 0.  1.
        -13    1    3    3    0    0  0.24741849943E+02 -0.95067793261E+02 -0.23685072221E+02  0.10104962692E+03  0.00000000000E+00 0. -1.
         22    1    1    2    0    0 -0.29606203190E+03  0.57377099355E+03  0.17777367540E+04  0.18913523855E+04  0.00000000000E+00 0. -1.
<mgrwt>
<rscale>  0 0.21849720E+04</rscale>
<asrwt>0</asrwt>
<pdfrwt beam="1">  1        2 0.90220893E-01 0.21849720E+04</pdfrwt>
<pdfrwt beam="2">  1       -2 0.31311071E+00 0.21849720E+04</pdfrwt>
<totfact> 0.12331327E+00</totfact>
</mgrwt>
</event>
<event>
 6    1  0.2325157E-005  0.1881958E+04  0.7818608E-02  0.8663889E-01
         -2   -1    0    0    0  501 -0.00000000000E+00  0.00000000000E+00  0.87448218522E+03  0.87448218522E+03  0.00000000000E+00 0. -1.
          2   -1    0    0  501    0  0.00000000000E+00 -0.00000000000E+00 -0.10125323964E+04  0.10125323964E+04  0.00000000000E+00 0.  1.
         23    2    1    2    0    0  0.79835863618E+03 -0.10837893139E+03 -0.55187873561E+03  0.98126817544E+03  0.95888417353E+02 0.  0.
         11    1    3    3    0    0  0.22890820126E+03 -0.19086014162E+02 -0.10838165281E+03  0.25398784067E+03  0.00000000000E+00 0. -1.
        -11    1    3    3    0    0  0.56945043492E+03 -0.89292917226E+02 -0.44349708280E+03  0.72728033477E+03  0.00000000000E+00 0.  1.
         22    1    1    2    0    0 -0.79835863618E+03  0.10837893139E+03  0.41382852442E+03  0.90574640620E+03  0.00000000000E+00 0. -1.
<mgrwt>
<rscale>  0 0.18819581E+04</rscale>
<asrwt>0</asrwt>
<pdfrwt beam="1">  1        2 0.15577421E+00 0.18819581E+04</pdfrwt>
<pdfrwt beam="2">  1       -2 0.13453572E+00 0.18819581E+04</pdfrwt>
<totfact> 0.92300671E+00</totfact>
</mgrwt>
</event>
<event>
 6    1  0.2325157E-005  0.1055005E+04  0.7818608E-02  0.9250192E-01
         -2   -1    0    0    0  501 -0.00000000000E+00  0.00000000000E+00  0.56956536321E+03  0.56956536321E+03  0.00000000000E+00 0. -1.
          2   -1    0    0  501    0  0.00000000000E+00 -0.00000000000E+00 -0.48854577792E+03  0.48854577792E+03  0.00000000000E+00 0.  1.
         23    2    1    2    0    0 -0.41134335339E+03  0.31899481339E+03 -0.15652612739E+02  0.52867128692E+03  0.91034498840E+02 0.  0.
         13    1    3    3    0    0 -0.27311329224E+03  0.26042955376E+03  0.30146958098E+01  0.37739039635E+03  0.00000000000E+00 0.  1.
        -13    1    3    3    0    0 -0.13823006116E+03  0.58565259631E+02 -0.18667308549E+02  0.15128089057E+03  0.00000000000E+00 0. -1.
         22    1    1    2    0    0  0.41134335339E+03 -0.31899481339E+03  0.96672198028E+02  0.52943985421E+03  0.00000000000E+00 0. -1.
<mgrwt>
<rscale>  0 0.10550047E+04</rscale>
<asrwt>0</asrwt>
<pdfrwt beam="1">  1        2 0.75160889E-01 0.10550047E+04</pdfrwt>
<pdfrwt beam="2">  1       -2 0.87625441E-01 0.10550047E+04</pdfrwt>
<totfact> 0.70816338E+01</totfact>
</mgrwt>
</event>
<event>
 6    1  0.2325157E-005  0.4966993E+04  0.7818608E-02  0.7833619E-01
          2   -1    0    0  501    0  0.00000000000E+00  0.00000000000E+00  0.31102010881E+04  0.31102010881E+04  0.00000000000E+00 0.  1.
         -2   -1    0    0    0  501 -0.00000000000E+00 -0.00000000000E+00 -0.19830728369E+04  0.19830728369E+04  0.00000000000E+00 0. -1.
         23    2    1    2    0    0 -0.43462867143E+02 -0.15793792119E+04 -0.13999249987E+04  0.21129508143E+04  0.91888116002E+02 0.  0.
         11    1    3    3    0    0  0.14330962426E+02 -0.75039028376E+03 -0.70406044758E+03  0.10290734028E+04  0.00000000000E+00 0.  1.
        -11    1    3    3    0    0 -0.57793829569E+02 -0.82898892817E+03 -0.69586455114E+03  0.10838774116E+04  0.00000000000E+00 0. -1.
         22    1    1    2    0    0  0.43462867143E+02  0.15793792119E+04  0.25270532499E+04  0.29803231106E+04  0.00000000000E+00 0.  1.
<mgrwt>
<rscale>  0 0.49669932E+04</rscale>
<asrwt>0</asrwt>
<pdfrwt beam="1">  1        2 0.47849247E+00 0.49669932E+04</pdfrwt>
<pdfrwt beam="2">  1       -2 0.30508813E+00 0.49669932E+04</pdfrwt>
<totfact> 0.31984289E-02</totfact>
</mgrwt>
</event>
<event>
 6    1  0.2325157E-005  0.2029861E+04  0.7818608E-02  0.8592785E-01
          2   -1    0    0  501    0  0.00000000000E+00  0.00000000000E+00  0.92018930075E+03  0.92018930075E+03  0.00000000000E+00 0.  1.
         -2   -1    0    0    0  501 -0.00000000000E+00 -0.00000000000E+00 -0.11194264533E+04  0.11194264533E+04  0.00000000000E+00 0. -1.
         23    2    1    2    0    0  0.26147358452E+03  0.81031116840E+03  0.45142163351E+03  0.96801439118E+03  0.91091960631E+02 0.  0.
         13    1    3    3    0    0  0.72055374356E+02  0.26069495915E+03  0.19038236168E+03  0.33075562329E+03  0.00000000000E+00 0. -1.
        -13    1    3    3    0    0  0.18941821017E+03  0.54961620925E+03  0.26103927183E+03  0.63725876789E+03  0.00000000000E+00 0.  1.
         22    1    1    2    0    0 -0.26147358452E+03 -0.81031116840E+03 -0.65065878608E+03  0.10716013629E+04  0.00000000000E+00 0. -1.
<mgrwt>
<rscale>  0 0.20298613E+04</rscale>
<asrwt>0</asrwt>
<pdfrwt beam="1">  1        2 0.14156758E+00 0.20298613E+04</pdfrwt>
<pdfrwt beam="2">  1       -2 0.17221945E+00 0.20298613E+04</pdfrwt>
<totfact> 0.54119441E+00</totfact>
</mgrwt>
</event>
<event>
 6    1  0.2325157E-005  0.2039087E+04  0.7818608E-02  0.8588561E-01
         -2   -1    0    0    0  501 -0.00000000000E+00  0.00000000000E+00  0.57746948175E+03  0.57746948175E+03  0.00000000000E+00 0. -1.
          2   -1    0    0  501    0  0.00000000000E+00 -0.00000000000E+00 -0.18000409252E+04  0.18000409252E+04  0.00000000000E+00 0.  1.
         23    2    1    2    0    0  0.64998030804E+03  0.60117021380E+03 -0.27500597199E+02  0.89020601498E+03  0.88489770305E+02 0.  0.
         11    1    3    3    0    0  0.46978702871E+03  0.42355757507E+03 -0.58806638222E+02  0.63526301044E+03  0.00000000000E+00 0. -1.
        -11    1    3    3    0    0  0.18019327933E+03  0.17761263874E+03  0.31306041023E+02  0.25494300453E+03  0.00000000000E+00 0.  1.
         22    1    1    2    0    0 -0.64998030804E+03 -0.60117021380E+03 -0.11950708463E+04  0.14873043920E+04  0.00000000000E+00 0.  1.
<mgrwt>
<rscale>  0 0.20390868E+04</rscale>
<asrwt>0</asrwt>
<pdfrwt beam="1">  1        2 0.27692937E+00 0.20390868E+04</pdfrwt>
<pdfrwt beam="2">  1       -2 0.88841461E-01 0.20390868E+04</pdfrwt>
<totfact> 0.87006740E+00</totfact>
</mgrwt>
</event>
<event>
 6    1  0.2325157E-005  0.2086454E+04  0.7818608E-02  0.8567234E-01
          2   -1    0    0  501    0  0.00000000000E+00  0.00000000000E+00  0.32488486200E+04  0.32488486200E+04  0.00000000000E+00 0.  1.
         -2   -1    0    0    0  501 -0.00000000000E+00 -0.00000000000E+00 -0.33498718994E+03  0.33498718994E+03  0.00000000000E+00 0. -1.
         23    2    1    2    0    0 -0.40109247227E+03 -0.13092729507E+03  0.30948075402E+04  0.31247512614E+04  0.90662045142E+02 0.  0.
         13    1    3    3    0    0 -0.23804790535E+03 -0.34718122006E+02  0.15940665465E+04  0.16121167165E+04  0.00000000000E+00 0. -1.
        -13    1    3    3    0    0 -0.16304456691E+03 -0.96209173068E+02  0.15007409938E+04  0.15126345448E+04  0.00000000000E+00 0.  1.
         22    1    1    2    0    0  0.40109247227E+03  0.13092729507E+03 -0.18094611021E+03  0.45908454853E+03  0.00000000000E+00 0. -1.
<mgrwt>
<rscale>  0 0.20864541E+04</rscale>
<asrwt>0</asrwt>
<pdfrwt beam="1">  1        2 0.49982285E+00 0.20864541E+04</pdfrwt>
<pdfrwt beam="2">  1       -2 0.51536493E-01 0.20864541E+04</pdfrwt>
<totfact> 0.39643542E+00</totfact>
</mgrwt>
</event>
<event>
 6    1  0.2325157E-005  0.2525827E+04  0.7818608E-02  0.8393842E-01
         -2   -1    0    0    0  501 -0.00000000000E+00  0.00000000000E+00  0.54632735676E+03  0.54632735676E+03  0.00000000000E+00 0. -1.
          2   -1    0    0  501    0  0.00000000000E+00 -0.00000000000E+00 -0.29194034815E+04  0.29194034815E+04  0.00000000000E+00 0.  1.
         23    2    1    2    0    0  0.12137618617E+03  0.82454589942E+03  0.11088309580E+03  0.84568092879E+03  0.90956327756E+02 0.  0.
         11    1    3    3    0    0  0.57007203654E+02  0.44090337556E+03  0.10418524528E+03  0.45661819191E+03  0.00000000000E+00 0. -1.
        -11    1    3    3    0    0  0.64368982511E+02  0.38364252387E+03  0.66978505175E+01  0.38906273688E+03  0.00000000000E+00 0.  1.
         22    1    1    2    0    0 -0.12137618617E+03 -0.82454589942E+03 -0.24839592205E+04  0.26200499095E+04  0.00000000000E+00 0.  1.
<mgrwt>
<rscale>  0 0.25258266E+04</rscale>
<asrwt>0</asrwt>
<pdfrwt beam="1">  1        2 0.44913900E+00 0.25258266E+04</pdfrwt>
<pdfrwt beam="2">  1       -2 0.84050363E-01 0.25258266E+04</pdfrwt>
<totfact> 0.21501594E+00</totfact>
</mgrwt>
</event>
<event>
 6    1  0.2325157E-005  0.1495470E+04  0.7818608E-02  0.8887471E-01
          2   -1    0    0  501    0  0.00000000000E+00  0.00000000000E+00  0.12485767081E+04  0.12485767081E+04  0.00000000000E+00 0.  1.
         -2   -1    0    0    0  501 -0.00000000000E+00 -0.00000000000E+00 -0.44779574869E+03  0.44779574869E+03  0.00000000000E+00 0. -1.
         23    2    1    2    0    0 -0.29430072656E+03  0.66788319675E+03  0.23215915468E+03  0.77116348636E+03  0.90079783740E+02 0.  0.
         13    1    3    3    0    0 -0.83274569695E+02  0.29708826926E+03  0.88346632742E+02  0.32093803328E+03  0.00000000000E+00 0.  1.
        -13    1    3    3    0    0 -0.21102615687E+03  0.37079492749E+03  0.14381252194E+03  0.45022545308E+03  0.00000000000E+00 0. -1.
         22    1    1    2    0    0  0.29430072656E+03 -0.66788319675E+03  0.56862180472E+03  0.92520897043E+03  0.00000000000E+00 0. -1.
<mgrwt>
<rscale>  0 0.14954696E+04</rscale>
<asrwt>0</asrwt>
<pdfrwt beam="1">  1        2 0.19208872E+00 0.14954696E+04</pdfrwt>
<pdfrwt beam="2">  1       -2 0.68891654E-01 0.14954696E+04</pdfrwt>
<totfact> 0.32971185E+01</totfact>
</mgrwt>
</event>
<event>
 6    1  0.2325157E-005  0.1311371E+04  0.7818608E-02  0.9020596E-01
          2   -1    0    0  501    0  0.00000000000E+00  0.00000000000E+00  0.17687180389E+04  0.17687180389E+04  0.00000000000E+00 0.  1.
         -2   -1    0    0    0  501 -0.00000000000E+00 -0.00000000000E+00 -0.24307080831E+03  0.24307080831E+03  0.00000000000E+00 0. -1.
         23    2    1    2    0    0  0.37109866175E+03  0.51682673283E+03  0.54512164621E+03  0.84291994517E+03  0.92370646222E+02 0.  0.
         11    1    3    3    0    0  0.31288090550E+03  0.48011923480E+03  0.47116056901E+03  0.74189030351E+03  0.00000000000E+00 0. -1.
        -11    1    3    3    0    0  0.58217756241E+02  0.36707498031E+02  0.73961077201E+02  0.10102964166E+03  0.00000000000E+00 0.  1.
         22    1    1    2    0    0 -0.37109866175E+03 -0.51682673283E+03  0.98052558435E+03  0.11688689020E+04  0.00000000000E+00 0.  1.
<mgrwt>
<rscale>  0 0.13113714E+04</rscale>
<asrwt>0</asrwt>
<pdfrwt beam="1">  1        2 0.27211046E+00 0.13113714E+04</pdfrwt>
<pdfrwt beam="2">  1       -2 0.37395510E-01 0.13113714E+04</pdfrwt>
<totfact> 0.59316029E+01</totfact>
</mgrwt>
</event>
<event>
 6    1  0.2325157E-005  0.4311738E+04  0.7818608E-02  0.7944451E-01
         -2   -1    0    0    0  501 -0.00000000000E+00  0.00000000000E+00  0.25348131807E+04  0.25348131807E+04  0.00000000000E+00 0. -1.
          2   -1    0    0  501    0  0.00000000000E+00 -0.00000000000E+00 -0.18335756643E+04  0.18335756643E+04  0.00000000000E+00 0.  1.
         23    2    1    2    0    0 -0.66149736174E+03 -0.71908312137E+03  0.22966412947E+04  0.24975674984E+04  0.92859451452E+02 0.  0.
         13    1    3    3    0    0 -0.59070040939E+03 -0.60739121648E+03  0.19290596105E+04  0.21069224106E+04  0.00000000000E+00 0. -1.
        -13    1    3    3    0    0 -0.70796952348E+02 -0.11169190489E+03  0.36758168419E+03  0.39064508782E+03  0.00000000000E+00 0.  1.
         22    1    1    2    0    0  0.66149736174E+03  0.71908312137E+03 -0.15954037783E+04  0.18708213466E+04  0.00000000000E+00 0.  1.
<mgrwt>
<rscale>  0 0.43117383E+04</rscale>
<asrwt>0</asrwt>
<pdfrwt beam="1">  1        2 0.28208856E+00 0.43117383E+04</pdfrwt>
<pdfrwt beam="2">  1       -2 0.38997126E+00 0.43117383E+04</pdfrwt>
<totfact> 0.54863843E-02</totfact>
</mgrwt>
</event>
<event>
 6    1  0.2325157E-005  0.2505544E+04  0.7818608E-02  0.8401013E-01
         -2   -1    0    0    0  501 -0.00000000000E+00  0.00000000000E+00  0.63247399668E+03  0.63247399668E+03  0.00000000000E+00 0. -1.
          2   -1    0    0  501    0  0.00000000000E+00 -0.00000000000E+00 -0.24814264057E+04  0.24814264057E+04  0.00000000000E+00 0.  1.
         23    2    1    2    0    0  0.26968640095E+03 -0.12020784362E+04 -0.11966518032E+04  0.17199063557E+04  0.91536947591E+02 0.  0.
         13    1    3    3    0    0  0.21324035269E+03 -0.83206534282E+03 -0.78649531837E+03  0.11646368827E+04  0.00000000000E+00 0.  1.
        -13    1    3    3    0    0  0.56446048263E+02 -0.37001309338E+03 -0.41015648482E+03  0.55526947303E+03  0.00000000000E+00 0. -1.
         22    1    1    2    0    0 -0.26968640095E+03  0.12020784362E+04 -0.65230060581E+03  0.13939940466E+04  0.00000000000E+00 0.  1.
<mgrwt>
<rscale>  0 0.25055440E+04</rscale>
<asrwt>0</asrwt>
<pdfrwt beam="1">  1        2 0.38175791E+00 0.25055440E+04</pdfrwt>
<pdfrwt beam="2">  1       -2 0.97303691E-01 0.25055440E+04</pdfrwt>
<totfact> 0.28023506E+00</totfact>
</mgrwt>
</event>
<event>
 6    1  0.2325157E-005  0.3792691E+04  0.7818608E-02  0.8047725E-01
         -2   -1    0    0    0  501 -0.00000000000E+00  0.00000000000E+00  0.26656997102E+04  0.26656997102E+04  0.00000000000E+00 0. -1.
          2   -1    0    0  501    0  0.00000000000E+00 -0.00000000000E+00 -0.13490365321E+04  0.13490365321E+04  0.00000000000E+00 0.  1.
         23    2    1    2    0    0 -0.14408317615E+04  0.10999004674E+04  0.72910888356E+02  0.18163966504E+04  0.90573676885E+02 0.  0.
         11    1    3    3    0    0 -0.11569275598E+04  0.87266793327E+03  0.93580865753E+02  0.14521666843E+04  0.00000000000E+00 0.  1.
        -11    1    3    3    0    0 -0.28390420167E+03  0.22723253411E+03 -0.20669977396E+02  0.36422996616E+03  0.00000000000E+00 0. -1.
         22    1    1    2    0    0  0.14408317615E+04 -0.10999004674E+04  0.12437522898E+04  0.21983395919E+04  0.00000000000E+00 0. -1.
<mgrwt>
<rscale>  0 0.37926910E+04</rscale>
<asrwt>0</asrwt>
<pdfrwt beam="1">  1        2 0.20754408E+00 0.37926910E+04</pdfrwt>
<pdfrwt beam="2">  1       -2 0.41010765E+00 0.37926910E+04</pdfrwt>
<totfact> 0.79083418E-02</totfact>
</mgrwt>
</event>
<event>
 6    1  0.2325157E-005  0.1232945E+04  0.7818608E-02  0.9084498E-01
          2   -1    0    0  501    0  0.00000000000E+00  0.00000000000E+00  0.10365296291E+04  0.10365296291E+04  0.00000000000E+00 0.  1.
         -2   -1    0    0    0  501 -0.00000000000E+00 -0.00000000000E+00 -0.36664513324E+03  0.36664513324E+03  0.00000000000E+00 0. -1.
         23    2    1    2    0    0  0.45981416509E+03  0.37636209481E+03  0.16458450601E+03  0.62317119019E+03  0.90425548559E+02 0.  0.
         13    1    3    3    0    0  0.18650079730E+03  0.20565768211E+03  0.95601590550E+02  0.29362781496E+03  0.00000000000E+00 0.  1.
        -13    1    3    3    0    0  0.27331336780E+03  0.17070441271E+03  0.68982915456E+02  0.32954337523E+03  0.00000000000E+00 0. -1.
         22    1    1    2    0    0 -0.45981416509E+03 -0.37636209481E+03  0.50529998986E+03  0.78000357216E+03  0.00000000000E+00 0.  1.
<mgrwt>
<rscale>  0 0.12329453E+04</rscale>
<asrwt>0</asrwt>
<pdfrwt beam="1">  1        2 0.15946610E+00 0.12329453E+04</pdfrwt>
<pdfrwt beam="2">  1       -2 0.56406944E-01 0.12329453E+04</pdfrwt>
<totfact> 0.69322814E+01</totfact>
</mgrwt>
</event>
<event>
 6    1  0.2325157E-005  0.8085137E+03  0.7818608E-02  0.9547775E-01
         -1   -1    0    0    0  501 -0.00000000000E+00  0.00000000000E+00  0.29373344266E+03  0.29373344266E+03  0.00000000000E+00 0.  1.
          1   -1    0    0  501    0  0.00000000000E+00 -0.00000000000E+00 -0.55636695817E+03  0.55636695817E+03  0.00000000000E+00 0. -1.
         23    2    1    2    0    0 -0.11121413061E+03 -0.38309982455E+03 -0.12212406287E+03  0.42716191275E+03  0.91754861220E+02 0.  0.
         13    1    3    3    0    0 -0.37221068233E+02 -0.18755569850E+03 -0.10306177478E+03  0.21721942220E+03  0.00000000000E+00 0. -1.
        -13    1    3    3    0    0 -0.73993062382E+02 -0.19554412605E+03 -0.19062288091E+02  0.20994249055E+03  0.00000000000E+00 0.  1.
         22    1    1    2    0    0  0.11121413061E+03  0.38309982455E+03 -0.14050945264E+03  0.42293848808E+03  0.00000000000E+00 0. -1.
<mgrwt>
<rscale>  0 0.80851365E+03</rscale>
<asrwt>0</asrwt>
<pdfrwt beam="1">  1        1 0.85594916E-01 0.80851365E+03</pdfrwt>
<pdfrwt beam="2">  1       -1 0.45189761E-01 0.80851365E+03</pdfrwt>
<totfact> 0.18744715E+02</totfact>
</mgrwt>
</event>
<event>
 6    1  0.3055228E-005  0.3062988E+04  0.7818608E-02  0.8225969E-01
          2   -1    0    0  501    0  0.00000000000E+00  0.00000000000E+00  0.24907797720E+04  0.24907797720E+04  0.00000000000E+00 0.  1.
         -2   -1    0    0    0  501 -0.00000000000E+00 -0.00000000000E+00 -0.94166277055E+03  0.94166277055E+03  0.00000000000E+00 0. -1.
         23    2    1    2    0    0  0.29731872873E+03 -0.11116577449E+04 -0.35489465529E+03  0.12077084557E+04  0.91804844698E+02 0.  0.
         11    1    3    3    0    0  0.19684739222E+03 -0.64661737136E+03 -0.16748418610E+03  0.69635757579E+03  0.00000000000E+00 0.  1.
        -11    1    3    3    0    0  0.10047133652E+03 -0.46504037349E+03 -0.18741046919E+03  0.51135087992E+03  0.00000000000E+00 0. -1.
         22    1    1    2    0    0 -0.29731872873E+03  0.11116577449E+04  0.19040116568E+04  0.22247340869E+04  0.00000000000E+00 0.  1.
<mgrwt>
<rscale>  0 0.30629885E+04</rscale>
<asrwt>0</asrwt>
<pdfrwt beam="1">  1        2 0.38319689E+00 0.30629885E+04</pdfrwt>
<pdfrwt beam="2">  1       -2 0.14487120E+00 0.30629885E+04</pdfrwt>
<totfact> 0.98554008E-01</totfact>
</mgrwt>
</event>
<event>
 6    1  0.2325157E-005  0.1319044E+04  0.7818608E-02  0.9014598E-01
         -2   -1    0    0    0  501 -0.00000000000E+00  0.00000000000E+00  0.30675032176E+03  0.30675032176E+03  0.00000000000E+00 0. -1.
          2   -1    0    0  501    0  0.00000000000E+00 -0.00000000000E+00 -0.14179919084E+04  0.14179919084E+04  0.00000000000E+00 0.  1.
         23    2    1    2    0    0  0.21522482935E+02  0.50147539720E+03 -0.11114808110E+04  0.12228051340E+04  0.89005681346E+02 0.  0.
         13    1    3    3    0    0  0.21332661360E+02  0.21022482164E+03 -0.57103249100E+03  0.60887409524E+03  0.00000000000E+00 0. -1.
        -13    1    3    3    0    0  0.18982157554E+00  0.29125057556E+03 -0.54044831998E+03  0.61393103877E+03  0.00000000000E+00 0.  1.
         22    1    1    2    0    0 -0.21522482935E+02 -0.50147539720E+03  0.23922433966E+00  0.50193709616E+03  0.00000000000E+00 0. -1.
<mgrwt>
<rscale>  0 0.13190443E+04</rscale>
<asrwt>0</asrwt>
<pdfrwt beam="1">  1        2 0.21815260E+00 0.13190443E+04</pdfrwt>
<pdfrwt beam="2">  1       -2 0.47192357E-01 0.13190443E+04</pdfrwt>
<totfact> 0.58852175E+01</totfact>
</mgrwt>
</event>
<event>
 6    1  0.2325157E-005  0.2694307E+04  0.7818608E-02  0.8336854E-01
          2   -1    0    0  501    0  0.00000000000E+00  0.00000000000E+00  0.18835603225E+04  0.18835603225E+04  0.00000000000E+00 0.  1.
         -2   -1    0    0    0  501 -0.00000000000E+00 -0.00000000000E+00 -0.96350648887E+03  0.96350648887E+03  0.00000000000E+00 0. -1.
         23    2    1    2    0    0 -0.80554456264E+03  0.78401884715E+03 -0.32118018779E+03  0.11724774614E+04  0.89213728414E+02 0.  0.
         13    1    3    3    0    0 -0.38816055920E+03  0.42162722183E+03 -0.13056623077E+03  0.58778029443E+03  0.00000000000E+00 0. -1.
        -13    1    3    3    0    0 -0.41738400344E+03  0.36239162532E+03 -0.19061395701E+03  0.58469716695E+03  0.00000000000E+00 0.  1.
         22    1    1    2    0    0  0.80554456264E+03 -0.78401884715E+03  0.12412340214E+04  0.16745893499E+04  0.00000000000E+00 0.  1.
<mgrwt>
<rscale>  0 0.26943070E+04</rscale>
<asrwt>0</asrwt>
<pdfrwt beam="1">  1        2 0.28977851E+00 0.26943070E+04</pdfrwt>
<pdfrwt beam="2">  1       -2 0.14823177E+00 0.26943070E+04</pdfrwt>
<totfact> 0.21046274E+00</totfact>
</mgrwt>
</event>
<event>
 6    1  0.2325157E-005  0.3567871E+04  0.7818608E-02  0.8097891E-01
          2   -1    0    0  501    0  0.00000000000E+00  0.00000000000E+00  0.33433685776E+04  0.33433685776E+04  0.00000000000E+00 0.  1.
         -2   -1    0    0    0  501 -0.00000000000E+00 -0.00000000000E+00 -0.95186193107E+03  0.95186193107E+03  0.00000000000E+00 0. -1.
         23    2    1    2    0    0  0.66318743910E+03 -0.15551193882E+04  0.51543714272E+03  0.17697898196E+04  0.90921210151E+02 0.  0.
         11    1    3    3    0    0  0.18056377824E+03 -0.44939560928E+03  0.10630391850E+03  0.49584293355E+03  0.00000000000E+00 0. -1.
        -11    1    3    3    0    0  0.48262366085E+03 -0.11057237789E+04  0.40913322422E+03  0.12739468860E+04  0.00000000000E+00 0.  1.
         22    1    1    2    0    0 -0.66318743910E+03  0.15551193882E+04  0.18760695038E+04  0.25254406891E+04  0.00000000000E+00 0. -1.
<mgrwt>
<rscale>  0 0.35678707E+04</rscale>
<asrwt>0</asrwt>
<pdfrwt beam="1">  1        2 0.51436439E+00 0.35678707E+04</pdfrwt>
<pdfrwt beam="2">  1       -2 0.14644030E+00 0.35678707E+04</pdfrwt>
<totfact> 0.27140239E-01</totfact>
</mgrwt>
</event>
<event>
 6    1  0.2325157E-005  0.1751370E+04  0.7818608E-02  0.8732597E-01
          2   -1    0    0  501    0  0.00000000000E+00  0.00000000000E+00  0.33300857127E+04  0.33300857127E+04  0.00000000000E+00 0.  1.
         -2   -1    0    0    0  501 -0.00000000000E+00 -0.00000000000E+00 -0.23027149830E+03  0.23027149830E+03  0.00000000000E+00 0. -1.
         23    2    1    2    0    0 -0.10282791758E+03  0.81913369159E+03  0.21330051453E+04  0.22890298096E+04  0.91612958765E+02 0.  0.
         11    1    3    3    0    0 -0.39955576347E+02  0.62409823596E+03  0.16341831472E+04  0.17497570160E+04  0.00000000000E+00 0. -1.
        -11    1    3    3    0    0 -0.62872341235E+02  0.19503545563E+03  0.49882199801E+03  0.53927279362E+03  0.00000000000E+00 0.  1.
         22    1    1    2    0    0  0.10282791758E+03 -0.81913369159E+03  0.96680906912E+03  0.12713274014E+04  0.00000000000E+00 0. -1.
<mgrwt>
<rscale>  0 0.17513696E+04</rscale>
<asrwt>0</asrwt>
<pdfrwt beam="1">  1        2 0.51232084E+00 0.17513696E+04</pdfrwt>
<pdfrwt beam="2">  1       -2 0.35426387E-01 0.17513696E+04</pdfrwt>
<totfact> 0.75976453E+00</totfact>
</mgrwt>
</event>
<event>
 6    1  0.2325157E-005  0.1193085E+04  0.7818608E-02  0.9118931E-01
         -2   -1    0    0    0  501 -0.00000000000E+00  0.00000000000E+00  0.14765681803E+03  0.14765681803E+03  0.00000000000E+00 0. -1.
          2   -1    0    0  501    0  0.00000000000E+00 -0.00000000000E+00 -0.24100668045E+04  0.24100668045E+04  0.00000000000E+00 0.  1.
         23    2    1    2    0    0 -0.55086696401E+03  0.20596423823E+03 -0.97354687126E+03  0.11410218864E+04  0.90894197867E+02 0.  0.
         11    1    3    3    0    0 -0.11258929461E+03  0.76466818750E+02 -0.26436022974E+03  0.29733794695E+03  0.00000000000E+00 0. -1.
        -11    1    3    3    0    0 -0.43827766940E+03  0.12949741948E+03 -0.70918664152E+03  0.84368393943E+03  0.00000000000E+00 0.  1.
         22    1    1    2    0    0  0.55086696401E+03 -0.20596423823E+03 -0.12888631153E+04  0.14167017362E+04  0.00000000000E+00 0. -1.
<mgrwt>
<rscale>  0 0.11930847E+04</rscale>
<asrwt>0</asrwt>
<pdfrwt beam="1">  1        2 0.37077948E+00 0.11930847E+04</pdfrwt>
<pdfrwt beam="2">  1       -2 0.22716435E-01 0.11930847E+04</pdfrwt>
<totfact> 0.66388925E+01</totfact>
</mgrwt>
</event>
<event>
 6    1  0.2325157E-005  0.6624542E+03  0.7818608E-02  0.9783686E-01
         -2   -1    0    0    0  501 -0.00000000000E+00  0.00000000000E+00  0.19790721670E+03  0.19790721670E+03  0.00000000000E+00 0. -1.
          2   -1    0    0  501    0  0.00000000000E+00 -0.00000000000E+00 -0.55435770861E+03  0.55435770861E+03  0.00000000000E+00 0.  1.
         23    2    1    2    0    0  0.14955647441E+03  0.37527627534E+02  0.15067130197E+03  0.22221966714E+03  0.53891347724E+02 0.  0.
         13    1    3    3    0    0  0.11197049527E+03  0.22333630003E+02  0.75707537137E+02  0.13699567153E+03  0.00000000000E+00 0.  1.
        -13    1    3    3    0    0  0.37585979147E+02  0.15193997532E+02  0.74963764836E+02  0.85223995610E+02  0.00000000000E+00 0. -1.
         22    1    1    2    0    0 -0.14955647441E+03 -0.37527627534E+02 -0.50712179389E+03  0.53004525816E+03  0.00000000000E+00 0.  1.
<mgrwt>
<rscale>  0 0.66245420E+03</rscale>
<asrwt>0</asrwt>
<pdfrwt beam="1">  1        2 0.85285801E-01 0.66245420E+03</pdfrwt>
<pdfrwt beam="2">  1       -2 0.30447264E-01 0.66245420E+03</pdfrwt>
<totfact> 0.54733602E+02</totfact>
</mgrwt>
</event>
<event>
 6    1  0.2325157E-005  0.5613381E+04  0.7818608E-02  0.7740278E-01
          2   -1    0    0  501    0  0.00000000000E+00  0.00000000000E+00  0.35883858793E+04  0.35883858793E+04  0.00000000000E+00 0.  1.
         -2   -1    0    0    0  501 -0.00000000000E+00 -0.00000000000E+00 -0.21952800428E+04  0.21952800428E+04  0.00000000000E+00 0. -1.
         23    2    1    2    0    0  0.17585461623E+04 -0.15994972764E+04  0.22327840271E+04  0.32625678269E+04  0.90267222200E+02 0.  0.
         13    1    3    3    0    0  0.38347133019E+03 -0.39203913781E+03  0.54324377735E+03  0.77191887416E+03  0.00000000000E+00 0. -1.
        -13    1    3    3    0    0  0.13750748321E+04 -0.12074581386E+04  0.16895402498E+04  0.24906489528E+04  0.00000000000E+00 0.  1.
         22    1    1    2    0    0 -0.17585461623E+04  0.15994972764E+04 -0.83967819065E+03  0.25210980952E+04  0.00000000000E+00 0. -1.
<mgrwt>
<rscale>  0 0.56133811E+04</rscale>
<asrwt>0</asrwt>
<pdfrwt beam="1">  1        2 0.55205937E+00 0.56133811E+04</pdfrwt>
<pdfrwt beam="2">  1       -2 0.33773539E+00 0.56133811E+04</pdfrwt>
<totfact> 0.90457526E-03</totfact>
</mgrwt>
</event>
<event>
 6    1  0.2325157E-005  0.3841262E+04  0.7818608E-02  0.8037358E-01
         -2   -1    0    0    0  501 -0.00000000000E+00  0.00000000000E+00  0.18273857356E+04  0.18273857356E+04  0.00000000000E+00 0. -1.
          2   -1    0    0  501    0  0.00000000000E+00 -0.00000000000E+00 -0.20186342979E+04  0.20186342979E+04  0.00000000000E+00 0.  1.
         23    2    1    2    0    0  0.72156521186E+03 -0.20145923593E+03 -0.18651469752E+04  0.20121230692E+04  0.92864568730E+02 0.  0.
         11    1    3    3    0    0  0.41050133489E+03 -0.16209934212E+03 -0.10876028422E+04  0.11737408083E+04  0.00000000000E+00 0.  1.
        -11    1    3    3    0    0  0.31106387697E+03 -0.39359893811E+02 -0.77754413299E+03  0.83838226099E+03  0.00000000000E+00 0. -1.
         22    1    1    2    0    0 -0.72156521186E+03  0.20145923593E+03  0.16738984129E+04  0.18338969642E+04  0.00000000000E+00 0. -1.
<mgrwt>
<rscale>  0 0.38412620E+04</rscale>
<asrwt>0</asrwt>
<pdfrwt beam="1">  1        2 0.31055912E+00 0.38412620E+04</pdfrwt>
<pdfrwt beam="2">  1       -2 0.28113627E+00 0.38412620E+04</pdfrwt>
<totfact> 0.21606751E-01</totfact>
</mgrwt>
</event>
<event>
 6    1  0.2325157E-005  0.2062812E+04  0.7818608E-02  0.8577804E-01
          2   -1    0    0  501    0  0.00000000000E+00  0.00000000000E+00  0.16956524337E+04  0.16956524337E+04  0.00000000000E+00 0.  1.
         -2   -1    0    0    0  501 -0.00000000000E+00 -0.00000000000E+00 -0.62736820371E+03  0.62736820371E+03  0.00000000000E+00 0. -1.
         23    2    1    2    0    0 -0.61667435155E+03 -0.54141003338E+03  0.12351583919E+04  0.14856085131E+04  0.89466871123E+02 0.  0.
         13    1    3    3    0    0 -0.23822393680E+03 -0.16199586015E+03  0.47524908367E+03  0.55574723958E+03  0.00000000000E+00 0. -1.
        -13    1    3    3    0    0 -0.37845041475E+03 -0.37941417322E+03  0.75990930822E+03  0.92986127352E+03  0.00000000000E+00 0.  1.
         22    1    1    2    0    0  0.61667435155E+03  0.54141003338E+03 -0.16687416187E+03  0.83741212435E+03  0.00000000000E+00 0. -1.
<mgrwt>
<rscale>  0 0.20628121E+04</rscale>
<asrwt>0</asrwt>
<pdfrwt beam="1">  1        2 0.26086960E+00 0.20628121E+04</pdfrwt>
<pdfrwt beam="2">  1       -2 0.96518186E-01 0.20628121E+04</pdfrwt>
<totfact> 0.81861715E+00</totfact>
</mgrwt>
</event>
<event>
 6    1  0.2325157E-005  0.4158206E+04  0.7818608E-02  0.7973370E-01
         -2   -1    0    0    0  501 -0.00000000000E+00  0.00000000000E+00  0.14379570400E+04  0.14379570400E+04  0.00000000000E+00 0. -1.
          2   -1    0    0  501    0  0.00000000000E+00 -0.00000000000E+00 -0.30061191557E+04  0.30061191557E+04  0.00000000000E+00 0.  1.
         23    2    1    2    0    0 -0.15716674866E+04 -0.47260478660E+03 -0.21468714636E+04  0.27038467620E+04  0.90753831715E+02 0.  0.
         11    1    3    3    0    0 -0.16897046728E+03 -0.32788409418E+02 -0.19072823063E+03  0.25691118419E+03  0.00000000000E+00 0.  1.
        -11    1    3    3    0    0 -0.14026970194E+04 -0.43981637718E+03 -0.19561432330E+04  0.24469355778E+04  0.00000000000E+00 0. -1.
         22    1    1    2    0    0  0.15716674866E+04  0.47260478660E+03  0.57870934790E+03  0.17402294338E+04  0.00000000000E+00 0. -1.
<mgrwt>
<rscale>  0 0.41582064E+04</rscale>
<asrwt>0</asrwt>
<pdfrwt beam="1">  1        2 0.46247987E+00 0.41582064E+04</pdfrwt>
<pdfrwt beam="2">  1       -2 0.22122416E+00 0.41582064E+04</pdfrwt>
<totfact> 0.13042885E-01</totfact>
</mgrwt>
</event>
<event>
 6    1  0.2325157E-005  0.1894359E+04  0.7818608E-02  0.8657669E-01
         -2   -1    0    0    0  501 -0.00000000000E+00  0.00000000000E+00  0.11757920329E+04  0.11757920329E+04  0.00000000000E+00 0. -1.
          2   -1    0    0  501    0  0.00000000000E+00 -0.00000000000E+00 -0.76301710178E+03  0.76301710178E+03  0.00000000000E+00 0.  1.
         23    2    1    2    0    0  0.34170526111E+00 -0.94444112224E+03  0.17159560777E+03  0.96405962010E+03  0.89424539969E+02 0.  0.
         13    1    3    3    0    0 -0.57205175381E+01 -0.14982643511E+03 -0.50660844752E+01  0.15002116581E+03  0.00000000000E+00 0. -1.
        -13    1    3    3    0    0  0.60622227992E+01 -0.79461468714E+03  0.17666169224E+03  0.81403845429E+03  0.00000000000E+00 0.  1.
         22    1    1    2    0    0 -0.34170526111E+00  0.94444112224E+03  0.24117932335E+03  0.97474951457E+03  0.00000000000E+00 0. -1.
<mgrwt>
<rscale>  0 0.18943594E+04</rscale>
<asrwt>0</asrwt>
<pdfrwt beam="1">  1        2 0.11738725E+00 0.18943594E+04</pdfrwt>
<pdfrwt beam="2">  1       -2 0.18089108E+00 0.18943594E+04</pdfrwt>
<totfact> 0.61386602E+00</totfact>
</mgrwt>
</event>
<event>
 6    1  0.2325157E-005  0.3024020E+04  0.7818608E-02  0.8236905E-01
          2   -1    0    0  501    0  0.00000000000E+00  0.00000000000E+00  0.26226876585E+04  0.26226876585E+04  0.00000000000E+00 0.  1.
         -2   -1    0    0    0  501 -0.00000000000E+00 -0.00000000000E+00 -0.87169127475E+03  0.87169127475E+03  0.00000000000E+00 0. -1.
         23    2    1    2    0    0  0.67583635042E+03  0.24696330260E+03  0.24111414194E+04  0.25178866837E+04  0.91677491776E+02 0.  0.
         13    1    3    3    0    0  0.25093856401E+03  0.51366165171E+02  0.77811165861E+03  0.81918642512E+03  0.00000000000E+00 0.  1.
        -13    1    3    3    0    0  0.42489778642E+03  0.19559713743E+03  0.16330297608E+04  0.16987002586E+04  0.00000000000E+00 0. -1.
         22    1    1    2    0    0 -0.67583635042E+03 -0.24696330260E+03 -0.66014503560E+03  0.97649224954E+03  0.00000000000E+00 0. -1.
<mgrwt>
<rscale>  0 0.30240198E+04</rscale>
<asrwt>0</asrwt>
<pdfrwt beam="1">  1        2 0.40349040E+00 0.30240198E+04</pdfrwt>
<pdfrwt beam="2">  1       -2 0.13410635E+00 0.30240198E+04</pdfrwt>
<totfact> 0.10113649E+00</totfact>
</mgrwt>
</event>
<event>
 6    1  0.2325157E-005  0.2702472E+04  0.7818608E-02  0.8334203E-01
         -2   -1    0    0    0  501 -0.00000000000E+00  0.00000000000E+00  0.80490916194E+03  0.80490916194E+03  0.00000000000E+00 0. -1.
          2   -1    0    0  501    0  0.00000000000E+00 -0.00000000000E+00 -0.22683778814E+04  0.22683778814E+04  0.00000000000E+00 0.  1.
         23    2    1    2    0    0 -0.81190768772E+03 -0.10441145708E+04 -0.10406613136E+04  0.16847138791E+04  0.76912641341E+02 0.  0.
         13    1    3    3    0    0 -0.66972193497E+02 -0.65734792064E+02 -0.55243205235E+02  0.10889512989E+03  0.00000000000E+00 0. -1.
        -13    1    3    3    0    0 -0.74493549422E+03 -0.97837977869E+03 -0.98541810837E+03  0.15758187492E+04  0.00000000000E+00 0.  1.
         22    1    1    2    0    0  0.81190768772E+03  0.10441145708E+04 -0.42280740590E+03  0.13885731643E+04  0.00000000000E+00 0. -1.
<mgrwt>
<rscale>  0 0.27024716E+04</rscale>
<asrwt>0</asrwt>
<pdfrwt beam="1">  1        2 0.34898121E+00 0.27024716E+04</pdfrwt>
<pdfrwt beam="2">  1       -2 0.12383218E+00 0.27024716E+04</pdfrwt>
<totfact> 0.20341406E+00</totfact>
</mgrwt>
</event>
<event>
 6    1  0.2325157E-005  0.1798574E+04  0.7818608E-02  0.8707058E-01
         -2   -1    0    0    0  501 -0.00000000000E+00  0.00000000000E+00  0.95127331359E+03  0.95127331359E+03  0.00000000000E+00 0. -1.
          2   -1    0    0  501    0  0.00000000000E+00 -0.00000000000E+00 -0.85014189196E+03  0.85014189196E+03  0.00000000000E+00 0.  1.
         23    2    1    2    0    0  0.82398175641E+03  0.26719984561E+03  0.28389066705E+03  0.91612280517E+03  0.91353111158E+02 0.  0.
         11    1    3    3    0    0  0.80752256831E+03  0.26036410504E+03  0.26219918158E+03  0.88804874660E+03  0.00000000000E+00 0.  1.
        -11    1    3    3    0    0  0.16459188097E+02  0.68357405727E+01  0.21691485478E+02  0.28074058564E+02  0.00000000000E+00 0. -1.
         22    1    1    2    0    0 -0.82398175641E+03 -0.26719984561E+03 -0.18275924543E+03  0.88529240038E+03  0.00000000000E+00 0.  1.
<mgrwt>
<rscale>  0 0.17985742E+04</rscale>
<asrwt>0</asrwt>
<pdfrwt beam="1">  1        2 0.13079106E+00 0.17985742E+04</pdfrwt>
<pdfrwt beam="2">  1       -2 0.14634974E+00 0.17985742E+04</pdfrwt>
<totfact> 0.95781025E+00</totfact>
</mgrwt>
</event>
<event>
 6    1  0.2325157E-005  0.3167612E+04  0.7818608E-02  0.8197423E-01
          2   -1    0    0  501    0  0.00000000000E+00  0.00000000000E+00  0.15046498389E+04  0.15046498389E+04  0.00000000000E+00 0.  1.
         -2   -1    0    0    0  501 -0.00000000000E+00 -0.00000000000E+00 -0.16671264212E+04  0.16671264212E+04  0.00000000000E+00 0. -1.
         23    2    1    2    0    0  0.15157730055E+04 -0.20443263643E+03  0.32544759886E+03  0.15663384651E+04  0.90219401860E+02 0.  0.
         13    1    3    3    0    0  0.77026056390E+03 -0.14910548682E+03  0.17180050582E+03  0.80314954790E+03  0.00000000000E+00 0. -1.
        -13    1    3    3    0    0  0.74551244160E+03 -0.55327149614E+02  0.15364709304E+03  0.76318891715E+03  0.00000000000E+00 0.  1.
         22    1    1    2    0    0 -0.15157730055E+04  0.20443263643E+03 -0.48792418116E+03  0.16054377950E+04  0.00000000000E+00 0.  1.
<mgrwt>
<rscale>  0 0.31676120E+04</rscale>
<asrwt>0</asrwt>
<pdfrwt beam="1">  1        2 0.23148459E+00 0.31676120E+04</pdfrwt>
<pdfrwt beam="2">  1       -2 0.25648099E+00 0.31676120E+04</pdfrwt>
<totfact> 0.62461046E-01</totfact>
</mgrwt>
</event>
<event>
 6    1  0.2325157E-005  0.8533599E+03  0.7818608E-02  0.9485839E-01
         -2   -1    0    0    0  501 -0.00000000000E+00  0.00000000000E+00  0.20842415190E+03  0.20842415190E+03  0.00000000000E+00 0. -1.
          2   -1    0    0  501    0  0.00000000000E+00 -0.00000000000E+00 -0.87348691603E+03  0.87348691603E+03  0.00000000000E+00 0.  1.
         23    2    1    2    0    0 -0.23191400267E+03  0.31160070645E+02 -0.78068823023E+03  0.82090474033E+03  0.98262023379E+02 0.  0.
         11    1    3    3    0    0 -0.90024038524E+02  0.41674483759E+02 -0.20285114100E+03  0.22580893586E+03  0.00000000000E+00 0. -1.
        -11    1    3    3    0    0 -0.14188996415E+03 -0.10514413114E+02 -0.57783708923E+03  0.59509580447E+03  0.00000000000E+00 0.  1.
         22    1    1    2    0    0  0.23191400267E+03 -0.31160070645E+02  0.11562546610E+03  0.26100632760E+03  0.00000000000E+00 0. -1.
<mgrwt>
<rscale>  0 0.85335988E+03</rscale>
<asrwt>0</asrwt>
<pdfrwt beam="1">  1        2 0.13438261E+00 0.85335988E+03</pdfrwt>
<pdfrwt beam="2">  1       -2 0.32065253E-01 0.85335988E+03</pdfrwt>
<totfact> 0.27746467E+02</totfact>
</mgrwt>
</event>
<event>
 6    1  0.2325157E-005  0.2242135E+04  0.7818608E-02  0.8501092E-01
         -2   -1    0    0    0  501 -0.00000000000E+00  0.00000000000E+00  0.16264707297E+04  0.16264707297E+04  0.00000000000E+00 0. -1.
          2   -1    0    0  501    0  0.00000000000E+00 -0.00000000000E+00 -0.77271160993E+03  0.77271160993E+03  0.00000000000E+00 0.  1.
         23    2    1    2    0    0  0.83231844217E+03 -0.46984071087E+03  0.10505399282E+04  0.14233611627E+04  0.93907273737E+02 0.  0.
         13    1    3    3    0    0  0.41650361735E+03 -0.20778519476E+03  0.57103269027E+03  0.73670094596E+03  0.00000000000E+00 0. -1.
        -13    1    3    3    0    0  0.41581482482E+03 -0.26205551611E+03  0.47950723794E+03  0.68666021678E+03  0.00000000000E+00 0.  1.
         22    1    1    2    0    0 -0.83231844217E+03  0.46984071087E+03 -0.19678080840E+03  0.97582117692E+03  0.00000000000E+00 0.  1.
<mgrwt>
<rscale>  0 0.22421354E+04</rscale>
<asrwt>0</asrwt>
<pdfrwt beam="1">  1        2 0.11887871E+00 0.22421354E+04</pdfrwt>
<pdfrwt beam="2">  1       -2 0.25022627E+00 0.22421354E+04</pdfrwt>
<totfact> 0.21039828E+00</totfact>
</mgrwt>
</event>
<event>
 6    1  0.2325157E-005  0.2451847E+04  0.7818608E-02  0.8420344E-01
          2   -1    0    0  501    0  0.00000000000E+00  0.00000000000E+00  0.27394219231E+04  0.27394219231E+04  0.00000000000E+00 0.  1.
         -2   -1    0    0    0  501 -0.00000000000E+00 -0.00000000000E+00 -0.54861501588E+03  0.54861501588E+03  0.00000000000E+00 0. -1.
         23    2    1    2    0    0  0.10297891454E+04  0.45907209020E+03  0.45717183813E+03  0.12200177367E+04  0.90688038475E+02 0.  0.
         11    1    3    3    0    0  0.47563302914E+03  0.18961769833E+03  0.25099601227E+03  0.57024612941E+03  0.00000000000E+00 0.  1.
        -11    1    3    3    0    0  0.55415611630E+03  0.26945439187E+03  0.20617582586E+03  0.64977160734E+03  0.00000000000E+00 0. -1.
         22    1    1    2    0    0 -0.10297891454E+04 -0.45907209020E+03  0.17336350691E+04  0.20680192023E+04  0.00000000000E+00 0. -1.
<mgrwt>
<rscale>  0 0.24518467E+04</rscale>
<asrwt>0</asrwt>
<pdfrwt beam="1">  1        2 0.42144952E+00 0.24518467E+04</pdfrwt>
<pdfrwt beam="2">  1       -2 0.84402312E-01 0.24518467E+04</pdfrwt>
<totfact> 0.27575636E+00</totfact>
</mgrwt>
</event>
<event>
 6    1  0.2325157E-005  0.1507026E+04  0.7818608E-02  0.8879794E-01
         -2   -1    0    0    0  501 -0.00000000000E+00  0.00000000000E+00  0.25951827178E+03  0.25951827178E+03  0.00000000000E+00 0. -1.
          2   -1    0    0  501    0  0.00000000000E+00 -0.00000000000E+00 -0.21878309791E+04  0.21878309791E+04  0.00000000000E+00 0.  1.
         23    2    1    2    0    0 -0.38584125329E+03 -0.62825834237E+02 -0.20085369515E+04  0.20482797237E+04  0.91698324306E+02 0.  0.
         13    1    3    3    0    0 -0.22639035313E+03  0.90593065887E+01 -0.11164972985E+04  0.11392545284E+04  0.00000000000E+00 0. -1.
        -13    1    3    3    0    0 -0.15945090016E+03 -0.71885140826E+02 -0.89203965305E+03  0.90902519528E+03  0.00000000000E+00 0.  1.
         22    1    1    2    0    0  0.38584125329E+03  0.62825834237E+02  0.80224244181E+02  0.39906952721E+03  0.00000000000E+00 0. -1.
<mgrwt>
<rscale>  0 0.15070264E+04</rscale>
<asrwt>0</asrwt>
<pdfrwt beam="1">  1        2 0.33658938E+00 0.15070264E+04</pdfrwt>
<pdfrwt beam="2">  1       -2 0.39925888E-01 0.15070264E+04</pdfrwt>
<totfact> 0.30100317E+01</totfact>
</mgrwt>
</event>
<event>
 6    1  0.2325157E-005  0.1344812E+04  0.7818608E-02  0.8994765E-01
          2   -1    0    0  501    0  0.00000000000E+00  0.00000000000E+00  0.11495923061E+04  0.11495923061E+04  0.00000000000E+00 0. -1.
         -2   -1    0    0    0  501 -0.00000000000E+00 -0.00000000000E+00 -0.39329573844E+03  0.39329573844E+03  0.00000000000E+00 0.  1.
         23    2    1    2    0    0  0.25771219256E+03  0.17552391048E+03 -0.30186622965E+03  0.43974130773E+03  0.70887091788E+02 0.  0.
         13    1    3    3    0    0  0.84208513565E+02  0.45850882166E+02 -0.13842847587E+03  0.16839186466E+03  0.00000000000E+00 0. -1.
        -13    1    3    3    0    0  0.17350367899E+03  0.12967302831E+03 -0.16343775378E+03  0.27134944307E+03  0.00000000000E+00 0.  1.
         22    1    1    2    0    0 -0.25771219256E+03 -0.17552391048E+03  0.10581627973E+04  0.11031467368E+04  0.00000000000E+00 0. -1.
<mgrwt>
<rscale>  0 0.13448119E+04</rscale>
<asrwt>0</asrwt>
<pdfrwt beam="1">  1        2 0.17686035E+00 0.13448119E+04</pdfrwt>
<pdfrwt beam="2">  1       -2 0.60507037E-01 0.13448119E+04</pdfrwt>
<totfact> 0.50501533E+01</totfact>
</mgrwt>
</event>
<event>
 6    1  0.2325157E-005  0.2017475E+04  0.7818608E-02  0.8598494E-01
         -2   -1    0    0    0  501 -0.00000000000E+00  0.00000000000E+00  0.19847799624E+03  0.19847799624E+03  0.00000000000E+00 0. -1.
          2   -1    0    0  501    0  0.00000000000E+00 -0.00000000000E+00 -0.51267723875E+04  0.51267723875E+04  0.00000000000E+00 0.  1.
         23    2    1    2    0    0 -0.68901284547E+02  0.58120755981E+02 -0.51156883990E+04  0.51173034592E+04  0.91659631322E+02 0.  0.
         13    1    3    3    0    0 -0.58142974185E+02  0.19772715782E+01 -0.14459836352E+04  0.14471534778E+04  0.00000000000E+00 0.  1.
        -13    1    3    3    0    0 -0.10758310362E+02  0.56143484403E+02 -0.36697047638E+04  0.36701499813E+04  0.00000000000E+00 0. -1.
         22    1    1    2    0    0  0.68901284547E+02 -0.58120755981E+02  0.18739400777E+03  0.20794692457E+03  0.00000000000E+00 0. -1.
<mgrwt>
<rscale>  0 0.20174752E+04</rscale>
<asrwt>0</asrwt>
<pdfrwt beam="1">  1        2 0.78873417E+00 0.20174752E+04</pdfrwt>
<pdfrwt beam="2">  1       -2 0.30535078E-01 0.20174752E+04</pdfrwt>
<totfact> 0.22112133E-01</totfact>
</mgrwt>
</event>
<event>
 6    1  0.2325157E-005  0.1652915E+04  0.7818608E-02  0.8788684E-01
          2   -1    0    0  501    0  0.00000000000E+00  0.00000000000E+00  0.74975901217E+03  0.74975901217E+03  0.00000000000E+00 0. -1.
         -2   -1    0    0    0  501 -0.00000000000E+00 -0.00000000000E+00 -0.91100150367E+03  0.91100150367E+03  0.00000000000E+00 0.  1.
         23    2    1    2    0    0  0.21858864036E+03  0.43185720826E+03 -0.74996698829E+03  0.89860687309E+03  0.10374096012E+03 0.  0.
         13    1    3    3    0    0  0.12353288716E+03  0.20585111167E+03 -0.28239703014E+03  0.37065231285E+03  0.00000000000E+00 0. -1.
        -13    1    3    3    0    0  0.95055753201E+02  0.22600609659E+03 -0.46756995815E+03  0.52795456024E+03  0.00000000000E+00 0.  1.
         22    1    1    2    0    0 -0.21858864036E+03 -0.43185720826E+03  0.58872449679E+03  0.76215364274E+03  0.00000000000E+00 0. -1.
<mgrwt>
<rscale>  0 0.16529145E+04</rscale>
<asrwt>0</asrwt>
<pdfrwt beam="1">  1        2 0.11534754E+00 0.16529145E+04</pdfrwt>
<pdfrwt beam="2">  1       -2 0.14015408E+00 0.16529145E+04</pdfrwt>
<totfact> 0.12826772E+01</totfact>
</mgrwt>
</event>
<event>
 6    1  0.2325157E-005  0.1311283E+04  0.7818608E-02  0.9020665E-01
          2   -1    0    0  501    0  0.00000000000E+00  0.00000000000E+00  0.21394012570E+04  0.21394012570E+04  0.00000000000E+00 0.  1.
         -2   -1    0    0    0  501 -0.00000000000E+00 -0.00000000000E+00 -0.20092820177E+03  0.20092820177E+03  0.00000000000E+00 0. -1.
         23    2    1    2    0    0 -0.31376463906E+03  0.17017706590E+03 -0.41083011100E+00  0.36886320155E+03  0.93012957128E+02 0.  0.
         11    1    3    3    0    0 -0.25213484836E+03  0.90002051261E+02 -0.20564102857E+01  0.26772482106E+03  0.00000000000E+00 0. -1.
        -11    1    3    3    0    0 -0.61629790704E+02  0.80175014639E+02  0.16455801747E+01  0.10113838049E+03  0.00000000000E+00 0.  1.
         22    1    1    2    0    0  0.31376463906E+03 -0.17017706590E+03  0.19388838853E+04  0.19714662572E+04  0.00000000000E+00 0.  1.
<mgrwt>
<rscale>  0 0.13112834E+04</rscale>
<asrwt>0</asrwt>
<pdfrwt beam="1">  1        2 0.32913864E+00 0.13112834E+04</pdfrwt>
<pdfrwt beam="2">  1       -2 0.30912033E-01 0.13112834E+04</pdfrwt>
<totfact> 0.53118529E+01</totfact>
</mgrwt>
</event>
<event>
 6    1  0.2325157E-005  0.4018808E+04  0.7818608E-02  0.8000763E-01
         -2   -1    0    0    0  501 -0.00000000000E+00  0.00000000000E+00  0.26332606160E+04  0.26332606160E+04  0.00000000000E+00 0. -1.
          2   -1    0    0  501    0  0.00000000000E+00 -0.00000000000E+00 -0.15333479179E+04  0.15333479179E+04  0.00000000000E+00 0.  1.
         23    2    1    2    0    0 -0.50846932470E+03 -0.80251181166E+03 -0.12843099453E+04  0.16000770465E+04  0.90709741542E+02 0.  0.
         11    1    3    3    0    0 -0.20428607772E+03 -0.24422718433E+03 -0.41402189534E+03  0.52229670584E+03  0.00000000000E+00 0. -1.
        -11    1    3    3    0    0 -0.30418324698E+03 -0.55828462734E+03 -0.87028804998E+03  0.10777803407E+04  0.00000000000E+00 0.  1.
         22    1    1    2    0    0  0.50846932470E+03  0.80251181166E+03  0.23842226435E+04  0.25665314874E+04  0.00000000000E+00 0. -1.
<mgrwt>
<rscale>  0 0.40188081E+04</rscale>
<asrwt>0</asrwt>
<pdfrwt beam="1">  1        2 0.23589968E+00 0.40188081E+04</pdfrwt>
<pdfrwt beam="2">  1       -2 0.40511702E+00 0.40188081E+04</pdfrwt>
<totfact> 0.65758413E-02</totfact>
</mgrwt>
</event>
<event>
 6    1  0.2325157E-005  0.2079274E+04  0.7818608E-02  0.8570429E-01
          2   -1    0    0  501    0  0.00000000000E+00  0.00000000000E+00  0.96522365927E+03  0.96522365927E+03  0.00000000000E+00 0.  1.
         -2   -1    0    0    0  501 -0.00000000000E+00 -0.00000000000E+00 -0.11197871691E+04  0.11197871691E+04  0.00000000000E+00 0. -1.
         23    2    1    2    0    0  0.10324289767E+03  0.59350413057E+03 -0.92455164216E+03  0.11073667352E+04  0.92515395366E+02 0.  0.
         13    1    3    3    0    0  0.40182249446E+02  0.26510550737E+03 -0.32971890777E+03  0.42498247181E+03  0.00000000000E+00 0.  1.
        -13    1    3    3    0    0  0.63060648227E+02  0.32839862320E+03 -0.59483273439E+03  0.68238426343E+03  0.00000000000E+00 0. -1.
         22    1    1    2    0    0 -0.10324289767E+03 -0.59350413057E+03  0.76998813233E+03  0.97764409314E+03  0.00000000000E+00 0.  1.
<mgrwt>
<rscale>  0 0.20792740E+04</rscale>
<asrwt>0</asrwt>
<pdfrwt beam="1">  1        2 0.14849595E+00 0.20792740E+04</pdfrwt>
<pdfrwt beam="2">  1       -2 0.17227495E+00 0.20792740E+04</pdfrwt>
<totfact> 0.50284336E+00</totfact>
</mgrwt>
</event>
<event>
 6    1  0.2325157E-005  0.7697234E+03  0.7818608E-02  0.9604906E-01
          2   -1    0    0  501    0  0.00000000000E+00  0.00000000000E+00  0.14322565047E+04  0.14322565047E+04  0.00000000000E+00 0.  1.
         -2   -1    0    0    0  501 -0.00000000000E+00 -0.00000000000E+00 -0.10341620438E+03  0.10341620438E+03  0.00000000000E+00 0. -1.
         23    2    1    2    0    0 -0.19525252565E+03 -0.31511067189E+03  0.51307260101E+03  0.63962850061E+03  0.91993698532E+02 0.  0.
         11    1    3    3    0    0 -0.38226382840E+02 -0.12913019968E+03  0.14071339790E+03  0.19477198249E+03  0.00000000000E+00 0. -1.
        -11    1    3    3    0    0 -0.15702614281E+03 -0.18598047220E+03  0.37235920311E+03  0.44485651811E+03  0.00000000000E+00 0.  1.
         22    1    1    2    0    0  0.19525252565E+03  0.31511067189E+03  0.81576769933E+03  0.89604420850E+03  0.00000000000E+00 0. -1.
<mgrwt>
<rscale>  0 0.76972341E+03</rscale>
<asrwt>0</asrwt>
<pdfrwt beam="1">  1        2 0.22034714E+00 0.76972341E+03</pdfrwt>
<pdfrwt beam="2">  1       -2 0.15910186E-01 0.76972341E+03</pdfrwt>
<totfact> 0.44412960E+02</totfact>
</mgrwt>
</event>
<event>
 6    1  0.2325157E-005  0.1129070E+04  0.7818608E-02  0.9177313E-01
          2   -1    0    0  501    0  0.00000000000E+00  0.00000000000E+00  0.57127879798E+03  0.57127879798E+03  0.00000000000E+00 0.  1.
         -2   -1    0    0    0  501 -0.00000000000E+00 -0.00000000000E+00 -0.55787031958E+03  0.55787031958E+03  0.00000000000E+00 0. -1.
         23    2    1    2    0    0 -0.32873319755E+03  0.38278823497E+03  0.25133811620E+03  0.57129352644E+03  0.92806770737E+02 0.  0.
         11    1    3    3    0    0 -0.64645247305E+01  0.43945362486E+02  0.32250808054E+02  0.54891707791E+02  0.00000000000E+00 0. -1.
        -11    1    3    3    0    0 -0.32226867282E+03  0.33884287248E+03  0.21908730815E+03  0.51640181865E+03  0.00000000000E+00 0.  1.
         22    1    1    2    0    0  0.32873319755E+03 -0.38278823497E+03 -0.23792963781E+03  0.55785559112E+03  0.00000000000E+00 0. -1.
<mgrwt>
<rscale>  0 0.11290695E+04</rscale>
<asrwt>0</asrwt>
<pdfrwt beam="1">  1        2 0.87889046E-01 0.11290695E+04</pdfrwt>
<pdfrwt beam="2">  1       -2 0.85826203E-01 0.11290695E+04</pdfrwt>
<totfact> 0.61496401E+01</totfact>
</mgrwt>
</event>
<event>
 6    1  0.2325157E-005  0.2778955E+04  0.7818608E-02  0.8309832E-01
         -2   -1    0    0    0  501 -0.00000000000E+00  0.00000000000E+00  0.67502136204E+03  0.67502136204E+03  0.00000000000E+00 0. -1.
          2   -1    0    0  501    0  0.00000000000E+00 -0.00000000000E+00 -0.28601277710E+04  0.28601277710E+04  0.00000000000E+00 0.  1.
         23    2    1    2    0    0  0.98141469187E+03 -0.88341671794E+03 -0.55078302979E+03  0.14340511337E+04  0.97677086958E+02 0.  0.
         11    1    3    3    0    0  0.35231177570E+03 -0.34808170774E+03 -0.25148259477E+03  0.55545293053E+03  0.00000000000E+00 0. -1.
        -11    1    3    3    0    0  0.62910291617E+03 -0.53533501020E+03 -0.29930043502E+03  0.87859820321E+03  0.00000000000E+00 0.  1.
         22    1    1    2    0    0 -0.98141469187E+03  0.88341671794E+03 -0.16343233792E+04  0.21010979993E+04  0.00000000000E+00 0.  1.
<mgrwt>
<rscale>  0 0.27789547E+04</rscale>
<asrwt>0</asrwt>
<pdfrwt beam="1">  1        2 0.44001966E+00 0.27789547E+04</pdfrwt>
<pdfrwt beam="2">  1       -2 0.10384944E+00 0.27789547E+04</pdfrwt>
<totfact> 0.13978810E+00</totfact>
</mgrwt>
</event>
<event>
 6    1  0.2325157E-005  0.4892696E+04  0.7818608E-02  0.7845276E-01
          2   -1    0    0  501    0  0.00000000000E+00  0.00000000000E+00  0.20171740338E+04  0.20171740338E+04  0.00000000000E+00 0.  1.
         -2   -1    0    0    0  501 -0.00000000000E+00 -0.00000000000E+00 -0.29668330446E+04  0.29668330446E+04  0.00000000000E+00 0. -1.
         23    2    1    2    0    0 -0.23446350184E+04  0.68378432140E+03 -0.60287224689E+03  0.25172003516E+04  0.89265312254E+02 0.  0.
         13    1    3    3    0    0 -0.14132795236E+04  0.39209933379E+03 -0.32149903531E+03  0.15014867728E+04  0.00000000000E+00 0. -1.
        -13    1    3    3    0    0 -0.93135549487E+03  0.29168498761E+03 -0.28137321157E+03  0.10157135787E+04  0.00000000000E+00 0.  1.
         22    1    1    2    0    0  0.23446350184E+04 -0.68378432140E+03 -0.34678676397E+03  0.24668067268E+04  0.00000000000E+00 0. -1.
<mgrwt>
<rscale>  0 0.48926960E+04</rscale>
<asrwt>0</asrwt>
<pdfrwt beam="1">  1        2 0.31033447E+00 0.48926960E+04</pdfrwt>
<pdfrwt beam="2">  1       -2 0.45643585E+00 0.48926960E+04</pdfrwt>
<totfact> 0.15145960E-02</totfact>
</mgrwt>
</event>
<event>
 6    1  0.2325157E-005  0.2275727E+04  0.7818608E-02  0.8487554E-01
          2   -1    0    0  501    0  0.00000000000E+00  0.00000000000E+00  0.36705988211E+04  0.36705988211E+04  0.00000000000E+00 0.  1.
         -2   -1    0    0    0  501 -0.00000000000E+00 -0.00000000000E+00 -0.35273078677E+03  0.35273078677E+03  0.00000000000E+00 0. -1.
         23    2    1    2    0    0  0.41448287981E+03 -0.88315870841E+03  0.63247750938E+03  0.11662178436E+04  0.90944472035E+02 0.  0.
         13    1    3    3    0    0  0.33600436764E+03 -0.63599009844E+03  0.48991369994E+03  0.87028602986E+03  0.00000000000E+00 0.  1.
        -13    1    3    3    0    0  0.78478512170E+02 -0.24716860998E+03  0.14256380944E+03  0.29593181376E+03  0.00000000000E+00 0. -1.
         22    1    1    2    0    0 -0.41448287981E+03  0.88315870841E+03  0.26853905249E+04  0.28571117642E+04  0.00000000000E+00 0.  1.
<mgrwt>
<rscale>  0 0.22757269E+04</rscale>
<asrwt>0</asrwt>
<pdfrwt beam="1">  1        2 0.56470748E+00 0.22757269E+04</pdfrwt>
<pdfrwt beam="2">  1       -2 0.54266277E-01 0.22757269E+04</pdfrwt>
<totfact> 0.17886495E+00</totfact>
</mgrwt>
</event>
<event>
 6    1  0.2325157E-005  0.4791205E+04  0.7818608E-02  0.7861548E-01
         -2   -1    0    0    0  501 -0.00000000000E+00  0.00000000000E+00  0.21056702248E+04  0.21056702248E+04  0.00000000000E+00 0. -1.
          2   -1    0    0  501    0  0.00000000000E+00 -0.00000000000E+00 -0.27254562818E+04  0.27254562818E+04  0.00000000000E+00 0.  1.
         23    2    1    2    0    0 -0.14790831753E+04  0.98174845296E+03  0.13106270711E+04  0.22085301005E+04  0.91349992992E+02 0.  0.
         11    1    3    3    0    0 -0.11928262587E+04  0.76232670344E+03  0.10099110729E+04  0.17389355541E+04  0.00000000000E+00 0. -1.
        -11    1    3    3    0    0 -0.28625691651E+03  0.21942174952E+03  0.30071599818E+03  0.46959454636E+03  0.00000000000E+00 0.  1.
         22    1    1    2    0    0  0.14790831753E+04 -0.98174845296E+03 -0.19304131281E+04  0.26225964061E+04  0.00000000000E+00 0.  1.
<mgrwt>
<rscale>  0 0.47912053E+04</rscale>
<asrwt>0</asrwt>
<pdfrwt beam="1">  1        2 0.41930096E+00 0.47912053E+04</pdfrwt>
<pdfrwt beam="2">  1       -2 0.32394927E+00 0.47912053E+04</pdfrwt>
<totfact> 0.42952591E-02</totfact>
</mgrwt>
</event>
<event>
 6    1  0.2325157E-005  0.1439397E+04  0.7818608E-02  0.8925785E-01
         -2   -1    0    0    0  501 -0.00000000000E+00  0.00000000000E+00  0.24712215574E+03  0.24712215574E+03  0.00000000000E+00 0. -1.
          2   -1    0    0  501    0  0.00000000000E+00 -0.00000000000E+00 -0.20959913836E+04  0.20959913836E+04  0.00000000000E+00 0.  1.
         23    2    1    2    0    0 -0.13283842100E+03 -0.13452561771E+03 -0.20536835436E+04  0.20643805277E+04  0.91146464811E+02 0.  0.
         13    1    3    3    0    0 -0.10126289000E+03 -0.58069394641E+02 -0.15020895617E+04  0.15066184915E+04  0.00000000000E+00 0.  1.
        -13    1    3    3    0    0 -0.31575531005E+02 -0.76456223074E+02 -0.55159398187E+03  0.55776203621E+03  0.00000000000E+00 0. -1.
         22    1    1    2    0    0  0.13283842100E+03  0.13452561771E+03  0.20481431566E+03  0.27873301171E+03  0.00000000000E+00 0. -1.
<mgrwt>
<rscale>  0 0.14393970E+04</rscale>
<asrwt>0</asrwt>
<pdfrwt beam="1">  1        2 0.32246023E+00 0.14393970E+04</pdfrwt>
<pdfrwt beam="2">  1       -2 0.38018791E-01 0.14393970E+04</pdfrwt>
<totfact> 0.37467882E+01</totfact>
</mgrwt>
</event>
<event>
 6    1  0.2325157E-005  0.1685238E+04  0.7818608E-02  0.8769829E-01
          1   -1    0    0  501    0  0.00000000000E+00  0.00000000000E+00  0.70968399645E+03  0.70968399645E+03  0.00000000000E+00 0. -1.
         -1   -1    0    0    0  501 -0.00000000000E+00 -0.00000000000E+00 -0.10004548993E+04  0.10004548993E+04  0.00000000000E+00 0.  1.
         23    2    1    2    0    0 -0.72661321207E+03 -0.18811728861E+03  0.23728401001E+03  0.79242605111E+03  0.90997092505E+02 0.  0.
         11    1    3    3    0    0 -0.43416786970E+03 -0.68866062797E+02  0.15419683450E+03  0.46585506056E+03  0.00000000000E+00 0.  1.
        -11    1    3    3    0    0 -0.29244534237E+03 -0.11925122581E+03  0.83087175511E+02  0.32657099055E+03  0.00000000000E+00 0. -1.
         22    1    1    2    0    0  0.72661321207E+03  0.18811728861E+03 -0.52805491287E+03  0.91771284465E+03  0.00000000000E+00 0.  1.
<mgrwt>
<rscale>  0 0.16852381E+04</rscale>
<asrwt>0</asrwt>
<pdfrwt beam="1">  1        1 0.10918215E+00 0.16852381E+04</pdfrwt>
<pdfrwt beam="2">  1       -1 0.15391614E+00 0.16852381E+04</pdfrwt>
<totfact> 0.82694954E+00</totfact>
</mgrwt>
</event>
<event>
 6    1  0.2325157E-005  0.3414466E+04  0.7818608E-02  0.8134365E-01
          2   -1    0    0  501    0  0.00000000000E+00  0.00000000000E+00  0.21045396669E+04  0.21045396669E+04  0.00000000000E+00 0.  1.
         -2   -1    0    0    0  501 -0.00000000000E+00 -0.00000000000E+00 -0.13849323661E+04  0.13849323661E+04  0.00000000000E+00 0. -1.
         23    2    1    2    0    0  0.29587424337E+03 -0.10143049295E+04 -0.10088407570E+04  0.14636663300E+04  0.90572592464E+02 0.  0.
         13    1    3    3    0    0  0.19897368037E+02 -0.17757031640E+03 -0.19043836570E+03  0.26113960567E+03  0.00000000000E+00 0. -1.
        -13    1    3    3    0    0  0.27597687533E+03 -0.83673461314E+03 -0.81840239131E+03  0.12025267243E+04  0.00000000000E+00 0.  1.
         22    1    1    2    0    0 -0.29587424337E+03  0.10143049295E+04  0.17284480578E+04  0.20258057031E+04  0.00000000000E+00 0.  1.
<mgrwt>
<rscale>  0 0.34144663E+04</rscale>
<asrwt>0</asrwt>
<pdfrwt beam="1">  1        2 0.32377533E+00 0.34144663E+04</pdfrwt>
<pdfrwt beam="2">  1       -2 0.21306652E+00 0.34144663E+04</pdfrwt>
<totfact> 0.52896226E-01</totfact>
</mgrwt>
</event>
<event>
 6    1  0.2325157E-005  0.5517893E+03  0.7818608E-02  0.1001081E+00
          2   -1    0    0  501    0  0.00000000000E+00  0.00000000000E+00  0.10485250024E+04  0.10485250024E+04  0.00000000000E+00 0.  1.
         -2   -1    0    0    0  501 -0.00000000000E+00 -0.00000000000E+00 -0.72595171181E+02  0.72595171181E+02  0.00000000000E+00 0. -1.
         23    2    1    2    0    0 -0.24016349104E+03 -0.11574627734E+03  0.57277547098E+03  0.63778887796E+03  0.87333896854E+02 0.  0.
         11    1    3    3    0    0 -0.52099379931E+02 -0.19503007464E+02  0.21699918169E+03  0.22401642248E+03  0.00000000000E+00 0.  1.
        -11    1    3    3    0    0 -0.18806411111E+03 -0.96243269874E+02  0.35577628930E+03  0.41377245548E+03  0.00000000000E+00 0. -1.
         22    1    1    2    0    0  0.24016349104E+03  0.11574627734E+03  0.40315436022E+03  0.48333129561E+03  0.00000000000E+00 0. -1.
<mgrwt>
<rscale>  0 0.55178928E+03</rscale>
<asrwt>0</asrwt>
<pdfrwt beam="1">  1        2 0.16131153E+00 0.55178928E+03</pdfrwt>
<pdfrwt beam="2">  1       -2 0.11168489E-01 0.55178928E+03</pdfrwt>
<totfact> 0.13555275E+03</totfact>
</mgrwt>
</event>
<event>
 6    1  0.2325157E-005  0.9666617E+03  0.7818608E-02  0.9345885E-01
          2   -1    0    0  501    0  0.00000000000E+00  0.00000000000E+00  0.26397786855E+04  0.26397786855E+04  0.00000000000E+00 0.  1.
         -2   -1    0    0    0  501 -0.00000000000E+00 -0.00000000000E+00 -0.88495568882E+02  0.88495568882E+02  0.00000000000E+00 0. -1.
         23    2    1    2    0    0 -0.47720824567E+03 -0.32336444969E+02  0.13428705744E+04  0.14286457584E+04  0.94625408664E+02 0.  0.
         13    1    3    3    0    0 -0.16131449598E+03  0.29035260508E+02  0.51390365859E+03  0.53940929105E+03  0.00000000000E+00 0. -1.
        -13    1    3    3    0    0 -0.31589374969E+03 -0.61371705477E+02  0.82896691583E+03  0.88923646735E+03  0.00000000000E+00 0.  1.
         22    1    1    2    0    0  0.47720824567E+03  0.32336444969E+02  0.12084125422E+04  0.12996284960E+04  0.00000000000E+00 0. -1.
<mgrwt>
<rscale>  0 0.96666171E+03</rscale>
<asrwt>0</asrwt>
<pdfrwt beam="1">  1        2 0.40611974E+00 0.96666171E+03</pdfrwt>
<pdfrwt beam="2">  1       -2 0.13614705E-01 0.96666171E+03</pdfrwt>
<totfact> 0.12127369E+02</totfact>
</mgrwt>
</event>
<event>
 6    1  0.2325157E-005  0.4916110E+04  0.7818608E-02  0.7841580E-01
         -3   -1    0    0    0  501 -0.00000000000E+00  0.00000000000E+00  0.37900037417E+04  0.37900037417E+04  0.00000000000E+00 0. -1.
          3   -1    0    0  501    0  0.00000000000E+00 -0.00000000000E+00 -0.15942027378E+04  0.15942027378E+04  0.00000000000E+00 0.  1.
         23    2    1    2    0    0 -0.66837366077E+03 -0.83502689240E+03 -0.13247614877E+04  0.17047563144E+04  0.84898944199E+02 0.  0.
         13    1    3    3    0    0 -0.12114887247E+03 -0.18319157085E+03 -0.31775554882E+03  0.38627035834E+03  0.00000000000E+00 0. -1.
        -13    1    3    3    0    0 -0.54722478830E+03 -0.65183532156E+03 -0.10070059388E+04  0.13184859560E+04  0.00000000000E+00 0.  1.
         22    1    1    2    0    0  0.66837366077E+03  0.83502689240E+03  0.35205624915E+04  0.36794501652E+04  0.00000000000E+00 0. -1.
<mgrwt>
<rscale>  0 0.49161100E+04</rscale>
<asrwt>0</asrwt>
<pdfrwt beam="1">  1        3 0.24526196E+00 0.49161100E+04</pdfrwt>
<pdfrwt beam="2">  1       -3 0.58307750E+00 0.49161100E+04</pdfrwt>
<totfact> 0.16476589E-04</totfact>
</mgrwt>
</event>
<event>
 6    1  0.2325157E-005  0.3206415E+04  0.7818608E-02  0.8187125E-01
          1   -1    0    0  501    0  0.00000000000E+00  0.00000000000E+00  0.17433686756E+04  0.17433686756E+04  0.00000000000E+00 0.  1.
         -1   -1    0    0    0  501 -0.00000000000E+00 -0.00000000000E+00 -0.14743150234E+04  0.14743150234E+04  0.00000000000E+00 0. -1.
         23    2    1    2    0    0  0.14075578977E+03  0.12695434857E+04 -0.83546542621E+03  0.15290406789E+04  0.91706407071E+02 0.  0.
         11    1    3    3    0    0  0.97945667314E+02  0.71748689189E+03 -0.42353112265E+03  0.83890369271E+03  0.00000000000E+00 0. -1.
        -11    1    3    3    0    0  0.42810122457E+02  0.55205659377E+03 -0.41193430355E+03  0.69013698623E+03  0.00000000000E+00 0.  1.
         22    1    1    2    0    0 -0.14075578977E+03 -0.12695434857E+04  0.11045190784E+04  0.16886430200E+04  0.00000000000E+00 0.  1.
<mgrwt>
<rscale>  0 0.32064152E+04</rscale>
<asrwt>0</asrwt>
<pdfrwt beam="1">  1        1 0.26821057E+00 0.32064152E+04</pdfrwt>
<pdfrwt beam="2">  1       -1 0.22681769E+00 0.32064152E+04</pdfrwt>
<totfact> 0.36896160E-01</totfact>
</mgrwt>
</event>
<event>
 6    1  0.2325157E-005  0.3312918E+03  0.7818608E-02  0.1070567E+00
         -2   -1    0    0    0  501 -0.00000000000E+00  0.00000000000E+00  0.13972933393E+03  0.13972933393E+03  0.00000000000E+00 0. -1.
          2   -1    0    0  501    0  0.00000000000E+00 -0.00000000000E+00 -0.19636943667E+03  0.19636943667E+03  0.00000000000E+00 0.  1.
         23    2    1    2    0    0 -0.13201106282E+03  0.11607421223E+02 -0.10871250043E+03  0.19371482651E+03  0.90251722013E+02 0.  0.
         11    1    3    3    0    0 -0.80291087643E+02 -0.13002545648E+02 -0.13280748429E+02  0.82414217384E+02  0.00000000000E+00 0. -1.
        -11    1    3    3    0    0 -0.51719975177E+02  0.24609966871E+02 -0.95431752006E+02  0.11130060913E+03  0.00000000000E+00 0.  1.
         22    1    1    2    0    0  0.13201106282E+03 -0.11607421223E+02  0.52072397694E+02  0.14238394409E+03  0.00000000000E+00 0. -1.
<mgrwt>
<rscale>  0 0.33129184E+03</rscale>
<asrwt>0</asrwt>
<pdfrwt beam="1">  1        2 0.30210682E-01 0.33129184E+03</pdfrwt>
<pdfrwt beam="2">  1       -2 0.21496821E-01 0.33129184E+03</pdfrwt>
<totfact> 0.32340989E+03</totfact>
</mgrwt>
</event>
<event>
 6    1  0.2325157E-005  0.1684699E+04  0.7818608E-02  0.8770140E-01
         -2   -1    0    0    0  501 -0.00000000000E+00  0.00000000000E+00  0.32053875056E+03  0.32053875056E+03  0.00000000000E+00 0. -1.
          2   -1    0    0  501    0  0.00000000000E+00 -0.00000000000E+00 -0.22136246600E+04  0.22136246600E+04  0.00000000000E+00 0.  1.
         23    2    1    2    0    0 -0.21586203631E+03  0.11608618537E+03 -0.21577260608E+04  0.21734601657E+04  0.89860542621E+02 0.  0.
         13    1    3    3    0    0 -0.63122900577E+02  0.54039055388E+02 -0.43512604414E+03  0.44298915831E+03  0.00000000000E+00 0.  1.
        -13    1    3    3    0    0 -0.15273913574E+03  0.62047129983E+02 -0.17226000167E+04  0.17304710074E+04  0.00000000000E+00 0. -1.
         22    1    1    2    0    0  0.21586203631E+03 -0.11608618537E+03  0.26464015137E+03  0.36070324489E+03  0.00000000000E+00 0. -1.
<mgrwt>
<rscale>  0 0.16846988E+04</rscale>
<asrwt>0</asrwt>
<pdfrwt beam="1">  1        2 0.34055764E+00 0.16846988E+04</pdfrwt>
<pdfrwt beam="2">  1       -2 0.49313654E-01 0.16846988E+04</pdfrwt>
<totfact> 0.18824895E+01</totfact>
</mgrwt>
</event>
<event>
 6    1  0.2325157E-005  0.2852525E+04  0.7818608E-02  0.8287145E-01
         -2   -1    0    0    0  501 -0.00000000000E+00  0.00000000000E+00  0.89681291380E+03  0.89681291380E+03  0.00000000000E+00 0. -1.
          2   -1    0    0  501    0  0.00000000000E+00 -0.00000000000E+00 -0.22682813530E+04  0.22682813530E+04  0.00000000000E+00 0.  1.
         23    2    1    2    0    0 -0.17638656822E+03  0.50845164285E+03  0.77754421758E+03  0.94971829565E+03  0.88059844523E+02 0.  0.
         13    1    3    3    0    0 -0.98113677006E+01  0.96242683665E+02  0.18681529101E+03  0.21037792196E+03  0.00000000000E+00 0. -1.
        -13    1    3    3    0    0 -0.16657520052E+03  0.41220895918E+03  0.59072892658E+03  0.73934037368E+03  0.00000000000E+00 0.  1.
         22    1    1    2    0    0  0.17638656822E+03 -0.50845164285E+03 -0.21490126567E+04  0.22153759711E+04  0.00000000000E+00 0.  1.
<mgrwt>
<rscale>  0 0.28525245E+04</rscale>
<asrwt>0</asrwt>
<pdfrwt beam="1">  1        2 0.34896636E+00 0.28525245E+04</pdfrwt>
<pdfrwt beam="2">  1       -2 0.13797122E+00 0.28525245E+04</pdfrwt>
<totfact> 0.15270945E+00</totfact>
</mgrwt>
</event>
<event>
 6    1  0.2325157E-005  0.1404972E+04  0.7818608E-02  0.8950227E-01
         -2   -1    0    0    0  501 -0.00000000000E+00  0.00000000000E+00  0.48955043155E+03  0.48955043155E+03  0.00000000000E+00 0. -1.
          2   -1    0    0  501    0  0.00000000000E+00 -0.00000000000E+00 -0.10080406959E+04  0.10080406959E+04  0.00000000000E+00 0.  1.
         23    2    1    2    0    0 -0.30307420390E+03 -0.11588877520E+03  0.40038468273E+03  0.52310903440E+03  0.89727289139E+02 0.  0.
         11    1    3    3    0    0 -0.19628185776E+03 -0.75211885495E+02  0.32199080228E+03  0.38452759609E+03  0.00000000000E+00 0. -1.
        -11    1    3    3    0    0 -0.10679234614E+03 -0.40676889709E+02  0.78393880453E+02  0.13858143831E+03  0.00000000000E+00 0.  1.
         22    1    1    2    0    0  0.30307420390E+03  0.11588877520E+03 -0.91887494703E+03  0.97448209300E+03  0.00000000000E+00 0.  1.
<mgrwt>
<rscale>  0 0.14049723E+04</rscale>
<asrwt>0</asrwt>
<pdfrwt beam="1">  1        2 0.15508318E+00 0.14049723E+04</pdfrwt>
<pdfrwt beam="2">  1       -2 0.75315451E-01 0.14049723E+04</pdfrwt>
<totfact> 0.38321569E+01</totfact>
</mgrwt>
</event>
<event>
 6    1  0.2325157E-005  0.3883121E+04  0.7818608E-02  0.8028549E-01
          2   -1    0    0  501    0  0.00000000000E+00  0.00000000000E+00  0.14336398549E+04  0.14336398549E+04  0.00000000000E+00 0.  1.
         -2   -1    0    0    0  501 -0.00000000000E+00 -0.00000000000E+00 -0.26294314810E+04  0.26294314810E+04  0.00000000000E+00 0. -1.
         23    2    1    2    0    0 -0.11529862117E+04 -0.57427912611E+03 -0.21167973525E+04  0.24795861711E+04  0.91339090493E+02 0.  0.
         11    1    3    3    0    0 -0.10097181454E+04 -0.46833776690E+03 -0.18349179764E+04  0.21461115947E+04  0.00000000000E+00 0. -1.
        -11    1    3    3    0    0 -0.14326806626E+03 -0.10594135921E+03 -0.28187937615E+03  0.33347457640E+03  0.00000000000E+00 0.  1.
         22    1    1    2    0    0  0.11529862117E+04  0.57427912611E+03  0.92100572642E+03  0.15834851648E+04  0.00000000000E+00 0.  1.
<mgrwt>
<rscale>  0 0.38831213E+04</rscale>
<asrwt>0</asrwt>
<pdfrwt beam="1">  1        2 0.22055998E+00 0.38831213E+04</pdfrwt>
<pdfrwt beam="2">  1       -2 0.40452792E+00 0.38831213E+04</pdfrwt>
<totfact> 0.76382822E-02</totfact>
</mgrwt>
</event>
<event>
 6    1  0.2325157E-005  0.1143942E+04  0.7818608E-02  0.9163391E-01
          2   -1    0    0  501    0  0.00000000000E+00  0.00000000000E+00  0.24540907915E+04  0.24540907915E+04  0.00000000000E+00 0.  1.
         -2   -1    0    0    0  501 -0.00000000000E+00 -0.00000000000E+00 -0.13330828317E+03  0.13330828317E+03  0.00000000000E+00 0. -1.
         23    2    1    2    0    0 -0.13542864959E+03 -0.12963446623E+03  0.23812552786E+04  0.23904143801E+04  0.92510500272E+02 0.  0.
         13    1    3    3    0    0 -0.14302726018E+03 -0.92122225234E+02  0.18659047632E+04  0.18736445466E+04  0.00000000000E+00 0.  1.
        -13    1    3    3    0    0  0.75986105901E+01 -0.37512240994E+02  0.51535051538E+03  0.51676983350E+03  0.00000000000E+00 0. -1.
         22    1    1    2    0    0  0.13542864959E+03  0.12963446623E+03 -0.60472770265E+02  0.19698469460E+03  0.00000000000E+00 0. -1.
<mgrwt>
<rscale>  0 0.11439417E+04</rscale>
<asrwt>0</asrwt>
<pdfrwt beam="1">  1        2 0.37755240E+00 0.11439417E+04</pdfrwt>
<pdfrwt beam="2">  1       -2 0.20508968E-01 0.11439417E+04</pdfrwt>
<totfact> 0.75459772E+01</totfact>
</mgrwt>
</event>
<event>
 6    1  0.2325157E-005  0.3071513E+04  0.7818608E-02  0.8223600E-01
         -2   -1    0    0    0  501 -0.00000000000E+00  0.00000000000E+00  0.60778877402E+03  0.60778877402E+03  0.00000000000E+00 0. -1.
          2   -1    0    0  501    0  0.00000000000E+00 -0.00000000000E+00 -0.38805385286E+04  0.38805385286E+04  0.00000000000E+00 0.  1.
         23    2    1    2    0    0 -0.14261039068E+04 -0.56592558148E+03 -0.16635202247E+04  0.22648921683E+04  0.91612658852E+02 0.  0.
         11    1    3    3    0    0 -0.91139757123E+03 -0.40691391216E+03 -0.10978842793E+04  0.14837703177E+04  0.00000000000E+00 0. -1.
        -11    1    3    3    0    0 -0.51470633555E+03 -0.15901166931E+03 -0.56563594535E+03  0.78112185062E+03  0.00000000000E+00 0.  1.
         22    1    1    2    0    0  0.14261039068E+04  0.56592558148E+03 -0.16092295299E+04  0.22234351343E+04  0.00000000000E+00 0.  1.
<mgrwt>
<rscale>  0 0.30715128E+04</rscale>
<asrwt>0</asrwt>
<pdfrwt beam="1">  1        2 0.59700594E+00 0.30715128E+04</pdfrwt>
<pdfrwt beam="2">  1       -2 0.93505964E-01 0.30715128E+04</pdfrwt>
<totfact> 0.35004578E-01</totfact>
</mgrwt>
</event>
<event>
 6    1  0.2325157E-005  0.3165201E+04  0.7818608E-02  0.8198068E-01
          2   -1    0    0  501    0  0.00000000000E+00  0.00000000000E+00  0.26041324989E+04  0.26041324989E+04  0.00000000000E+00 0.  1.
         -2   -1    0    0    0  501 -0.00000000000E+00 -0.00000000000E+00 -0.96178818377E+03  0.96178818377E+03  0.00000000000E+00 0. -1.
         23    2    1    2    0    0 -0.13272817339E+04  0.66282762584E+01 -0.14577224492E+03  0.13390211412E+04  0.10003666343E+03 0.  0.
         11    1    3    3    0    0 -0.77033868236E+03  0.28392271880E+02 -0.41459559112E+02  0.77197584268E+03  0.00000000000E+00 0.  1.
        -11    1    3    3    0    0 -0.55694305158E+03 -0.21763995622E+02 -0.10431268581E+03  0.56704529856E+03  0.00000000000E+00 0. -1.
         22    1    1    2    0    0  0.13272817339E+04 -0.66282762584E+01  0.17881165601E+04  0.22268995414E+04  0.00000000000E+00 0.  1.
<mgrwt>
<rscale>  0 0.31652007E+04</rscale>
<asrwt>0</asrwt>
<pdfrwt beam="1">  1        2 0.40063577E+00 0.31652007E+04</pdfrwt>
<pdfrwt beam="2">  1       -2 0.14796741E+00 0.31652007E+04</pdfrwt>
<totfact> 0.79364986E-01</totfact>
</mgrwt>
</event>
<event>
 6    1  0.2325157E-005  0.3705239E+04  0.7818608E-02  0.8066802E-01
         -2   -1    0    0    0  501 -0.00000000000E+00  0.00000000000E+00  0.27185575438E+04  0.27185575438E+04  0.00000000000E+00 0. -1.
          2   -1    0    0  501    0  0.00000000000E+00 -0.00000000000E+00 -0.12625073778E+04  0.12625073778E+04  0.00000000000E+00 0.  1.
         23    2    1    2    0    0  0.50224280159E+03  0.14068541007E+04  0.19038268372E+04  0.24215809558E+04  0.89506463734E+02 0.  0.
         13    1    3    3    0    0  0.40132188595E+03  0.12059906404E+04  0.16434135618E+04  0.20775660798E+04  0.00000000000E+00 0. -1.
        -13    1    3    3    0    0  0.10092091564E+03  0.20086346033E+03  0.26041327539E+03  0.34401487599E+03  0.00000000000E+00 0.  1.
         22    1    1    2    0    0 -0.50224280159E+03 -0.14068541007E+04 -0.44777667114E+03  0.15594839658E+04  0.00000000000E+00 0.  1.
<mgrwt>
<rscale>  0 0.37052390E+04</rscale>
<asrwt>0</asrwt>
<pdfrwt beam="1">  1        2 0.19423191E+00 0.37052390E+04</pdfrwt>
<pdfrwt beam="2">  1       -2 0.41823962E+00 0.37052390E+04</pdfrwt>
<totfact> 0.79073461E-02</totfact>
</mgrwt>
</event>
<event>
 6    1  0.2325157E-005  0.2845332E+04  0.7818608E-02  0.8289331E-01
          2   -1    0    0  501    0  0.00000000000E+00  0.00000000000E+00  0.38381680187E+04  0.38381680187E+04  0.00000000000E+00 0.  1.
         -2   -1    0    0    0  501 -0.00000000000E+00 -0.00000000000E+00 -0.52732917151E+03  0.52732917151E+03  0.00000000000E+00 0. -1.
         23    2    1    2    0    0 -0.14323141037E+03 -0.69723124604E+03  0.35444562367E+04  0.36163485187E+04  0.90332429353E+02 0.  0.
         11    1    3    3    0    0 -0.65685346122E+02 -0.43747615676E+03  0.23789571133E+04  0.24197390147E+04  0.00000000000E+00 0. -1.
        -11    1    3    3    0    0 -0.77546064245E+02 -0.25975508928E+03  0.11654991234E+04  0.11966095040E+04  0.00000000000E+00 0.  1.
         22    1    1    2    0    0  0.14323141037E+03  0.69723124604E+03 -0.23361738946E+03  0.74914867151E+03  0.00000000000E+00 0. -1.
<mgrwt>
<rscale>  0 0.28453316E+04</rscale>
<asrwt>0</asrwt>
<pdfrwt beam="1">  1        2 0.59048737E+00 0.28453316E+04</pdfrwt>
<pdfrwt beam="2">  1       -2 0.81127567E-01 0.28453316E+04</pdfrwt>
<totfact> 0.53321652E-01</totfact>
</mgrwt>
</event>
<event>
 6    1  0.2325157E-005  0.3690265E+04  0.7818608E-02  0.8070123E-01
          2   -1    0    0  501    0  0.00000000000E+00  0.00000000000E+00  0.22377732355E+04  0.22377732355E+04  0.00000000000E+00 0.  1.
         -2   -1    0    0    0  501 -0.00000000000E+00 -0.00000000000E+00 -0.15213849520E+04  0.15213849520E+04  0.00000000000E+00 0. -1.
         23    2    1    2    0    0 -0.11190864271E+04 -0.26081368623E+03 -0.11107729707E+04  0.16007104908E+04  0.89884775542E+02 0.  0.
         11    1    3    3    0    0 -0.99036137235E+03 -0.25973771867E+03 -0.98778565797E+03  0.14226734820E+04  0.00000000000E+00 0.  1.
        -11    1    3    3    0    0 -0.12872505472E+03 -0.10759675649E+01 -0.12298731270E+03  0.17803700880E+03  0.00000000000E+00 0. -1.
         22    1    1    2    0    0  0.11190864271E+04  0.26081368623E+03  0.18271612543E+04  0.21584476967E+04  0.00000000000E+00 0.  1.
<mgrwt>
<rscale>  0 0.36902653E+04</rscale>
<asrwt>0</asrwt>
<pdfrwt beam="1">  1        2 0.34427281E+00 0.36902653E+04</pdfrwt>
<pdfrwt beam="2">  1       -2 0.23405922E+00 0.36902653E+04</pdfrwt>
<totfact> 0.32082028E-01</totfact>
</mgrwt>
</event>
<event>
 6    1  0.2325157E-005  0.3556417E+04  0.7818608E-02  0.8100549E-01
          2   -1    0    0  501    0  0.00000000000E+00  0.00000000000E+00  0.23679630648E+04  0.23679630648E+04  0.00000000000E+00 0.  1.
         -2   -1    0    0    0  501 -0.00000000000E+00 -0.00000000000E+00 -0.13353353828E+04  0.13353353828E+04  0.00000000000E+00 0. -1.
         23    2    1    2    0    0 -0.13313957848E+04 -0.46315431410E+03  0.16434313538E+04  0.21670016730E+04  0.88898714990E+02 0.  0.
         13    1    3    3    0    0 -0.60434261213E+03 -0.19378675306E+03  0.80353839385E+03  0.10239420144E+04  0.00000000000E+00 0.  1.
        -13    1    3    3    0    0 -0.72705317262E+03 -0.26936756104E+03  0.83989295999E+03  0.11430596585E+04  0.00000000000E+00 0. -1.
         22    1    1    2    0    0  0.13313957848E+04  0.46315431410E+03 -0.61080367177E+03  0.15362967746E+04  0.00000000000E+00 0.  1.
<mgrwt>
<rscale>  0 0.35564167E+04</rscale>
<asrwt>0</asrwt>
<pdfrwt beam="1">  1        2 0.36430201E+00 0.35564167E+04</pdfrwt>
<pdfrwt beam="2">  1       -2 0.20543621E+00 0.35564167E+04</pdfrwt>
<totfact> 0.41570300E-01</totfact>
</mgrwt>
</event>
<event>
 6    1  0.2325157E-005  0.2172654E+04  0.7818608E-02  0.8529897E-01
         -2   -1    0    0    0  501 -0.00000000000E+00  0.00000000000E+00  0.79496820000E+03  0.79496820000E+03  0.00000000000E+00 0. -1.
          2   -1    0    0  501    0  0.00000000000E+00 -0.00000000000E+00 -0.14844701233E+04  0.14844701233E+04  0.00000000000E+00 0.  1.
         23    2    1    2    0    0 -0.32291976242E+02 -0.83291718021E+03 -0.10730512760E+04  0.13618851059E+04  0.92185682016E+02 0.  0.
         11    1    3    3    0    0 -0.48428082354E+02 -0.38505464259E+03 -0.44703236746E+03  0.59198842430E+03  0.00000000000E+00 0. -1.
        -11    1    3    3    0    0  0.16136106111E+02 -0.44786253762E+03 -0.62601890849E+03  0.76989668158E+03  0.00000000000E+00 0.  1.
         22    1    1    2    0    0  0.32291976242E+02  0.83291718021E+03  0.38354935267E+03  0.91755321740E+03  0.00000000000E+00 0. -1.
<mgrwt>
<rscale>  0 0.21726542E+04</rscale>
<asrwt>0</asrwt>
<pdfrwt beam="1">  1        2 0.22838002E+00 0.21726542E+04</pdfrwt>
<pdfrwt beam="2">  1       -2 0.12230280E+00 0.21726542E+04</pdfrwt>
<totfact> 0.60103984E+00</totfact>
</mgrwt>
</event>
<event>
 6    1  0.2325157E-005  0.1329641E+04  0.7818608E-02  0.9006384E-01
          1   -1    0    0  501    0  0.00000000000E+00  0.00000000000E+00  0.16939027625E+04  0.16939027625E+04  0.00000000000E+00 0.  1.
         -1   -1    0    0    0  501 -0.00000000000E+00 -0.00000000000E+00 -0.26092792163E+03  0.26092792163E+03  0.00000000000E+00 0. -1.
         23    2    1    2    0    0  0.39219199107E+03 -0.24071809185E+03  0.20785543236E+02  0.46955684744E+03  0.91059522128E+02 0.  0.
         11    1    3    3    0    0  0.24517135950E+03 -0.12429175662E+03 -0.26496380990E+02  0.27615121671E+03  0.00000000000E+00 0.  1.
        -11    1    3    3    0    0  0.14702063157E+03 -0.11642633523E+03  0.47281924226E+02  0.19340563073E+03  0.00000000000E+00 0. -1.
         22    1    1    2    0    0 -0.39219199107E+03  0.24071809185E+03  0.14121892977E+04  0.14852738367E+04  0.00000000000E+00 0.  1.
<mgrwt>
<rscale>  0 0.13296413E+04</rscale>
<asrwt>0</asrwt>
<pdfrwt beam="1">  1        1 0.26060042E+00 0.13296413E+04</pdfrwt>
<pdfrwt beam="2">  1       -1 0.40142758E-01 0.13296413E+04</pdfrwt>
<totfact> 0.28550431E+01</totfact>
</mgrwt>
</event>
<event>
 6    1  0.2325157E-005  0.7027964E+03  0.7818608E-02  0.9712462E-01
          2   -1    0    0  501    0  0.00000000000E+00  0.00000000000E+00  0.13251342478E+03  0.13251342478E+03  0.00000000000E+00 0.  1.
         -2   -1    0    0    0  501 -0.00000000000E+00 -0.00000000000E+00 -0.93183528321E+03  0.93183528321E+03  0.00000000000E+00 0. -1.
         23    2    1    2    0    0 -0.28570279489E+03 -0.15641131526E+03 -0.23129183746E+03  0.40955966466E+03  0.90291850620E+02 0.  0.
         11    1    3    3    0    0 -0.14950928923E+03 -0.30940235876E+02 -0.98631375295E+02  0.18176488647E+03  0.00000000000E+00 0. -1.
        -11    1    3    3    0    0 -0.13619350567E+03 -0.12547107938E+03 -0.13266046216E+03  0.22779477819E+03  0.00000000000E+00 0.  1.
         22    1    1    2    0    0  0.28570279489E+03  0.15641131526E+03 -0.56803002096E+03  0.65478904333E+03  0.00000000000E+00 0. -1.
<mgrwt>
<rscale>  0 0.70279637E+03</rscale>
<asrwt>0</asrwt>
<pdfrwt beam="1">  1        2 0.20386681E-01 0.70279637E+03</pdfrwt>
<pdfrwt beam="2">  1       -2 0.14335927E+00 0.70279637E+03</pdfrwt>
<totfact> 0.94959631E+01</totfact>
</mgrwt>
</event>
<event>
 6    1  0.2325157E-005  0.2834975E+04  0.7818608E-02  0.8292492E-01
         -2   -1    0    0    0  501 -0.00000000000E+00  0.00000000000E+00  0.17820795006E+04  0.17820795006E+04  0.00000000000E+00 0. -1.
          2   -1    0    0  501    0  0.00000000000E+00 -0.00000000000E+00 -0.11274865588E+04  0.11274865588E+04  0.00000000000E+00 0.  1.
         23    2    1    2    0    0 -0.84931962481E+03  0.53341598534E+03 -0.69822572762E+03  0.12255248511E+04  0.92279767887E+02 0.  0.
         11    1    3    3    0    0 -0.38773109337E+03  0.23373480834E+03 -0.26045534387E+03  0.52230675617E+03  0.00000000000E+00 0.  1.
        -11    1    3    3    0    0 -0.46158853144E+03  0.29968117700E+03 -0.43777038375E+03  0.70321809497E+03  0.00000000000E+00 0. -1.
         22    1    1    2    0    0  0.84931962481E+03 -0.53341598534E+03  0.13528186694E+04  0.16840412082E+04  0.00000000000E+00 0. -1.
<mgrwt>
<rscale>  0 0.28349749E+04</rscale>
<asrwt>0</asrwt>
<pdfrwt beam="1">  1        2 0.17345947E+00 0.28349749E+04</pdfrwt>
<pdfrwt beam="2">  1       -2 0.27416608E+00 0.28349749E+04</pdfrwt>
<totfact> 0.83104666E-01</totfact>
</mgrwt>
</event>
<event>
 6    1  0.2325157E-005  0.1066767E+04  0.7818608E-02  0.9238202E-01
          2   -1    0    0  501    0  0.00000000000E+00  0.00000000000E+00  0.21460688306E+04  0.21460688306E+04  0.00000000000E+00 0.  1.
         -2   -1    0    0    0  501 -0.00000000000E+00 -0.00000000000E+00 -0.13256699193E+03  0.13256699193E+03  0.00000000000E+00 0. -1.
         23    2    1    2    0    0  0.10181084704E+03 -0.30517566832E+03  0.19122800842E+04  0.19413770485E+04  0.92909023702E+02 0.  0.
         13    1    3    3    0    0 -0.34578074039E+01 -0.16240222207E+01  0.15002258815E+03  0.15007121921E+03  0.00000000000E+00 0. -1.
        -13    1    3    3    0    0  0.10526865445E+03 -0.30355164610E+03  0.17622574961E+04  0.17913058292E+04  0.00000000000E+00 0.  1.
         22    1    1    2    0    0 -0.10181084704E+03  0.30517566832E+03  0.10122175444E+03  0.33725877406E+03  0.00000000000E+00 0. -1.
<mgrwt>
<rscale>  0 0.10667669E+04</rscale>
<asrwt>0</asrwt>
<pdfrwt beam="1">  1        2 0.33016441E+00 0.10667669E+04</pdfrwt>
<pdfrwt beam="2">  1       -2 0.20394923E-01 0.10667669E+04</pdfrwt>
<totfact> 0.11423865E+02</totfact>
</mgrwt>
</event>
<event>
 6    1  0.2325157E-005  0.1406059E+04  0.7818608E-02  0.8949445E-01
          2   -1    0    0  501    0  0.00000000000E+00  0.00000000000E+00  0.25174743690E+04  0.25174743690E+04  0.00000000000E+00 0.  1.
         -2   -1    0    0    0  501 -0.00000000000E+00 -0.00000000000E+00 -0.19632783660E+03  0.19632783660E+03  0.00000000000E+00 0. -1.
         23    2    1    2    0    0  0.13320744267E+03 -0.29022379683E+03  0.23677345095E+04  0.23910879131E+04  0.95711156652E+02 0.  0.
         11    1    3    3    0    0  0.46674226989E+02 -0.87225631283E+02  0.10859335348E+04  0.10904303904E+04  0.00000000000E+00 0. -1.
        -11    1    3    3    0    0  0.86533215677E+02 -0.20299816555E+03  0.12818009747E+04  0.13006575227E+04  0.00000000000E+00 0.  1.
         22    1    1    2    0    0 -0.13320744267E+03  0.29022379683E+03 -0.46587977046E+02  0.32271429258E+03  0.00000000000E+00 0. -1.
<mgrwt>
<rscale>  0 0.14060587E+04</rscale>
<asrwt>0</asrwt>
<pdfrwt beam="1">  1        2 0.38730372E+00 0.14060587E+04</pdfrwt>
<pdfrwt beam="2">  1       -2 0.30204284E-01 0.14060587E+04</pdfrwt>
<totfact> 0.33625667E+01</totfact>
</mgrwt>
</event>
<event>
 6    1  0.2325157E-005  0.3058922E+04  0.7818608E-02  0.8227103E-01
         -2   -1    0    0    0  501 -0.00000000000E+00  0.00000000000E+00  0.11570311001E+04  0.11570311001E+04  0.00000000000E+00 0. -1.
          2   -1    0    0  501    0  0.00000000000E+00 -0.00000000000E+00 -0.20217698890E+04  0.20217698890E+04  0.00000000000E+00 0.  1.
         23    2    1    2    0    0  0.68773145106E+03 -0.13084902064E+04 -0.83531046322E+03  0.17002925531E+04  0.90166664002E+02 0.  0.
         13    1    3    3    0    0  0.53522287923E+03 -0.95468192211E+03 -0.64762780296E+03  0.12717322336E+04  0.00000000000E+00 0. -1.
        -13    1    3    3    0    0  0.15250857183E+03 -0.35380828424E+03 -0.18768266025E+03  0.42856031949E+03  0.00000000000E+00 0.  1.
         22    1    1    2    0    0 -0.68773145106E+03  0.13084902064E+04 -0.29428325645E+02  0.14785084360E+04  0.00000000000E+00 0. -1.
<mgrwt>
<rscale>  0 0.30589218E+04</rscale>
<asrwt>0</asrwt>
<pdfrwt beam="1">  1        2 0.31104152E+00 0.30589218E+04</pdfrwt>
<pdfrwt beam="2">  1       -2 0.17800478E+00 0.30589218E+04</pdfrwt>
<totfact> 0.10362220E+00</totfact>
</mgrwt>
</event>
<event>
 6    1  0.2325157E-005  0.6877169E+03  0.7818608E-02  0.9738472E-01
          2   -1    0    0  501    0  0.00000000000E+00  0.00000000000E+00  0.48164671846E+03  0.48164671846E+03  0.00000000000E+00 0.  1.
         -2   -1    0    0    0  501 -0.00000000000E+00 -0.00000000000E+00 -0.24548832028E+03  0.24548832028E+03  0.00000000000E+00 0. -1.
         23    2    1    2    0    0  0.63515308593E+02  0.31697035266E+03  0.16904483424E+02  0.33652439113E+03  0.91970133070E+02 0.  0.
         13    1    3    3    0    0  0.75333854964E+02  0.30512821356E+03  0.22732384774E+01  0.31429855874E+03  0.00000000000E+00 0. -1.
        -13    1    3    3    0    0 -0.11818546372E+02  0.11842139100E+02  0.14631244947E+02  0.22225832392E+02  0.00000000000E+00 0.  1.
         22    1    1    2    0    0 -0.63515308593E+02 -0.31697035266E+03  0.21925391476E+03  0.39061064761E+03  0.00000000000E+00 0.  1.
<mgrwt>
<rscale>  0 0.68771693E+03</rscale>
<asrwt>0</asrwt>
<pdfrwt beam="1">  1        2 0.74099495E-01 0.68771693E+03</pdfrwt>
<pdfrwt beam="2">  1       -2 0.37767434E-01 0.68771693E+03</pdfrwt>
<totfact> 0.42871710E+02</totfact>
</mgrwt>
</event>
<event>
 6    1  0.2325157E-005  0.2308439E+04  0.7818608E-02  0.8474601E-01
         -2   -1    0    0    0  501 -0.00000000000E+00  0.00000000000E+00  0.84071064479E+03  0.84071064479E+03  0.00000000000E+00 0. -1.
          2   -1    0    0  501    0  0.00000000000E+00 -0.00000000000E+00 -0.15846392548E+04  0.15846392548E+04  0.00000000000E+00 0.  1.
         23    2    1    2    0    0  0.62429522776E+03 -0.19317254120E+03  0.62362706243E+03  0.90967556805E+03  0.10741863918E+03 0.  0.
         13    1    3    3    0    0  0.14355759745E+03 -0.17231832397E+01  0.15910024848E+03  0.21430035514E+03  0.00000000000E+00 0. -1.
        -13    1    3    3    0    0  0.48073763030E+03 -0.19144935796E+03  0.46452681395E+03  0.69537521291E+03  0.00000000000E+00 0.  1.
         22    1    1    2    0    0 -0.62429522776E+03  0.19317254120E+03 -0.13675556724E+04  0.15156743315E+04  0.00000000000E+00 0.  1.
<mgrwt>
<rscale>  0 0.23084394E+04</rscale>
<asrwt>0</asrwt>
<pdfrwt beam="1">  1        2 0.24379065E+00 0.23084394E+04</pdfrwt>
<pdfrwt beam="2">  1       -2 0.12934010E+00 0.23084394E+04</pdfrwt>
<totfact> 0.45346005E+00</totfact>
</mgrwt>
</event>
<event>
 6    1  0.2325157E-005  0.1277035E+04  0.7818608E-02  0.9047977E-01
          2   -1    0    0  501    0  0.00000000000E+00  0.00000000000E+00  0.43781043513E+04  0.43781043513E+04  0.00000000000E+00 0.  1.
         -2   -1    0    0    0  501 -0.00000000000E+00 -0.00000000000E+00 -0.93123542203E+02  0.93123542203E+02  0.00000000000E+00 0. -1.
         23    2    1    2    0    0 -0.10183442231E+03  0.58673604007E+03  0.13764369012E+04  0.15023464384E+04  0.88525971974E+02 0.  0.
         11    1    3    3    0    0 -0.71224379294E+02  0.21982250334E+03  0.60254479112E+03  0.64533330186E+03  0.00000000000E+00 0. -1.
        -11    1    3    3    0    0 -0.30610043016E+02  0.36691353672E+03  0.77389211009E+03  0.85701313655E+03  0.00000000000E+00 0.  1.
         22    1    1    2    0    0  0.10183442231E+03 -0.58673604007E+03  0.29085439079E+04  0.29688814551E+04  0.00000000000E+00 0.  1.
<mgrwt>
<rscale>  0 0.12770350E+04</rscale>
<asrwt>0</asrwt>
<pdfrwt beam="1">  1        2 0.67355435E+00 0.12770350E+04</pdfrwt>
<pdfrwt beam="2">  1       -2 0.14326702E-01 0.12770350E+04</pdfrwt>
<totfact> 0.62795024E+00</totfact>
</mgrwt>
</event>
<event>
 6    1  0.2325157E-005  0.1775560E+04  0.7818608E-02  0.8719406E-01
         -2   -1    0    0    0  501 -0.00000000000E+00  0.00000000000E+00  0.55828378311E+03  0.55828378311E+03  0.00000000000E+00 0. -1.
          2   -1    0    0  501    0  0.00000000000E+00 -0.00000000000E+00 -0.14117424192E+04  0.14117424192E+04  0.00000000000E+00 0.  1.
         23    2    1    2    0    0 -0.63223706650E+03 -0.56581799690E+02  0.25707421522E+03  0.69088257389E+03  0.91139291585E+02 0.  0.
         13    1    3    3    0    0 -0.33586081264E+02  0.15660000736E+02  0.52934146655E+01  0.37433684250E+02  0.00000000000E+00 0.  1.
        -13    1    3    3    0    0 -0.59865098523E+03 -0.72241800425E+02  0.25178080055E+03  0.65344888964E+03  0.00000000000E+00 0. -1.
         22    1    1    2    0    0  0.63223706650E+03  0.56581799690E+02 -0.11105328513E+04  0.12791436285E+04  0.00000000000E+00 0.  1.
<mgrwt>
<rscale>  0 0.17755595E+04</rscale>
<asrwt>0</asrwt>
<pdfrwt beam="1">  1        2 0.21719114E+00 0.17755595E+04</pdfrwt>
<pdfrwt beam="2">  1       -2 0.85889813E-01 0.17755595E+04</pdfrwt>
<totfact> 0.15858778E+01</totfact>
</mgrwt>
</event>
<event>
 6    1  0.2325157E-005  0.1658434E+04  0.7818608E-02  0.8785433E-01
         -2   -1    0    0    0  501 -0.00000000000E+00  0.00000000000E+00  0.19163737982E+04  0.19163737982E+04  0.00000000000E+00 0. -1.
          2   -1    0    0  501    0  0.00000000000E+00 -0.00000000000E+00 -0.35880309579E+03  0.35880309579E+03  0.00000000000E+00 0.  1.
         23    2    1    2    0    0 -0.68967388353E+03  0.27996471021E+03  0.28843427810E+03  0.80387217773E+03  0.94793674632E+02 0.  0.
         11    1    3    3    0    0 -0.18547127914E+03  0.36339089517E+02  0.51943481530E+02  0.19600573994E+03  0.00000000000E+00 0.  1.
        -11    1    3    3    0    0 -0.50420260439E+03  0.24362562070E+03  0.23649079657E+03  0.60786643779E+03  0.00000000000E+00 0. -1.
         22    1    1    2    0    0  0.68967388353E+03 -0.27996471021E+03  0.12691364243E+04  0.14713047163E+04  0.00000000000E+00 0. -1.
<mgrwt>
<rscale>  0 0.16584340E+04</rscale>
<asrwt>0</asrwt>
<pdfrwt beam="1">  1        2 0.55200477E-01 0.16584340E+04</pdfrwt>
<pdfrwt beam="2">  1       -2 0.29482673E+00 0.16584340E+04</pdfrwt>
<totfact> 0.29394936E+00</totfact>
</mgrwt>
</event>
<event>
 6    1  0.2325157E-005  0.2181527E+04  0.7818608E-02  0.8526156E-01
         -2   -1    0    0    0  501 -0.00000000000E+00  0.00000000000E+00  0.69094471895E+03  0.69094471895E+03  0.00000000000E+00 0. -1.
          2   -1    0    0  501    0  0.00000000000E+00 -0.00000000000E+00 -0.17219402684E+04  0.17219402684E+04  0.00000000000E+00 0.  1.
         23    2    1    2    0    0 -0.82275022064E+03  0.34833205574E+03 -0.12047901644E+04  0.15026884620E+04  0.91105032403E+02 0.  0.
         13    1    3    3    0    0 -0.26057153147E+03  0.92365889361E+02 -0.43933579587E+03  0.51908084347E+03  0.00000000000E+00 0.  1.
        -13    1    3    3    0    0 -0.56217868917E+03  0.25596616638E+03 -0.76545436849E+03  0.98360761848E+03  0.00000000000E+00 0. -1.
         22    1    1    2    0    0  0.82275022064E+03 -0.34833205574E+03  0.17379461494E+03  0.91019652537E+03  0.00000000000E+00 0. -1.
<mgrwt>
<rscale>  0 0.21815275E+04</rscale>
<asrwt>0</asrwt>
<pdfrwt beam="1">  1        2 0.26491389E+00 0.21815275E+04</pdfrwt>
<pdfrwt beam="2">  1       -2 0.10629919E+00 0.21815275E+04</pdfrwt>
<totfact> 0.62296140E+00</totfact>
</mgrwt>
</event>
<event>
 6    1  0.2325157E-005  0.5300805E+04  0.7818608E-02  0.7783709E-01
          2   -1    0    0  501    0  0.00000000000E+00  0.00000000000E+00  0.24982325210E+04  0.24982325210E+04  0.00000000000E+00 0.  1.
         -2   -1    0    0    0  501 -0.00000000000E+00 -0.00000000000E+00 -0.28118409797E+04  0.28118409797E+04  0.00000000000E+00 0. -1.
         23    2    1    2    0    0  0.20779341851E+04 -0.14287814056E+04  0.65778279016E+03  0.26076990372E+04  0.90494679720E+02 0.  0.
         13    1    3    3    0    0  0.58366837067E+03 -0.38201885408E+03  0.14362887646E+03  0.71220532569E+03  0.00000000000E+00 0.  1.
        -13    1    3    3    0    0  0.14942658145E+04 -0.10467625515E+04  0.51415391370E+03  0.18954937115E+04  0.00000000000E+00 0. -1.
         22    1    1    2    0    0 -0.20779341851E+04  0.14287814056E+04 -0.97139124881E+03  0.27023744635E+04  0.00000000000E+00 0.  1.
<mgrwt>
<rscale>  0 0.53008047E+04</rscale>
<asrwt>0</asrwt>
<pdfrwt beam="1">  1        2 0.38434346E+00 0.53008047E+04</pdfrwt>
<pdfrwt beam="2">  1       -2 0.43259092E+00 0.53008047E+04</pdfrwt>
<totfact> 0.11253598E-02</totfact>
</mgrwt>
</event>
<event>
 6    1  0.2325157E-005  0.5405986E+04  0.7818608E-02  0.7768760E-01
          2   -1    0    0  501    0  0.00000000000E+00  0.00000000000E+00  0.29448106020E+04  0.29448106020E+04  0.00000000000E+00 0.  1.
         -2   -1    0    0    0  501 -0.00000000000E+00 -0.00000000000E+00 -0.24810321597E+04  0.24810321597E+04  0.00000000000E+00 0. -1.
         23    2    1    2    0    0 -0.17886364823E+04  0.49776765236E+03  0.22026195025E+04  0.28821129540E+04  0.89717920264E+02 0.  0.
         11    1    3    3    0    0 -0.11656355119E+04  0.30248343950E+03  0.13698900766E+04  0.18239520827E+04  0.00000000000E+00 0. -1.
        -11    1    3    3    0    0 -0.62300097039E+03  0.19528421286E+03  0.83272942587E+03  0.10581608713E+04  0.00000000000E+00 0.  1.
         22    1    1    2    0    0  0.17886364823E+04 -0.49776765236E+03 -0.17388410602E+04  0.25437298076E+04  0.00000000000E+00 0. -1.
<mgrwt>
<rscale>  0 0.54059855E+04</rscale>
<asrwt>0</asrwt>
<pdfrwt beam="1">  1        2 0.45304778E+00 0.54059855E+04</pdfrwt>
<pdfrwt beam="2">  1       -2 0.38169726E+00 0.54059855E+04</pdfrwt>
<totfact> 0.12975326E-02</totfact>
</mgrwt>
</event>
<event>
 6    1  0.2325157E-005  0.2395670E+04  0.7818608E-02  0.8441126E-01
          2   -1    0    0  501    0  0.00000000000E+00  0.00000000000E+00  0.20129270727E+04  0.20129270727E+04  0.00000000000E+00 0.  1.
         -2   -1    0    0    0  501 -0.00000000000E+00 -0.00000000000E+00 -0.71279702963E+03  0.71279702963E+03  0.00000000000E+00 0. -1.
         23    2    1    2    0    0 -0.22397710768E+03  0.11566596285E+04  0.88568743578E+03  0.14768086065E+04  0.92163904918E+02 0.  0.
         11    1    3    3    0    0 -0.19596997390E+03  0.11080218182E+04  0.85153694402E+03  0.14111101117E+04  0.00000000000E+00 0. -1.
        -11    1    3    3    0    0 -0.28007133782E+02  0.48637810339E+02  0.34150491759E+02  0.65698494843E+02  0.00000000000E+00 0.  1.
         22    1    1    2    0    0  0.22397710768E+03 -0.11566596285E+04  0.41444260725E+03  0.12489154958E+04  0.00000000000E+00 0. -1.
<mgrwt>
<rscale>  0 0.23956698E+04</rscale>
<asrwt>0</asrwt>
<pdfrwt beam="1">  1        2 0.30968108E+00 0.23956698E+04</pdfrwt>
<pdfrwt beam="2">  1       -2 0.10966108E+00 0.23956698E+04</pdfrwt>
<totfact> 0.39128280E+00</totfact>
</mgrwt>
</event>
<event>
 6    1  0.2325157E-005  0.1660446E+04  0.7818608E-02  0.8784250E-01
          1   -1    0    0  501    0  0.00000000000E+00  0.00000000000E+00  0.29529549074E+03  0.29529549074E+03  0.00000000000E+00 0.  1.
         -1   -1    0    0    0  501 -0.00000000000E+00 -0.00000000000E+00 -0.23341720431E+04  0.23341720431E+04  0.00000000000E+00 0. -1.
         23    2    1    2    0    0 -0.48705210038E+03  0.58948882389E+03 -0.51609465868E+03  0.92547765192E+03  0.73745274455E+02 0.  0.
         11    1    3    3    0    0 -0.14049836333E+03  0.12817940301E+03 -0.14921615341E+03  0.24173375828E+03  0.00000000000E+00 0.  1.
        -11    1    3    3    0    0 -0.34655373705E+03  0.46130942088E+03 -0.36687850527E+03  0.68374389364E+03  0.00000000000E+00 0. -1.
         22    1    1    2    0    0  0.48705210038E+03 -0.58948882389E+03 -0.15227818937E+04  0.17039898819E+04  0.00000000000E+00 0. -1.
<mgrwt>
<rscale>  0 0.16604463E+04</rscale>
<asrwt>0</asrwt>
<pdfrwt beam="1">  1        1 0.45430076E-01 0.16604463E+04</pdfrwt>
<pdfrwt beam="2">  1       -1 0.35910339E+00 0.16604463E+04</pdfrwt>
<totfact> 0.11593520E+00</totfact>
</mgrwt>
</event>
<event>
 6    1  0.2325157E-005  0.3553592E+04  0.7818608E-02  0.8101205E-01
          2   -1    0    0  501    0  0.00000000000E+00  0.00000000000E+00  0.17719440611E+04  0.17719440611E+04  0.00000000000E+00 0. -1.
         -2   -1    0    0    0  501 -0.00000000000E+00 -0.00000000000E+00 -0.17816612405E+04  0.17816612405E+04  0.00000000000E+00 0.  1.
         23    2    1    2    0    0  0.60364676819E+03 -0.83982889730E+03  0.14384427856E+04  0.17740353305E+04  0.91551674115E+02 0.  0.
         13    1    3    3    0    0  0.46601021173E+03 -0.59013702668E+03  0.10034094306E+04  0.12538970105E+04  0.00000000000E+00 0.  1.
        -13    1    3    3    0    0  0.13763655646E+03 -0.24969187062E+03  0.43503335502E+03  0.52013831997E+03  0.00000000000E+00 0. -1.
         22    1    1    2    0    0 -0.60364676819E+03  0.83982889730E+03 -0.14481599650E+04  0.17795699710E+04  0.00000000000E+00 0.  1.
<mgrwt>
<rscale>  0 0.35535920E+04</rscale>
<asrwt>0</asrwt>
<pdfrwt beam="1">  1        2 0.27260678E+00 0.35535920E+04</pdfrwt>
<pdfrwt beam="2">  1       -2 0.27410173E+00 0.35535920E+04</pdfrwt>
<totfact> 0.33477825E-01</totfact>
</mgrwt>
</event>
<event>
 6    1  0.2325157E-005  0.1155891E+04  0.7818608E-02  0.9152366E-01
         -2   -1    0    0    0  501 -0.00000000000E+00  0.00000000000E+00  0.42098810406E+03  0.42098810406E+03  0.00000000000E+00 0. -1.
          2   -1    0    0  501    0  0.00000000000E+00 -0.00000000000E+00 -0.79342194768E+03  0.79342194768E+03  0.00000000000E+00 0.  1.
         23    2    1    2    0    0 -0.20638411045E+03 -0.53424526921E+03 -0.22704067855E+03  0.62351955328E+03  0.96003931622E+02 0.  0.
         13    1    3    3    0    0 -0.10992947839E+03 -0.23877215176E+03 -0.15247050375E+03  0.30388136697E+03  0.00000000000E+00 0. -1.
        -13    1    3    3    0    0 -0.96454632064E+02 -0.29547311745E+03 -0.74570174800E+02  0.31963818632E+03  0.00000000000E+00 0.  1.
         22    1    1    2    0    0  0.20638411045E+03  0.53424526921E+03 -0.14539316507E+03  0.59089049846E+03  0.00000000000E+00 0.  1.
<mgrwt>
<rscale>  0 0.11558913E+04</rscale>
<asrwt>0</asrwt>
<pdfrwt beam="1">  1        2 0.12206492E+00 0.11558913E+04</pdfrwt>
<pdfrwt beam="2">  1       -2 0.64767401E-01 0.11558913E+04</pdfrwt>
<totfact> 0.75848449E+01</totfact>
</mgrwt>
</event>
<event>
 6    1  0.2325157E-005  0.2139039E+04  0.7818608E-02  0.8544239E-01
          2   -1    0    0  501    0  0.00000000000E+00  0.00000000000E+00  0.91733269700E+03  0.91733269700E+03  0.00000000000E+00 0.  1.
         -2   -1    0    0    0  501 -0.00000000000E+00 -0.00000000000E+00 -0.12469539739E+04  0.12469539739E+04  0.00000000000E+00 0. -1.
         23    2    1    2    0    0 -0.64262528939E+03  0.79675514525E+03 -0.47199856498E+03  0.11308180858E+04  0.90448183369E+02 0.  0.
         11    1    3    3    0    0 -0.17746298313E+03  0.15930193237E+03 -0.10950256179E+03  0.26241384696E+03  0.00000000000E+00 0. -1.
        -11    1    3    3    0    0 -0.46516230626E+03  0.63745321288E+03 -0.36249600318E+03  0.86840423887E+03  0.00000000000E+00 0.  1.
         22    1    1    2    0    0  0.64262528939E+03 -0.79675514525E+03  0.14237728812E+03  0.10334685850E+04  0.00000000000E+00 0. -1.
<mgrwt>
<rscale>  0 0.21390387E+04</rscale>
<asrwt>0</asrwt>
<pdfrwt beam="1">  1        2 0.14112811E+00 0.21390387E+04</pdfrwt>
<pdfrwt beam="2">  1       -2 0.19183907E+00 0.21390387E+04</pdfrwt>
<totfact> 0.39490968E+00</totfact>
</mgrwt>
</event>
<event>
 6    1  0.2325157E-005  0.6963481E+03  0.7818608E-02  0.9723498E-01
          2   -1    0    0  501    0  0.00000000000E+00  0.00000000000E+00  0.18492643979E+04  0.18492643979E+04  0.00000000000E+00 0.  1.
         -2   -1    0    0    0  501 -0.00000000000E+00 -0.00000000000E+00 -0.65553183595E+02  0.65553183595E+02  0.00000000000E+00 0. -1.
         23    2    1    2    0    0  0.10168819144E+03  0.31073532615E+03  0.11858316547E+04  0.12333802044E+04  0.90183612526E+02 0.  0.
         13    1    3    3    0    0  0.10682225345E+03  0.20628003611E+03  0.88083538477E+03  0.91095193187E+03  0.00000000000E+00 0.  1.
        -13    1    3    3    0    0 -0.51340620153E+01  0.10445529004E+03  0.30499626997E+03  0.32242827250E+03  0.00000000000E+00 0. -1.
         22    1    1    2    0    0 -0.10168819144E+03 -0.31073532615E+03  0.59787955960E+03  0.68143737716E+03  0.00000000000E+00 0.  1.
<mgrwt>
<rscale>  0 0.69634810E+03</rscale>
<asrwt>0</asrwt>
<pdfrwt beam="1">  1        2 0.28450218E+00 0.69634810E+03</pdfrwt>
<pdfrwt beam="2">  1       -2 0.10085107E-01 0.69634810E+03</pdfrwt>
<totfact> 0.56132669E+02</totfact>
</mgrwt>
</event>
<event>
 6    1  0.2325157E-005  0.2593814E+04  0.7818608E-02  0.8370306E-01
         -2   -1    0    0    0  501 -0.00000000000E+00  0.00000000000E+00  0.75029396690E+03  0.75029396690E+03  0.00000000000E+00 0. -1.
          2   -1    0    0  501    0  0.00000000000E+00 -0.00000000000E+00 -0.22417441901E+04  0.22417441901E+04  0.00000000000E+00 0.  1.
         23    2    1    2    0    0 -0.67838103174E+03 -0.34567895711E+03  0.46193609877E+03  0.89551415560E+03  0.94158791018E+02 0.  0.
         13    1    3    3    0    0 -0.43693259487E+03 -0.26914193033E+03  0.29096217907E+03  0.58992072414E+03  0.00000000000E+00 0. -1.
        -13    1    3    3    0    0 -0.24144843687E+03 -0.76537026777E+02  0.17097391969E+03  0.30559343146E+03  0.00000000000E+00 0.  1.
         22    1    1    2    0    0  0.67838103174E+03  0.34567895711E+03 -0.19533863219E+04  0.20965240014E+04  0.00000000000E+00 0.  1.
<mgrwt>
<rscale>  0 0.25938135E+04</rscale>
<asrwt>0</asrwt>
<pdfrwt beam="1">  1        2 0.34488372E+00 0.25938135E+04</pdfrwt>
<pdfrwt beam="2">  1       -2 0.11542984E+00 0.25938135E+04</pdfrwt>
<totfact> 0.25290713E+00</totfact>
</mgrwt>
</event>
<event>
 6    1  0.2325157E-005  0.1072992E+04  0.7818608E-02  0.9231923E-01
          2   -1    0    0  501    0  0.00000000000E+00  0.00000000000E+00  0.34906999386E+04  0.34906999386E+04  0.00000000000E+00 0.  1.
         -2   -1    0    0    0  501 -0.00000000000E+00 -0.00000000000E+00 -0.82455693735E+02  0.82455693735E+02  0.00000000000E+00 0. -1.
         23    2    1    2    0    0  0.42640322876E+03  0.14605628209E+03  0.76982644628E+03  0.89651583010E+03  0.89194871987E+02 0.  0.
         13    1    3    3    0    0  0.16124710449E+03  0.54336678620E+02  0.37862576270E+03  0.41510308543E+03  0.00000000000E+00 0.  1.
        -13    1    3    3    0    0  0.26515612427E+03  0.91719603474E+02  0.39120068358E+03  0.48141274467E+03  0.00000000000E+00 0. -1.
         22    1    1    2    0    0 -0.42640322876E+03 -0.14605628209E+03  0.26384177986E+04  0.26766398022E+04  0.00000000000E+00 0. -1.
<mgrwt>
<rscale>  0 0.10729922E+04</rscale>
<asrwt>0</asrwt>
<pdfrwt beam="1">  1        2 0.53703065E+00 0.10729922E+04</pdfrwt>
<pdfrwt beam="2">  1       -2 0.12685494E-01 0.10729922E+04</pdfrwt>
<totfact> 0.39476661E+01</totfact>
</mgrwt>
</event>
<event>
 6    1  0.2325157E-005  0.2864529E+04  0.7818608E-02  0.8283510E-01
         -2   -1    0    0    0  501 -0.00000000000E+00  0.00000000000E+00  0.11522034978E+04  0.11522034978E+04  0.00000000000E+00 0. -1.
          2   -1    0    0  501    0  0.00000000000E+00 -0.00000000000E+00 -0.17803991770E+04  0.17803991770E+04  0.00000000000E+00 0.  1.
         23    2    1    2    0    0 -0.98769040885E+01 -0.13704257091E+04 -0.73533330366E+03  0.15579599401E+04  0.91432653645E+02 0.  0.
         13    1    3    3    0    0  0.34959351553E+02 -0.42161732266E+03 -0.20586609288E+03  0.47049354005E+03  0.00000000000E+00 0.  1.
        -13    1    3    3    0    0 -0.44836255642E+02 -0.94880838642E+03 -0.52946721078E+03  0.10874664001E+04  0.00000000000E+00 0. -1.
         22    1    1    2    0    0  0.98769040885E+01  0.13704257091E+04  0.10713762443E+03  0.13746427346E+04  0.00000000000E+00 0. -1.
<mgrwt>
<rscale>  0 0.28645294E+04</rscale>
<asrwt>0</asrwt>
<pdfrwt beam="1">  1        2 0.27390756E+00 0.28645294E+04</pdfrwt>
<pdfrwt beam="2">  1       -2 0.17726208E+00 0.28645294E+04</pdfrwt>
<totfact> 0.14510386E+00</totfact>
</mgrwt>
</event>
<event>
 6    1  0.2325157E-005  0.2016728E+04  0.7818608E-02  0.8598840E-01
         -2   -1    0    0    0  501 -0.00000000000E+00  0.00000000000E+00  0.36994765771E+03  0.36994765771E+03  0.00000000000E+00 0. -1.
          2   -1    0    0  501    0  0.00000000000E+00 -0.00000000000E+00 -0.27484903248E+04  0.27484903248E+04  0.00000000000E+00 0.  1.
         23    2    1    2    0    0  0.41263196976E+03  0.59208793156E+03 -0.22760659720E+04  0.23895108708E+04  0.91938195459E+02 0.  0.
         11    1    3    3    0    0  0.18159426541E+03  0.18568258724E+03 -0.84679387671E+03  0.88572815811E+03  0.00000000000E+00 0.  1.
        -11    1    3    3    0    0  0.23103770435E+03  0.40640534432E+03 -0.14292720953E+04  0.15037827127E+04  0.00000000000E+00 0. -1.
         22    1    1    2    0    0 -0.41263196976E+03 -0.59208793156E+03 -0.10247669515E+03  0.72892711173E+03  0.00000000000E+00 0. -1.
<mgrwt>
<rscale>  0 0.20167276E+04</rscale>
<asrwt>0</asrwt>
<pdfrwt beam="1">  1        2 0.42284466E+00 0.20167276E+04</pdfrwt>
<pdfrwt beam="2">  1       -2 0.56915025E-01 0.20167276E+04</pdfrwt>
<totfact> 0.66787507E+00</totfact>
</mgrwt>
</event>
<event>
 6    1  0.2325157E-005  0.2225807E+04  0.7818608E-02  0.8507763E-01
          2   -1    0    0  501    0  0.00000000000E+00  0.00000000000E+00  0.21151756359E+04  0.21151756359E+04  0.00000000000E+00 0.  1.
         -2   -1    0    0    0  501 -0.00000000000E+00 -0.00000000000E+00 -0.58555642735E+03  0.58555642735E+03  0.00000000000E+00 0. -1.
         23    2    1    2    0    0 -0.56863661824E+03  0.92849114192E+03  0.49730227781E+03  0.12003582266E+04  0.90038394010E+02 0.  0.
         13    1    3    3    0    0 -0.51264337352E+03  0.86228542744E+03  0.47936273754E+03  0.11118129433E+04  0.00000000000E+00 0. -1.
        -13    1    3    3    0    0 -0.55993244722E+02  0.66205714479E+02  0.17939540269E+02  0.88545283270E+02  0.00000000000E+00 0.  1.
         22    1    1    2    0    0  0.56863661824E+03 -0.92849114192E+03  0.10323169307E+04  0.15003738366E+04  0.00000000000E+00 0. -1.
<mgrwt>
<rscale>  0 0.22258074E+04</rscale>
<asrwt>0</asrwt>
<pdfrwt beam="1">  1        2 0.32541163E+00 0.22258074E+04</pdfrwt>
<pdfrwt beam="2">  1       -2 0.90085605E-01 0.22258074E+04</pdfrwt>
<totfact> 0.55413842E+00</totfact>
</mgrwt>
</event>
<event>
 6    1  0.2325157E-005  0.3223379E+04  0.7818608E-02  0.8182670E-01
         -2   -1    0    0    0  501 -0.00000000000E+00  0.00000000000E+00  0.65229797473E+03  0.65229797473E+03  0.00000000000E+00 0. -1.
          2   -1    0    0  501    0  0.00000000000E+00 -0.00000000000E+00 -0.39821412731E+04  0.39821412731E+04  0.00000000000E+00 0.  1.
         23    2    1    2    0    0  0.88426888034E+03 -0.10694303766E+04 -0.49083104182E+03  0.14744387137E+04  0.86264857821E+02 0.  0.
         13    1    3    3    0    0  0.44271314782E+03 -0.60186550453E+03 -0.27177828191E+03  0.79504745224E+03  0.00000000000E+00 0.  1.
        -13    1    3    3    0    0  0.44155573252E+03 -0.46756487204E+03 -0.21905275991E+03  0.67939126143E+03  0.00000000000E+00 0. -1.
         22    1    1    2    0    0 -0.88426888034E+03  0.10694303766E+04 -0.28390122566E+04  0.31600005342E+04  0.00000000000E+00 0.  1.
<mgrwt>
<rscale>  0 0.32233788E+04</rscale>
<asrwt>0</asrwt>
<pdfrwt beam="1">  1        2 0.61263712E+00 0.32233788E+04</pdfrwt>
<pdfrwt beam="2">  1       -2 0.10035353E+00 0.32233788E+04</pdfrwt>
<totfact> 0.24304887E-01</totfact>
</mgrwt>
</event>
<event>
 6    1  0.2325157E-005  0.7691357E+03  0.7818608E-02  0.9605799E-01
          2   -1    0    0  501    0  0.00000000000E+00  0.00000000000E+00  0.27109709006E+04  0.27109709006E+04  0.00000000000E+00 0.  1.
         -2   -1    0    0    0  501 -0.00000000000E+00 -0.00000000000E+00 -0.54553303989E+02  0.54553303989E+02  0.00000000000E+00 0. -1.
         23    2    1    2    0    0 -0.19968605439E+03  0.29563631842E+03  0.18063252970E+04  0.18436064908E+04  0.93800113933E+02 0.  0.
         13    1    3    3    0    0 -0.10179460777E+03  0.22618643689E+03  0.12734850671E+04  0.12974153778E+04  0.00000000000E+00 0.  1.
        -13    1    3    3    0    0 -0.97891446616E+02  0.69449881528E+02  0.53284022989E+03  0.54619111304E+03  0.00000000000E+00 0. -1.
         22    1    1    2    0    0  0.19968605439E+03 -0.29563631842E+03  0.85009229966E+03  0.92191771381E+03  0.00000000000E+00 0. -1.
<mgrwt>
<rscale>  0 0.76913567E+03</rscale>
<asrwt>0</asrwt>
<pdfrwt beam="1">  1        2 0.41707234E+00 0.76913567E+03</pdfrwt>
<pdfrwt beam="2">  1       -2 0.83928181E-02 0.76913567E+03</pdfrwt>
<totfact> 0.24856455E+02</totfact>
</mgrwt>
</event>
<event>
 6    1  0.2325157E-005  0.1518917E+04  0.7818608E-02  0.8871970E-01
         -4   -1    0    0    0  501 -0.00000000000E+00  0.00000000000E+00  0.12046644222E+04  0.12046644222E+04  0.00000000000E+00 0. -1.
          4   -1    0    0  501    0  0.00000000000E+00 -0.00000000000E+00 -0.47878661189E+03  0.47878661189E+03  0.00000000000E+00 0.  1.
         23    2    1    2    0    0  0.68102626347E+03 -0.60772100726E+02  0.51015799209E+01  0.68996807294E+03  0.92411556637E+02 0.  0.
         11    1    3    3    0    0  0.18412974005E+03 -0.55813861697E+02 -0.11745999750E+02  0.19276129497E+03  0.00000000000E+00 0. -1.
        -11    1    3    3    0    0  0.49689652342E+03 -0.49582390290E+01  0.16847579671E+02  0.49720677797E+03  0.00000000000E+00 0.  1.
         22    1    1    2    0    0 -0.68102626347E+03  0.60772100726E+02  0.72077623034E+03  0.99348296110E+03  0.00000000000E+00 0. -1.
<mgrwt>
<rscale>  0 0.15189170E+04</rscale>
<asrwt>0</asrwt>
<pdfrwt beam="1">  1        4 0.73659479E-01 0.15189170E+04</pdfrwt>
<pdfrwt beam="2">  1       -4 0.18533299E+00 0.15189170E+04</pdfrwt>
<totfact> 0.53266008E-01</totfact>
</mgrwt>
</event>
<event>
 6    1  0.2325157E-005  0.1194201E+04  0.7818608E-02  0.9117947E-01
         -2   -1    0    0    0  501 -0.00000000000E+00  0.00000000000E+00  0.18620996160E+03  0.18620996160E+03  0.00000000000E+00 0. -1.
          2   -1    0    0  501    0  0.00000000000E+00 -0.00000000000E+00 -0.19146625236E+04  0.19146625236E+04  0.00000000000E+00 0.  1.
         23    2    1    2    0    0  0.93583874925E+02  0.39774452981E+03 -0.11167123757E+03  0.43325727068E+03  0.91009585525E+02 0.  0.
         13    1    3    3    0    0  0.11779158641E+02  0.19651774927E+02  0.13593020926E+02  0.26640402661E+02  0.00000000000E+00 0. -1.
        -13    1    3    3    0    0  0.81804716284E+02  0.37809275489E+03 -0.12526425850E+03  0.40661686802E+03  0.00000000000E+00 0.  1.
         22    1    1    2    0    0 -0.93583874925E+02 -0.39774452981E+03 -0.16167813244E+04  0.16676152145E+04  0.00000000000E+00 0.  1.
<mgrwt>
<rscale>  0 0.11942014E+04</rscale>
<asrwt>0</asrwt>
<pdfrwt beam="1">  1        2 0.29456348E+00 0.11942014E+04</pdfrwt>
<pdfrwt beam="2">  1       -2 0.28647685E-01 0.11942014E+04</pdfrwt>
<totfact> 0.82268117E+01</totfact>
</mgrwt>
</event>
<event>
 6    1  0.2325157E-005  0.1080934E+04  0.7818608E-02  0.9223976E-01
         -4   -1    0    0    0  501 -0.00000000000E+00  0.00000000000E+00  0.60043497227E+03  0.60043497227E+03  0.00000000000E+00 0. -1.
          4   -1    0    0  501    0  0.00000000000E+00 -0.00000000000E+00 -0.48648873139E+03  0.48648873139E+03  0.00000000000E+00 0.  1.
         23    2    1    2    0    0 -0.18293102384E+03 -0.20006052740E+03 -0.40867521222E+03  0.49817829404E+03  0.87625392791E+02 0.  0.
         11    1    3    3    0    0 -0.74151823690E+02 -0.51466331195E+02 -0.20266809552E+03  0.22185948965E+03  0.00000000000E+00 0.  1.
        -11    1    3    3    0    0 -0.10877920015E+03 -0.14859419621E+03 -0.20600711670E+03  0.27631880439E+03  0.00000000000E+00 0. -1.
         22    1    1    2    0    0  0.18293102384E+03  0.20006052740E+03  0.52262145310E+03  0.58874540962E+03  0.00000000000E+00 0. -1.
<mgrwt>
<rscale>  0 0.10809345E+04</rscale>
<asrwt>0</asrwt>
<pdfrwt beam="1">  1        4 0.74844420E-01 0.10809345E+04</pdfrwt>
<pdfrwt beam="2">  1       -4 0.92374611E-01 0.10809345E+04</pdfrwt>
<totfact> 0.31777666E+00</totfact>
</mgrwt>
</event>
<event>
 6    1  0.2325157E-005  0.2108911E+04  0.7818608E-02  0.8557328E-01
          2   -1    0    0  501    0  0.00000000000E+00  0.00000000000E+00  0.15500804054E+04  0.15500804054E+04  0.00000000000E+00 0.  1.
         -2   -1    0    0    0  501 -0.00000000000E+00 -0.00000000000E+00 -0.71730251188E+03  0.71730251188E+03  0.00000000000E+00 0. -1.
         23    2    1    2    0    0  0.29094984185E+03  0.10093848610E+04  0.34719330600E+03  0.11101007564E+04  0.90944430843E+02 0.  0.
         11    1    3    3    0    0  0.15400890331E+03  0.68869831867E+03  0.23193755781E+03  0.74284530499E+03  0.00000000000E+00 0.  1.
        -11    1    3    3    0    0  0.13694093855E+03  0.32068654237E+03  0.11525574819E+03  0.36725545142E+03  0.00000000000E+00 0. -1.
         22    1    1    2    0    0 -0.29094984185E+03 -0.10093848610E+04  0.48558458749E+03  0.11572821608E+04  0.00000000000E+00 0.  1.
<mgrwt>
<rscale>  0 0.21089112E+04</rscale>
<asrwt>0</asrwt>
<pdfrwt beam="1">  1        2 0.23847391E+00 0.21089112E+04</pdfrwt>
<pdfrwt beam="2">  1       -2 0.11035423E+00 0.21089112E+04</pdfrwt>
<totfact> 0.71418632E+00</totfact>
</mgrwt>
</event>
<event>
 6    1  0.2325157E-005  0.1866865E+04  0.7818608E-02  0.8671528E-01
         -2   -1    0    0    0  501 -0.00000000000E+00  0.00000000000E+00  0.92178004389E+03  0.92178004389E+03  0.00000000000E+00 0. -1.
          2   -1    0    0  501    0  0.00000000000E+00 -0.00000000000E+00 -0.94523196331E+03  0.94523196331E+03  0.00000000000E+00 0.  1.
         23    2    1    2    0    0  0.34095961189E+03 -0.86639377230E+03 -0.13019102928E+01  0.93567842114E+03  0.92740429168E+02 0.  0.
         13    1    3    3    0    0  0.24500069065E+03 -0.49968107142E+03 -0.76531182491E+01  0.55656543351E+03  0.00000000000E+00 0.  1.
        -13    1    3    3    0    0  0.95958921234E+02 -0.36671270088E+03  0.63512079563E+01  0.37911298764E+03  0.00000000000E+00 0. -1.
         22    1    1    2    0    0 -0.34095961189E+03  0.86639377230E+03 -0.22150009132E+02  0.93133358606E+03  0.00000000000E+00 0. -1.
<mgrwt>
<rscale>  0 0.18668647E+04</rscale>
<asrwt>0</asrwt>
<pdfrwt beam="1">  1        2 0.14542030E+00 0.18668647E+04</pdfrwt>
<pdfrwt beam="2">  1       -2 0.14181231E+00 0.18668647E+04</pdfrwt>
<totfact> 0.89182811E+00</totfact>
</mgrwt>
</event>
<event>
 6    1  0.2325157E-005  0.4710780E+04  0.7818608E-02  0.7874740E-01
         -2   -1    0    0    0  501 -0.00000000000E+00  0.00000000000E+00  0.19935965347E+04  0.19935965347E+04  0.00000000000E+00 0. -1.
          2   -1    0    0  501    0  0.00000000000E+00 -0.00000000000E+00 -0.27828405283E+04  0.27828405283E+04  0.00000000000E+00 0.  1.
         23    2    1    2    0    0 -0.96872793117E+03 -0.87484291789E+03  0.15921364665E+04  0.20607867115E+04  0.90329433704E+02 0.  0.
         13    1    3    3    0    0 -0.35451784931E+03 -0.36038371600E+03  0.56550870149E+03  0.75852450171E+03  0.00000000000E+00 0.  1.
        -13    1    3    3    0    0 -0.61421008186E+03 -0.51445920189E+03  0.10266277650E+04  0.13022622098E+04  0.00000000000E+00 0. -1.
         22    1    1    2    0    0  0.96872793117E+03  0.87484291789E+03 -0.23813804601E+04  0.27156503515E+04  0.00000000000E+00 0.  1.
<mgrwt>
<rscale>  0 0.47107797E+04</rscale>
<asrwt>0</asrwt>
<pdfrwt beam="1">  1        2 0.42812931E+00 0.47107797E+04</pdfrwt>
<pdfrwt beam="2">  1       -2 0.30670716E+00 0.47107797E+04</pdfrwt>
<totfact> 0.50997307E-02</totfact>
</mgrwt>
</event>
<event>
 6    1  0.2325157E-005  0.2706086E+04  0.7818608E-02  0.8333033E-01
          2   -1    0    0  501    0  0.00000000000E+00  0.00000000000E+00  0.19366617518E+04  0.19366617518E+04  0.00000000000E+00 0.  1.
         -2   -1    0    0    0  501 -0.00000000000E+00 -0.00000000000E+00 -0.94529918125E+03  0.94529918125E+03  0.00000000000E+00 0. -1.
         23    2    1    2    0    0  0.32715351667E+03 -0.72295059122E+03  0.16613502010E+04  0.18434184901E+04  0.91761967245E+02 0.  0.
         13    1    3    3    0    0  0.18360576524E+03 -0.36692093510E+03  0.75881681127E+03  0.86263839627E+03  0.00000000000E+00 0. -1.
        -13    1    3    3    0    0  0.14354775143E+03 -0.35602965612E+03  0.90253338969E+03  0.98078009384E+03  0.00000000000E+00 0.  1.
         22    1    1    2    0    0 -0.32715351667E+03  0.72295059122E+03 -0.66998763043E+03  0.10385424429E+04  0.00000000000E+00 0. -1.
<mgrwt>
<rscale>  0 0.27060856E+04</rscale>
<asrwt>0</asrwt>
<pdfrwt beam="1">  1        2 0.29794796E+00 0.27060856E+04</pdfrwt>
<pdfrwt beam="2">  1       -2 0.14543064E+00 0.27060856E+04</pdfrwt>
<totfact> 0.20658900E+00</totfact>
</mgrwt>
</event>
<event>
 6    1  0.2325157E-005  0.4092654E+04  0.7818608E-02  0.7986112E-01
         -2   -1    0    0    0  501 -0.00000000000E+00  0.00000000000E+00  0.11636684356E+04  0.11636684356E+04  0.00000000000E+00 0. -1.
          2   -1    0    0  501    0  0.00000000000E+00 -0.00000000000E+00 -0.35984941043E+04  0.35984941043E+04  0.00000000000E+00 0.  1.
         23    2    1    2    0    0  0.17094340099E+04  0.26968741542E+03  0.50370144992E+02  0.17337810961E+04  0.92540809024E+02 0.  0.
         11    1    3    3    0    0  0.68744322022E+03  0.83564059463E+02  0.58264898405E+02  0.69495030862E+03  0.00000000000E+00 0.  1.
        -11    1    3    3    0    0  0.10219907897E+04  0.18612335596E+03 -0.78947534128E+01  0.10388307875E+04  0.00000000000E+00 0. -1.
         22    1    1    2    0    0 -0.17094340099E+04 -0.26968741542E+03 -0.24851958137E+04  0.30283814438E+04  0.00000000000E+00 0.  1.
<mgrwt>
<rscale>  0 0.40926539E+04</rscale>
<asrwt>0</asrwt>
<pdfrwt beam="1">  1        2 0.55361448E+00 0.40926539E+04</pdfrwt>
<pdfrwt beam="2">  1       -2 0.17902591E+00 0.40926539E+04</pdfrwt>
<totfact> 0.99591404E-02</totfact>
</mgrwt>
</event>
<event>
 6    1  0.2325157E-005  0.3329794E+04  0.7818608E-02  0.8155355E-01
          3   -1    0    0  501    0  0.00000000000E+00  0.00000000000E+00  0.13092410549E+04  0.13092410549E+04  0.00000000000E+00 0. -1.
         -3   -1    0    0    0  501 -0.00000000000E+00 -0.00000000000E+00 -0.21171669911E+04  0.21171669911E+04  0.00000000000E+00 0.  1.
         23    2    1    2    0    0 -0.37493155313E+02 -0.13078165653E+04  0.65315269527E+03  0.14651480753E+04  0.90887479408E+02 0.  0.
         11    1    3    3    0    0  0.11050938403E+01 -0.37760241568E+03  0.14502198690E+03  0.40449497184E+03  0.00000000000E+00 0.  1.
        -11    1    3    3    0    0 -0.38598249154E+02 -0.93021414964E+03  0.50813070838E+03  0.10606531034E+04  0.00000000000E+00 0. -1.
         22    1    1    2    0    0  0.37493155313E+02  0.13078165653E+04 -0.14610786315E+04  0.19612599707E+04  0.00000000000E+00 0.  1.
<mgrwt>
<rscale>  0 0.33297940E+04</rscale>
<asrwt>0</asrwt>
<pdfrwt beam="1">  1        3 0.20142170E+00 0.33297940E+04</pdfrwt>
<pdfrwt beam="2">  1       -3 0.32571800E+00 0.33297940E+04</pdfrwt>
<totfact> 0.84898126E-03</totfact>
</mgrwt>
</event>
<event>
 6    1  0.2325157E-005  0.2043939E+04  0.7818608E-02  0.8586349E-01
         -2   -1    0    0    0  501 -0.00000000000E+00  0.00000000000E+00  0.11329922536E+04  0.11329922536E+04  0.00000000000E+00 0. -1.
          2   -1    0    0  501    0  0.00000000000E+00 -0.00000000000E+00 -0.92182563658E+03  0.92182563658E+03  0.00000000000E+00 0.  1.
         23    2    1    2    0    0  0.17133771303E+03 -0.42823722061E+03  0.10203737462E+04  0.11233889306E+04  0.89979877934E+02 0.  0.
         11    1    3    3    0    0  0.12631446463E+03 -0.20201984617E+03  0.55546209325E+03  0.60440507878E+03  0.00000000000E+00 0.  1.
        -11    1    3    3    0    0  0.45023248397E+02 -0.22621737444E+03  0.46491165292E+03  0.51898385179E+03  0.00000000000E+00 0. -1.
         22    1    1    2    0    0 -0.17133771303E+03  0.42823722061E+03 -0.80920712912E+03  0.93142895963E+03  0.00000000000E+00 0.  1.
<mgrwt>
<rscale>  0 0.20439387E+04</rscale>
<asrwt>0</asrwt>
<pdfrwt beam="1">  1        2 0.14181933E+00 0.20439387E+04</pdfrwt>
<pdfrwt beam="2">  1       -2 0.17430650E+00 0.20439387E+04</pdfrwt>
<totfact> 0.52124853E+00</totfact>
</mgrwt>
</event>
<event>
 6    1  0.2325157E-005  0.3902344E+04  0.7818608E-02  0.8024542E-01
         -2   -1    0    0    0  501 -0.00000000000E+00  0.00000000000E+00  0.21665891562E+04  0.21665891562E+04  0.00000000000E+00 0. -1.
          2   -1    0    0  501    0  0.00000000000E+00 -0.00000000000E+00 -0.17571732588E+04  0.17571732588E+04  0.00000000000E+00 0.  1.
         23    2    1    2    0    0 -0.12863694342E+02  0.19410507858E+04  0.18450854616E+02  0.19436873426E+04  0.98673320291E+02 0.  0.
         13    1    3    3    0    0 -0.50801319728E+02  0.65758303503E+03  0.11289664546E+02  0.65963905173E+03  0.00000000000E+00 0.  1.
        -13    1    3    3    0    0  0.37937625387E+02  0.12834677507E+04  0.71611900704E+01  0.12840482908E+04  0.00000000000E+00 0. -1.
         22    1    1    2    0    0  0.12863694342E+02 -0.19410507858E+04  0.39096504283E+03  0.19800750724E+04  0.00000000000E+00 0. -1.
<mgrwt>
<rscale>  0 0.39023442E+04</rscale>
<asrwt>0</asrwt>
<pdfrwt beam="1">  1        2 0.27033435E+00 0.39023442E+04</pdfrwt>
<pdfrwt beam="2">  1       -2 0.33332141E+00 0.39023442E+04</pdfrwt>
<totfact> 0.14342151E-01</totfact>
</mgrwt>
</event>
<event>
 6    1  0.2325157E-005  0.2678408E+04  0.7818608E-02  0.8342045E-01
         -2   -1    0    0    0  501 -0.00000000000E+00  0.00000000000E+00  0.11073321674E+04  0.11073321674E+04  0.00000000000E+00 0. -1.
          2   -1    0    0  501    0  0.00000000000E+00 -0.00000000000E+00 -0.16196296545E+04  0.16196296545E+04  0.00000000000E+00 0.  1.
         23    2    1    2    0    0 -0.13369245914E+04  0.30134149292E+02 -0.22548664766E+03  0.13592864628E+04  0.92412281065E+02 0.  0.
         11    1    3    3    0    0 -0.51165283765E+03  0.12287017975E+02 -0.40876231273E+02  0.51343009589E+03  0.00000000000E+00 0.  1.
        -11    1    3    3    0    0 -0.82527175377E+03  0.17847131317E+02 -0.18461041638E+03  0.84585636695E+03  0.00000000000E+00 0. -1.
         22    1    1    2    0    0  0.13369245914E+04 -0.30134149292E+02 -0.28681083952E+03  0.13676753591E+04  0.00000000000E+00 0. -1.
<mgrwt>
<rscale>  0 0.26784085E+04</rscale>
<asrwt>0</asrwt>
<pdfrwt beam="1">  1        2 0.24917379E+00 0.26784085E+04</pdfrwt>
<pdfrwt beam="2">  1       -2 0.17035880E+00 0.26784085E+04</pdfrwt>
<totfact> 0.20251149E+00</totfact>
</mgrwt>
</event>
<event>
 6    1  0.2325157E-005  0.2380494E+04  0.7818608E-02  0.8446842E-01
          2   -1    0    0  501    0  0.00000000000E+00  0.00000000000E+00  0.12093261201E+04  0.12093261201E+04  0.00000000000E+00 0.  1.
         -2   -1    0    0    0  501 -0.00000000000E+00 -0.00000000000E+00 -0.11714692555E+04  0.11714692555E+04  0.00000000000E+00 0. -1.
         23    2    1    2    0    0  0.36601857148E+03  0.47672980211E+03 -0.10064985907E+04  0.11758392701E+04  0.91201299740E+02 0.  0.
         13    1    3    3    0    0  0.16010555747E+03  0.15837665610E+03 -0.43808268270E+03  0.49257831014E+03  0.00000000000E+00 0. -1.
        -13    1    3    3    0    0  0.20591301401E+03  0.31835314601E+03 -0.56841590803E+03  0.68326095997E+03  0.00000000000E+00 0.  1.
         22    1    1    2    0    0 -0.36601857148E+03 -0.47672980211E+03  0.10443554554E+04  0.12049561055E+04  0.00000000000E+00 0.  1.
<mgrwt>
<rscale>  0 0.23804944E+04</rscale>
<asrwt>0</asrwt>
<pdfrwt beam="1">  1        2 0.18605017E+00 0.23804944E+04</pdfrwt>
<pdfrwt beam="2">  1       -2 0.18022604E+00 0.23804944E+04</pdfrwt>
<totfact> 0.30429438E+00</totfact>
</mgrwt>
</event>
<event>
 6    1  0.2325157E-005  0.1223207E+04  0.7818608E-02  0.9092783E-01
          2   -1    0    0  501    0  0.00000000000E+00  0.00000000000E+00  0.26301891779E+04  0.26301891779E+04  0.00000000000E+00 0.  1.
         -2   -1    0    0    0  501 -0.00000000000E+00 -0.00000000000E+00 -0.14221736484E+03  0.14221736484E+03  0.00000000000E+00 0. -1.
         23    2    1    2    0    0 -0.10935756788E+03  0.14783583159E+03  0.25649474392E+04  0.25730582100E+04  0.88649171324E+02 0.  0.
         13    1    3    3    0    0 -0.89113576624E+02  0.10495820608E+03  0.13101017380E+04  0.13173169772E+04  0.00000000000E+00 0.  1.
        -13    1    3    3    0    0 -0.20243991255E+02  0.42877625505E+02  0.12548457012E+04  0.12557412328E+04  0.00000000000E+00 0. -1.
         22    1    1    2    0    0  0.10935756788E+03 -0.14783583159E+03 -0.76975626101E+02  0.19934833274E+03  0.00000000000E+00 0. -1.
<mgrwt>
<rscale>  0 0.12232066E+04</rscale>
<asrwt>0</asrwt>
<pdfrwt beam="1">  1        2 0.40464445E+00 0.12232066E+04</pdfrwt>
<pdfrwt beam="2">  1       -2 0.21879596E-01 0.12232066E+04</pdfrwt>
<totfact> 0.52881602E+01</totfact>
</mgrwt>
</event>
<event>
 6    1  0.2325157E-005  0.8252472E+03  0.7818608E-02  0.9524175E-01
          2   -1    0    0  501    0  0.00000000000E+00  0.00000000000E+00  0.10051843378E+04  0.10051843378E+04  0.00000000000E+00 0.  1.
         -2   -1    0    0    0  501 -0.00000000000E+00 -0.00000000000E+00 -0.16938012847E+03  0.16938012847E+03  0.00000000000E+00 0. -1.
         23    2    1    2    0    0 -0.29732311418E+03  0.22444379884E+03  0.65843846600E+03  0.76196943482E+03  0.90995346200E+02 0.  0.
         11    1    3    3    0    0 -0.15814811857E+02  0.39369146050E+02  0.43324163495E+02  0.60638445539E+02  0.00000000000E+00 0. -1.
        -11    1    3    3    0    0 -0.28150830232E+03  0.18507465279E+03  0.61511430251E+03  0.70133098928E+03  0.00000000000E+00 0.  1.
         22    1    1    2    0    0  0.29732311418E+03 -0.22444379884E+03  0.17736574332E+03  0.41259503144E+03  0.00000000000E+00 0.  1.
<mgrwt>
<rscale>  0 0.82524724E+03</rscale>
<asrwt>0</asrwt>
<pdfrwt beam="1">  1        2 0.15464374E+00 0.82524724E+03</pdfrwt>
<pdfrwt beam="2">  1       -2 0.26058482E-01 0.82524724E+03</pdfrwt>
<totfact> 0.33358297E+02</totfact>
</mgrwt>
</event>
<event>
 6    1  0.2325157E-005  0.2340392E+04  0.7818608E-02  0.8462163E-01
          2   -1    0    0  501    0  0.00000000000E+00  0.00000000000E+00  0.17084127614E+04  0.17084127614E+04  0.00000000000E+00 0.  1.
         -2   -1    0    0    0  501 -0.00000000000E+00 -0.00000000000E+00 -0.80153867113E+03  0.80153867113E+03  0.00000000000E+00 0. -1.
         23    2    1    2    0    0  0.60968381159E+03  0.51774805113E+03 -0.45929136662E+03  0.92685779974E+03  0.91320462834E+02 0.  0.
         13    1    3    3    0    0  0.20463230836E+03  0.22331122840E+03 -0.19985712310E+03  0.36288449403E+03  0.00000000000E+00 0. -1.
        -13    1    3    3    0    0  0.40505150322E+03  0.29443682273E+03 -0.25943424352E+03  0.56397330571E+03  0.00000000000E+00 0.  1.
         22    1    1    2    0    0 -0.60968381159E+03 -0.51774805113E+03  0.13661654569E+04  0.15830936328E+04  0.00000000000E+00 0.  1.
<mgrwt>
<rscale>  0 0.23403922E+04</rscale>
<asrwt>0</asrwt>
<pdfrwt beam="1">  1        2 0.26283273E+00 0.23403922E+04</pdfrwt>
<pdfrwt beam="2">  1       -2 0.12331364E+00 0.23403922E+04</pdfrwt>
<totfact> 0.43496868E+00</totfact>
</mgrwt>
</event>
<event>
 6    1  0.2325157E-005  0.3856999E+04  0.7818608E-02  0.8034032E-01
          2   -1    0    0  501    0  0.00000000000E+00  0.00000000000E+00  0.37401731662E+04  0.37401731662E+04  0.00000000000E+00 0.  1.
         -2   -1    0    0    0  501 -0.00000000000E+00 -0.00000000000E+00 -0.99436847968E+03  0.99436847968E+03  0.00000000000E+00 0. -1.
         23    2    1    2    0    0 -0.15512365210E+04 -0.15053506510E+03 -0.18533411191E+02  0.15611269758E+04  0.88195222298E+02 0.  0.
         11    1    3    3    0    0 -0.44755584113E+03 -0.13318186959E+02  0.21007317479E+02  0.44824648624E+03  0.00000000000E+00 0. -1.
        -11    1    3    3    0    0 -0.11036806799E+04 -0.13721687814E+03 -0.39540728670E+02  0.11128804895E+04  0.00000000000E+00 0.  1.
         22    1    1    2    0    0  0.15512365210E+04  0.15053506510E+03  0.27643380977E+04  0.31734146701E+04  0.00000000000E+00 0.  1.
<mgrwt>
<rscale>  0 0.38569990E+04</rscale>
<asrwt>0</asrwt>
<pdfrwt beam="1">  1        2 0.57541125E+00 0.38569990E+04</pdfrwt>
<pdfrwt beam="2">  1       -2 0.15297977E+00 0.38569990E+04</pdfrwt>
<totfact> 0.12333840E-01</totfact>
</mgrwt>
</event>
<event>
 6    1  0.2325157E-005  0.1343253E+04  0.7818608E-02  0.8995952E-01
          2   -1    0    0  501    0  0.00000000000E+00  0.00000000000E+00  0.14720411786E+04  0.14720411786E+04  0.00000000000E+00 0.  1.
         -2   -1    0    0    0  501 -0.00000000000E+00 -0.00000000000E+00 -0.30643296071E+03  0.30643296071E+03  0.00000000000E+00 0. -1.
         23    2    1    2    0    0 -0.35985744923E+03  0.53181264955E+03  0.83183661725E+03  0.10547852839E+04  0.91092038000E+02 0.  0.
         13    1    3    3    0    0 -0.80684600203E+02  0.91726295301E+02  0.10943285822E+03  0.16400996439E+03  0.00000000000E+00 0. -1.
        -13    1    3    3    0    0 -0.27917284903E+03  0.44008635425E+03  0.72240375903E+03  0.89077531953E+03  0.00000000000E+00 0.  1.
         22    1    1    2    0    0  0.35985744923E+03 -0.53181264955E+03  0.33377160061E+03  0.72368885535E+03  0.00000000000E+00 0. -1.
<mgrwt>
<rscale>  0 0.13432527E+04</rscale>
<asrwt>0</asrwt>
<pdfrwt beam="1">  1        2 0.22646787E+00 0.13432527E+04</pdfrwt>
<pdfrwt beam="2">  1       -2 0.47143533E-01 0.13432527E+04</pdfrwt>
<totfact> 0.54850534E+01</totfact>
</mgrwt>
</event>
<event>
 6    1  0.3794079E-005  0.4730399E+04  0.7818608E-02  0.7871497E-01
         -2   -1    0    0    0  501 -0.00000000000E+00  0.00000000000E+00  0.25358523308E+04  0.25358523308E+04  0.00000000000E+00 0. -1.
          2   -1    0    0  501    0  0.00000000000E+00 -0.00000000000E+00 -0.22060312663E+04  0.22060312663E+04  0.00000000000E+00 0.  1.
         23    2    1    2    0    0 -0.10025614804E+04 -0.33646730482E+03  0.22849287571E+04  0.25190957398E+04  0.81265933303E+02 0.  0.
         11    1    3    3    0    0 -0.67471811928E+03 -0.24893232055E+03  0.16253062526E+04  0.17773103993E+04  0.00000000000E+00 0. -1.
        -11    1    3    3    0    0 -0.32784336113E+03 -0.87534984271E+02  0.65962250447E+03  0.74178534045E+03  0.00000000000E+00 0.  1.
         22    1    1    2    0    0  0.10025614804E+04  0.33646730482E+03 -0.19551076926E+04  0.22227878574E+04  0.00000000000E+00 0.  1.
<mgrwt>
<rscale>  0 0.47303994E+04</rscale>
<asrwt>0</asrwt>
<pdfrwt beam="1">  1        2 0.33938943E+00 0.47303994E+04</pdfrwt>
<pdfrwt beam="2">  1       -2 0.39013113E+00 0.47303994E+04</pdfrwt>
<totfact> 0.32812390E-02</totfact>
</mgrwt>
</event>
<event>
 6    1  0.2325157E-005  0.4174767E+04  0.7818608E-02  0.7970189E-01
         -2   -1    0    0    0  501 -0.00000000000E+00  0.00000000000E+00  0.10252906777E+04  0.10252906777E+04  0.00000000000E+00 0. -1.
          2   -1    0    0  501    0  0.00000000000E+00 -0.00000000000E+00 -0.42496924078E+04  0.42496924078E+04  0.00000000000E+00 0.  1.
         23    2    1    2    0    0  0.98503047612E+03  0.79926105755E+03 -0.37060834768E+04  0.39181040997E+04  0.85916945584E+02 0.  0.
         13    1    3    3    0    0  0.53217329966E+03  0.48327804077E+03 -0.21412001800E+04  0.22586509904E+04  0.00000000000E+00 0.  1.
        -13    1    3    3    0    0  0.45285717646E+03  0.31598301678E+03 -0.15648832968E+04  0.16594531092E+04  0.00000000000E+00 0. -1.
         22    1    1    2    0    0 -0.98503047612E+03 -0.79926105755E+03  0.48168174678E+03  0.13568789858E+04  0.00000000000E+00 0. -1.
<mgrwt>
<rscale>  0 0.41747671E+04</rscale>
<asrwt>0</asrwt>
<pdfrwt beam="1">  1        2 0.65379884E+00 0.41747671E+04</pdfrwt>
<pdfrwt beam="2">  1       -2 0.15773703E+00 0.41747671E+04</pdfrwt>
<totfact> 0.42605593E-02</totfact>
</mgrwt>
</event>
<event>
 6    1  0.2325157E-005  0.3540572E+04  0.7818608E-02  0.8104242E-01
         -1   -1    0    0    0  501 -0.00000000000E+00  0.00000000000E+00  0.76520356245E+03  0.76520356245E+03  0.00000000000E+00 0. -1.
          1   -1    0    0  501    0  0.00000000000E+00 -0.00000000000E+00 -0.40955269240E+04  0.40955269240E+04  0.00000000000E+00 0.  1.
         23    2    1    2    0    0 -0.93361175113E+03 -0.11686614580E+04 -0.29631343488E+04  0.33205265141E+04  0.91272431855E+02 0.  0.
         11    1    3    3    0    0 -0.54698973260E+03 -0.74070252514E+03 -0.18821851137E+04  0.20953421679E+04  0.00000000000E+00 0. -1.
        -11    1    3    3    0    0 -0.38662201852E+03 -0.42795893285E+03 -0.10809492350E+04  0.12251843462E+04  0.00000000000E+00 0.  1.
         22    1    1    2    0    0  0.93361175113E+03  0.11686614580E+04 -0.36718901274E+03  0.15402039723E+04  0.00000000000E+00 0. -1.
<mgrwt>
<rscale>  0 0.35405716E+04</rscale>
<asrwt>0</asrwt>
<pdfrwt beam="1">  1        1 0.63008106E+00 0.35405716E+04</pdfrwt>
<pdfrwt beam="2">  1       -1 0.11772363E+00 0.35405716E+04</pdfrwt>
<totfact> 0.41476857E-02</totfact>
</mgrwt>
</event>
<event>
 6    1  0.2325157E-005  0.2133851E+04  0.7818608E-02  0.8546477E-01
         -2   -1    0    0    0  501 -0.00000000000E+00  0.00000000000E+00  0.11955774606E+04  0.11955774606E+04  0.00000000000E+00 0. -1.
          2   -1    0    0  501    0  0.00000000000E+00 -0.00000000000E+00 -0.95211703818E+03  0.95211703818E+03  0.00000000000E+00 0.  1.
         23    2    1    2    0    0 -0.28307584638E+03 -0.44267765023E+03 -0.81042153760E+03  0.97008564076E+03  0.90485606450E+02 0.  0.
         13    1    3    3    0    0 -0.10071637585E+03 -0.14916913127E+03 -0.35901117793E+03  0.40160209657E+03  0.00000000000E+00 0.  1.
        -13    1    3    3    0    0 -0.18235947053E+03 -0.29350851896E+03 -0.45141035967E+03  0.56848354419E+03  0.00000000000E+00 0. -1.
         22    1    1    2    0    0  0.28307584638E+03  0.44267765023E+03  0.10538819600E+04  0.11776088580E+04  0.00000000000E+00 0. -1.
<mgrwt>
<rscale>  0 0.21338507E+04</rscale>
<asrwt>0</asrwt>
<pdfrwt beam="1">  1        2 0.14647955E+00 0.21338507E+04</pdfrwt>
<pdfrwt beam="2">  1       -2 0.18393499E+00 0.21338507E+04</pdfrwt>
<totfact> 0.42362878E+00</totfact>
</mgrwt>
</event>
<event>
 6    1  0.2325157E-005  0.1467752E+04  0.7818608E-02  0.8906185E-01
          2   -1    0    0  501    0  0.00000000000E+00  0.00000000000E+00  0.46717285775E+04  0.46717285775E+04  0.00000000000E+00 0.  1.
         -2   -1    0    0    0  501 -0.00000000000E+00 -0.00000000000E+00 -0.11528360273E+03  0.11528360273E+03  0.00000000000E+00 0. -1.
         23    2    1    2    0    0  0.70109099663E+03  0.17813321231E+03  0.19421671101E+04  0.20745024972E+04  0.91035709616E+02 0.  0.
         13    1    3    3    0    0  0.50106648932E+03  0.85649678649E+02  0.13847491463E+04  0.14751046378E+04  0.00000000000E+00 0. -1.
        -13    1    3    3    0    0  0.20002450731E+03  0.92483533657E+02  0.55741796377E+03  0.59939785940E+03  0.00000000000E+00 0.  1.
         22    1    1    2    0    0 -0.70109099663E+03 -0.17813321231E+03  0.26142778647E+04  0.27125096830E+04  0.00000000000E+00 0.  1.
<mgrwt>
<rscale>  0 0.14677516E+04</rscale>
<asrwt>0</asrwt>
<pdfrwt beam="1">  1        2 0.71872733E+00 0.14677516E+04</pdfrwt>
<pdfrwt beam="2">  1       -2 0.17735942E-01 0.14677516E+04</pdfrwt>
<totfact> 0.21918719E+00</totfact>
</mgrwt>
</event>
<event>
 6    1  0.2325157E-005  0.7369414E+03  0.7818608E-02  0.9656063E-01
          2   -1    0    0  501    0  0.00000000000E+00  0.00000000000E+00  0.40113127772E+03  0.40113127772E+03  0.00000000000E+00 0.  1.
         -2   -1    0    0    0  501 -0.00000000000E+00 -0.00000000000E+00 -0.33846935347E+03  0.33846935347E+03  0.00000000000E+00 0. -1.
         23    2    1    2    0    0 -0.39832130999E+02  0.35732977328E+03 -0.17692606831E+02  0.37118779727E+03  0.90532795023E+02 0.  0.
         13    1    3    3    0    0  0.27130421227E+02  0.12569424424E+03  0.71726650438E+01  0.12878878024E+03  0.00000000000E+00 0.  1.
        -13    1    3    3    0    0 -0.66962552225E+02  0.23163552904E+03 -0.24865271875E+02  0.24239901703E+03  0.00000000000E+00 0. -1.
         22    1    1    2    0    0  0.39832130999E+02 -0.35732977328E+03  0.80354531085E+02  0.36841283392E+03  0.00000000000E+00 0.  1.
<mgrwt>
<rscale>  0 0.73694137E+03</rscale>
<asrwt>0</asrwt>
<pdfrwt beam="1">  1        2 0.61712504E-01 0.73694137E+03</pdfrwt>
<pdfrwt beam="2">  1       -2 0.52072208E-01 0.73694137E+03</pdfrwt>
<totfact> 0.27841987E+02</totfact>
</mgrwt>
</event>
<event>
 6    1  0.2325157E-005  0.9025292E+03  0.7818608E-02  0.9422425E-01
          2   -1    0    0  501    0  0.00000000000E+00  0.00000000000E+00  0.66320424359E+03  0.66320424359E+03  0.00000000000E+00 0.  1.
         -2   -1    0    0    0  501 -0.00000000000E+00 -0.00000000000E+00 -0.30705433935E+03  0.30705433935E+03  0.00000000000E+00 0. -1.
         23    2    1    2    0    0  0.37187416730E+03 -0.38052117966E+02  0.44267855953E+03  0.58655874170E+03  0.91370073902E+02 0.  0.
         11    1    3    3    0    0  0.27506662064E+03 -0.20204823017E+02  0.38114723327E+03  0.47047114055E+03  0.00000000000E+00 0. -1.
        -11    1    3    3    0    0  0.96807546666E+02 -0.17847294949E+02  0.61531326258E+02  0.11608760114E+03  0.00000000000E+00 0.  1.
         22    1    1    2    0    0 -0.37187416730E+03  0.38052117966E+02 -0.86528655294E+02  0.38369984125E+03  0.00000000000E+00 0. -1.
<mgrwt>
<rscale>  0 0.90252920E+03</rscale>
<asrwt>0</asrwt>
<pdfrwt beam="1">  1        2 0.10203142E+00 0.90252920E+03</pdfrwt>
<pdfrwt beam="2">  1       -2 0.47239129E-01 0.90252920E+03</pdfrwt>
<totfact> 0.18680440E+02</totfact>
</mgrwt>
</event>
<event>
 6    1  0.2325157E-005  0.1395046E+04  0.7818608E-02  0.8957413E-01
          2   -1    0    0  501    0  0.00000000000E+00  0.00000000000E+00  0.14452520677E+04  0.14452520677E+04  0.00000000000E+00 0.  1.
         -2   -1    0    0    0  501 -0.00000000000E+00 -0.00000000000E+00 -0.33664582638E+03  0.33664582638E+03  0.00000000000E+00 0. -1.
         23    2    1    2    0    0 -0.26209069283E+03 -0.31792208954E+03 -0.15747281970E+03  0.45046176153E+03  0.91389952268E+02 0.  0.
         11    1    3    3    0    0 -0.20021792200E+03 -0.17883389615E+03 -0.83015055638E+02  0.28099871559E+03  0.00000000000E+00 0. -1.
        -11    1    3    3    0    0 -0.61872770829E+02 -0.13908819339E+03 -0.74457764065E+02  0.16946304594E+03  0.00000000000E+00 0.  1.
         22    1    1    2    0    0  0.26209069283E+03  0.31792208954E+03  0.12660790610E+04  0.13314361325E+04  0.00000000000E+00 0.  1.
<mgrwt>
<rscale>  0 0.13950456E+04</rscale>
<asrwt>0</asrwt>
<pdfrwt beam="1">  1        2 0.22234647E+00 0.13950456E+04</pdfrwt>
<pdfrwt beam="2">  1       -2 0.51791667E-01 0.13950456E+04</pdfrwt>
<totfact> 0.46729255E+01</totfact>
</mgrwt>
</event>
<event>
 6    1  0.2325157E-005  0.8289953E+03  0.7818608E-02  0.9518971E-01
         -2   -1    0    0    0  501 -0.00000000000E+00  0.00000000000E+00  0.22512917863E+03  0.22512917863E+03  0.00000000000E+00 0. -1.
          2   -1    0    0  501    0  0.00000000000E+00 -0.00000000000E+00 -0.76315436058E+03  0.76315436058E+03  0.00000000000E+00 0.  1.
         23    2    1    2    0    0 -0.25405706707E+03  0.18256596930E+02  0.11157258362E+03  0.29053318723E+03  0.84159341776E+02 0.  0.
         11    1    3    3    0    0 -0.21036564603E+03  0.43466968077E+02  0.10671557824E+03  0.23985682601E+03  0.00000000000E+00 0.  1.
        -11    1    3    3    0    0 -0.43691421039E+02 -0.25210371147E+02  0.48570053845E+01  0.50676361226E+02  0.00000000000E+00 0. -1.
         22    1    1    2    0    0  0.25405706707E+03 -0.18256596930E+02 -0.64959776556E+03  0.69775035198E+03  0.00000000000E+00 0.  1.
<mgrwt>
<rscale>  0 0.82899533E+03</rscale>
<asrwt>0</asrwt>
<pdfrwt beam="1">  1        2 0.11740837E+00 0.82899533E+03</pdfrwt>
<pdfrwt beam="2">  1       -2 0.34635258E-01 0.82899533E+03</pdfrwt>
<totfact> 0.28772912E+02</totfact>
</mgrwt>
</event>
<event>
 6    1  0.2325157E-005  0.1831896E+04  0.7818608E-02  0.8689519E-01
         -1   -1    0    0    0  501 -0.00000000000E+00  0.00000000000E+00  0.29949234251E+03  0.29949234251E+03  0.00000000000E+00 0.  1.
          1   -1    0    0  501    0  0.00000000000E+00 -0.00000000000E+00 -0.28012748650E+04  0.28012748650E+04  0.00000000000E+00 0. -1.
         23    2    1    2    0    0 -0.14155119123E+03 -0.38321290741E+03 -0.26373111188E+04  0.26703524394E+04  0.92105055723E+02 0.  0.
         13    1    3    3    0    0 -0.10096467821E+03 -0.31401131663E+03 -0.18708716723E+04  0.18997257138E+04  0.00000000000E+00 0. -1.
        -13    1    3    3    0    0 -0.40586513018E+02 -0.69201590785E+02 -0.76643944646E+03  0.77062672566E+03  0.00000000000E+00 0.  1.
         22    1    1    2    0    0  0.14155119123E+03  0.38321290741E+03  0.13552859632E+03  0.43041476806E+03  0.00000000000E+00 0.  1.
<mgrwt>
<rscale>  0 0.18318956E+04</rscale>
<asrwt>0</asrwt>
<pdfrwt beam="1">  1        1 0.43096538E+00 0.18318956E+04</pdfrwt>
<pdfrwt beam="2">  1       -1 0.46075743E-01 0.18318956E+04</pdfrwt>
<totfact> 0.36741220E+00</totfact>
</mgrwt>
</event>
<event>
 6    1  0.2325157E-005  0.2689611E+04  0.7818608E-02  0.8338384E-01
          2   -1    0    0  501    0  0.00000000000E+00  0.00000000000E+00  0.24108505927E+04  0.24108505927E+04  0.00000000000E+00 0.  1.
         -2   -1    0    0    0  501 -0.00000000000E+00 -0.00000000000E+00 -0.75015120023E+03  0.75015120023E+03  0.00000000000E+00 0. -1.
         23    2    1    2    0    0  0.18349933357E+02 -0.30013512708E+03  0.23698452088E+04  0.23907384591E+04  0.95111785924E+02 0.  0.
         13    1    3    3    0    0 -0.35553076853E+02 -0.85276273161E+02  0.80725902155E+03  0.81252888682E+03  0.00000000000E+00 0.  1.
        -13    1    3    3    0    0  0.53903010210E+02 -0.21485885392E+03  0.15625861872E+04  0.15782095723E+04  0.00000000000E+00 0. -1.
         22    1    1    2    0    0 -0.18349933357E+02  0.30013512708E+03 -0.70914581633E+03  0.77026333379E+03  0.00000000000E+00 0. -1.
<mgrwt>
<rscale>  0 0.26896115E+04</rscale>
<asrwt>0</asrwt>
<pdfrwt beam="1">  1        2 0.37090009E+00 0.26896115E+04</pdfrwt>
<pdfrwt beam="2">  1       -2 0.11540788E+00 0.26896115E+04</pdfrwt>
<totfact> 0.20110770E+00</totfact>
</mgrwt>
</event>
<event>
 6    1  0.2325157E-005  0.2683771E+04  0.7818608E-02  0.8340290E-01
         -2   -1    0    0    0  501 -0.00000000000E+00  0.00000000000E+00  0.10357028357E+04  0.10357028357E+04  0.00000000000E+00 0. -1.
          2   -1    0    0  501    0  0.00000000000E+00 -0.00000000000E+00 -0.17385839238E+04  0.17385839238E+04  0.00000000000E+00 0.  1.
         23    2    1    2    0    0  0.10934725112E+04 -0.70534854962E+03 -0.19725603718E+02  0.13046268924E+04  0.91997388575E+02 0.  0.
         11    1    3    3    0    0  0.88250788104E+03 -0.56414472530E+03 -0.52105231718E+02  0.10487108211E+04  0.00000000000E+00 0. -1.
        -11    1    3    3    0    0  0.21096463020E+03 -0.14120382432E+03  0.32379628001E+02  0.25591607122E+03  0.00000000000E+00 0.  1.
         22    1    1    2    0    0 -0.10934725112E+04  0.70534854962E+03 -0.68315548439E+03  0.14696598672E+04  0.00000000000E+00 0.  1.
<mgrwt>
<rscale>  0 0.26837707E+04</rscale>
<asrwt>0</asrwt>
<pdfrwt beam="1">  1        2 0.26747445E+00 0.26837707E+04</pdfrwt>
<pdfrwt beam="2">  1       -2 0.15933890E+00 0.26837707E+04</pdfrwt>
<totfact> 0.20891571E+00</totfact>
</mgrwt>
</event>
<event>
 6    1  0.2325157E-005  0.1451265E+04  0.7818608E-02  0.8917524E-01
          2   -1    0    0  501    0  0.00000000000E+00  0.00000000000E+00  0.15019350555E+04  0.15019350555E+04  0.00000000000E+00 0.  1.
         -2   -1    0    0    0  501 -0.00000000000E+00 -0.00000000000E+00 -0.35057597335E+03  0.35057597335E+03  0.00000000000E+00 0. -1.
         23    2    1    2    0    0 -0.29631651481E+03 -0.63892441735E+03  0.78442723694E+03  0.10583656599E+04  0.93722419365E+02 0.  0.
         13    1    3    3    0    0 -0.68473633112E+02 -0.24227127356E+03  0.24819986197E+03  0.35353525978E+03  0.00000000000E+00 0. -1.
        -13    1    3    3    0    0 -0.22784288170E+03 -0.39665314379E+03  0.53622737497E+03  0.70483040009E+03  0.00000000000E+00 0.  1.
         22    1    1    2    0    0  0.29631651481E+03  0.63892441735E+03  0.36693184520E+03  0.79414536897E+03  0.00000000000E+00 0. -1.
<mgrwt>
<rscale>  0 0.14512648E+04</rscale>
<asrwt>0</asrwt>
<pdfrwt beam="1">  1        2 0.23106693E+00 0.14512648E+04</pdfrwt>
<pdfrwt beam="2">  1       -2 0.53934766E-01 0.14512648E+04</pdfrwt>
<totfact> 0.39748111E+01</totfact>
</mgrwt>
</event>
<event>
 6    1  0.2325157E-005  0.2764082E+04  0.7818608E-02  0.8314507E-01
         -2   -1    0    0    0  501 -0.00000000000E+00  0.00000000000E+00  0.51952874256E+03  0.51952874256E+03  0.00000000000E+00 0. -1.
          2   -1    0    0  501    0  0.00000000000E+00 -0.00000000000E+00 -0.36764799699E+04  0.36764799699E+04  0.00000000000E+00 0.  1.
         23    2    1    2    0    0  0.39165851643E+03 -0.49591258596E+03  0.28311018616E+03  0.69838834783E+03  0.90935254292E+02 0.  0.
         11    1    3    3    0    0  0.10852782163E+03 -0.18813303047E+03  0.64895383814E+02  0.22667980956E+03  0.00000000000E+00 0.  1.
        -11    1    3    3    0    0  0.28313069479E+03 -0.30777955549E+03  0.21821480235E+03  0.47170853827E+03  0.00000000000E+00 0. -1.
         22    1    1    2    0    0 -0.39165851643E+03  0.49591258596E+03 -0.34400614135E+04  0.34976203646E+04  0.00000000000E+00 0.  1.
<mgrwt>
<rscale>  0 0.27640818E+04</rscale>
<asrwt>0</asrwt>
<pdfrwt beam="1">  1        2 0.56561232E+00 0.27640818E+04</pdfrwt>
<pdfrwt beam="2">  1       -2 0.79927497E-01 0.27640818E+04</pdfrwt>
<totfact> 0.73448796E-01</totfact>
</mgrwt>
</event>
<event>
 6    1  0.2325157E-005  0.1087477E+04  0.7818608E-02  0.9217484E-01
          2   -1    0    0  501    0  0.00000000000E+00  0.00000000000E+00  0.21591060388E+03  0.21591060388E+03  0.00000000000E+00 0.  1.
         -2   -1    0    0    0  501 -0.00000000000E+00 -0.00000000000E+00 -0.13693235441E+04  0.13693235441E+04  0.00000000000E+00 0. -1.
         23    2    1    2    0    0 -0.34797717926E+03  0.75129816909E+02  0.98286497896E+01  0.36873770188E+03  0.95594370955E+02 0.  0.
         13    1    3    3    0    0 -0.18413054654E+03  0.29172853369E+02  0.51757373521E+02  0.19347852402E+03  0.00000000000E+00 0. -1.
        -13    1    3    3    0    0 -0.16384663271E+03  0.45956963539E+02 -0.41928723732E+02  0.17525917786E+03  0.00000000000E+00 0.  1.
         22    1    1    2    0    0  0.34797717926E+03 -0.75129816909E+02 -0.11632415900E+04  0.12164964461E+04  0.00000000000E+00 0. -1.
<mgrwt>
<rscale>  0 0.10874768E+04</rscale>
<asrwt>0</asrwt>
<pdfrwt beam="1">  1        2 0.33217017E-01 0.10874768E+04</pdfrwt>
<pdfrwt beam="2">  1       -2 0.21066515E+00 0.10874768E+04</pdfrwt>
<totfact> 0.17892534E+01</totfact>
</mgrwt>
</event>
<event>
 6    1  0.2325157E-005  0.3193210E+04  0.7818608E-02  0.8190613E-01
          2   -1    0    0  501    0  0.00000000000E+00  0.00000000000E+00  0.21154697392E+04  0.21154697392E+04  0.00000000000E+00 0.  1.
         -2   -1    0    0    0  501 -0.00000000000E+00 -0.00000000000E+00 -0.12050031733E+04  0.12050031733E+04  0.00000000000E+00 0. -1.
         23    2    1    2    0    0 -0.77001267044E+03  0.92132751636E+03  0.15477771521E+04  0.19610875042E+04  0.92120472373E+02 0.  0.
         13    1    3    3    0    0 -0.37134442997E+03  0.50404065633E+03  0.84686763327E+03  0.10531564258E+04  0.00000000000E+00 0.  1.
        -13    1    3    3    0    0 -0.39866824046E+03  0.41728686003E+03  0.70090951887E+03  0.90793107842E+03  0.00000000000E+00 0. -1.
         22    1    1    2    0    0  0.77001267044E+03 -0.92132751636E+03 -0.63731058626E+03  0.13593854083E+04  0.00000000000E+00 0. -1.
<mgrwt>
<rscale>  0 0.31932101E+04</rscale>
<asrwt>0</asrwt>
<pdfrwt beam="1">  1        2 0.32545688E+00 0.31932101E+04</pdfrwt>
<pdfrwt beam="2">  1       -2 0.18538510E+00 0.31932101E+04</pdfrwt>
<totfact> 0.80825630E-01</totfact>
</mgrwt>
</event>
<event>
 6    1  0.2325157E-005  0.2864288E+04  0.7818608E-02  0.8283583E-01
          1   -1    0    0  501    0  0.00000000000E+00  0.00000000000E+00  0.52182751786E+03  0.52182751786E+03  0.00000000000E+00 0. -1.
         -1   -1    0    0    0  501 -0.00000000000E+00 -0.00000000000E+00 -0.39304873940E+04  0.39304873940E+04  0.00000000000E+00 0.  1.
         23    2    1    2    0    0 -0.75082086607E+03 -0.92260288192E+03 -0.29418036935E+04  0.31744719066E+04  0.90193483498E+02 0.  0.
         13    1    3    3    0    0 -0.18146801801E+03 -0.17170106463E+03 -0.57165629251E+03  0.62386121367E+03  0.00000000000E+00 0. -1.
        -13    1    3    3    0    0 -0.56935284806E+03 -0.75090181729E+03 -0.23701474010E+04  0.25506106930E+04  0.00000000000E+00 0.  1.
         22    1    1    2    0    0  0.75082086607E+03  0.92260288192E+03 -0.46685618265E+03  0.12778430052E+04  0.00000000000E+00 0.  1.
<mgrwt>
<rscale>  0 0.28642880E+04</rscale>
<asrwt>0</asrwt>
<pdfrwt beam="1">  1        1 0.80281157E-01 0.28642880E+04</pdfrwt>
<pdfrwt beam="2">  1       -1 0.60469037E+00 0.28642880E+04</pdfrwt>
<totfact> 0.14995217E-02</totfact>
</mgrwt>
</event>
<event>
 6    1  0.2325157E-005  0.1431949E+04  0.7818608E-02  0.8931011E-01
          2   -1    0    0  501    0  0.00000000000E+00  0.00000000000E+00  0.47133611613E+03  0.47133611613E+03  0.00000000000E+00 0.  1.
         -2   -1    0    0    0  501 -0.00000000000E+00 -0.00000000000E+00 -0.10875879273E+04  0.10875879273E+04  0.00000000000E+00 0. -1.
         23    2    1    2    0    0  0.52106261471E+03  0.33486235589E+03 -0.69446719250E+03  0.93461907650E+03  0.87115388173E+02 0.  0.
         13    1    3    3    0    0  0.25136146702E+03  0.11127380137E+03 -0.31882881109E+03  0.42097061269E+03  0.00000000000E+00 0.  1.
        -13    1    3    3    0    0  0.26970114770E+03  0.22358855452E+03 -0.37563838141E+03  0.51364846381E+03  0.00000000000E+00 0. -1.
         22    1    1    2    0    0 -0.52106261471E+03 -0.33486235589E+03  0.78215381335E+02  0.62430496692E+03  0.00000000000E+00 0.  1.
<mgrwt>
<rscale>  0 0.14319490E+04</rscale>
<asrwt>0</asrwt>
<pdfrwt beam="1">  1        2 0.72513248E-01 0.14319490E+04</pdfrwt>
<pdfrwt beam="2">  1       -2 0.16732122E+00 0.14319490E+04</pdfrwt>
<totfact> 0.14247734E+01</totfact>
</mgrwt>
</event>
<event>
 6    1  0.2325157E-005  0.9842854E+03  0.7818608E-02  0.9325950E-01
         -2   -1    0    0    0  501 -0.00000000000E+00  0.00000000000E+00  0.23548017581E+03  0.23548017581E+03  0.00000000000E+00 0. -1.
          2   -1    0    0  501    0  0.00000000000E+00 -0.00000000000E+00 -0.10285555763E+04  0.10285555763E+04  0.00000000000E+00 0.  1.
         23    2    1    2    0    0 -0.14807554317E+03  0.18684708910E+03 -0.94665303203E+03  0.98044398550E+03  0.90995848614E+02 0.  0.
         11    1    3    3    0    0 -0.10269411078E+03  0.64926402015E+02 -0.37567506003E+03  0.39483321642E+03  0.00000000000E+00 0. -1.
        -11    1    3    3    0    0 -0.45381432396E+02  0.12192068709E+03 -0.57097797200E+03  0.58561076908E+03  0.00000000000E+00 0.  1.
         22    1    1    2    0    0  0.14807554317E+03 -0.18684708910E+03  0.15357763152E+03  0.28359176662E+03  0.00000000000E+00 0. -1.
<mgrwt>
<rscale>  0 0.98428542E+03</rscale>
<asrwt>0</asrwt>
<pdfrwt beam="1">  1        2 0.15823932E+00 0.98428542E+03</pdfrwt>
<pdfrwt beam="2">  1       -2 0.36227718E-01 0.98428542E+03</pdfrwt>
<totfact> 0.17280847E+02</totfact>
</mgrwt>
</event>
<event>
 6    1  0.2325157E-005  0.5220344E+03  0.7818608E-02  0.1008182E+00
         -1   -1    0    0    0  501 -0.00000000000E+00  0.00000000000E+00  0.62416923829E+02  0.62416923829E+02  0.00000000000E+00 0.  1.
          1   -1    0    0  501    0  0.00000000000E+00 -0.00000000000E+00 -0.10915306739E+04  0.10915306739E+04  0.00000000000E+00 0. -1.
         23    2    1    2    0    0 -0.33338955291E+02 -0.48623955329E+02 -0.10742790250E+04  0.10796799936E+04  0.90319931371E+02 0.  0.
         13    1    3    3    0    0 -0.45539021244E+02 -0.16336305438E+02 -0.24769767992E+03  0.25237832309E+03  0.00000000000E+00 0. -1.
        -13    1    3    3    0    0  0.12200065953E+02 -0.32287649891E+02 -0.82658134509E+03  0.82730167049E+03  0.00000000000E+00 0.  1.
         22    1    1    2    0    0  0.33338955291E+02  0.48623955329E+02  0.45165274909E+02  0.74267604171E+02  0.00000000000E+00 0.  1.
<mgrwt>
<rscale>  0 0.52203443E+03</rscale>
<asrwt>0</asrwt>
<pdfrwt beam="1">  1        1 0.16792777E+00 0.52203443E+03</pdfrwt>
<pdfrwt beam="2">  1       -1 0.96026053E-02 0.52203443E+03</pdfrwt>
<totfact> 0.88040851E+02</totfact>
</mgrwt>
</event>
<event>
 6    1  0.2325157E-005  0.3616541E+04  0.7818608E-02  0.8086713E-01
          2   -1    0    0  501    0  0.00000000000E+00  0.00000000000E+00  0.21871938145E+04  0.21871938145E+04  0.00000000000E+00 0.  1.
         -2   -1    0    0    0  501 -0.00000000000E+00 -0.00000000000E+00 -0.14949945359E+04  0.14949945359E+04  0.00000000000E+00 0. -1.
         23    2    1    2    0    0 -0.15076188343E+04  0.94435258611E+02  0.13566774499E+04  0.20319266112E+04  0.79495174025E+02 0.  0.
         11    1    3    3    0    0 -0.14827278314E+04  0.88965211072E+02  0.13451632272E+04  0.20039612618E+04  0.00000000000E+00 0. -1.
        -11    1    3    3    0    0 -0.24891002882E+02  0.54700475392E+01  0.11514222634E+02  0.27965349407E+02  0.00000000000E+00 0.  1.
         22    1    1    2    0    0  0.15076188343E+04 -0.94435258611E+02 -0.66447817132E+03  0.16502617392E+04  0.00000000000E+00 0. -1.
<mgrwt>
<rscale>  0 0.36165413E+04</rscale>
<asrwt>0</asrwt>
<pdfrwt beam="1">  1        2 0.33649136E+00 0.36165413E+04</pdfrwt>
<pdfrwt beam="2">  1       -2 0.22999916E+00 0.36165413E+04</pdfrwt>
<totfact> 0.36538627E-01</totfact>
</mgrwt>
</event>
<event>
 6    1  0.2325157E-005  0.1342622E+04  0.7818608E-02  0.8996432E-01
          2   -1    0    0  501    0  0.00000000000E+00  0.00000000000E+00  0.12396972096E+04  0.12396972096E+04  0.00000000000E+00 0.  1.
         -2   -1    0    0    0  501 -0.00000000000E+00 -0.00000000000E+00 -0.36352319383E+03  0.36352319383E+03  0.00000000000E+00 0. -1.
         23    2    1    2    0    0 -0.37315306097E+02  0.63227037060E+03  0.69437701162E+03  0.94427548593E+03  0.91315417349E+02 0.  0.
         11    1    3    3    0    0  0.38618978358E+01  0.22031325940E+03  0.18382694775E+03  0.28695852182E+03  0.00000000000E+00 0. -1.
        -11    1    3    3    0    0 -0.41177203933E+02  0.41195711120E+03  0.51055006387E+03  0.65731696411E+03  0.00000000000E+00 0.  1.
         22    1    1    2    0    0  0.37315306097E+02 -0.63227037060E+03  0.18179700417E+03  0.65894491753E+03  0.00000000000E+00 0. -1.
<mgrwt>
<rscale>  0 0.13426223E+04</rscale>
<asrwt>0</asrwt>
<pdfrwt beam="1">  1        2 0.19072264E+00 0.13426223E+04</pdfrwt>
<pdfrwt beam="2">  1       -2 0.55926646E-01 0.13426223E+04</pdfrwt>
<totfact> 0.52629167E+01</totfact>
</mgrwt>
</event>
<event>
 6    1  0.2325157E-005  0.1576922E+04  0.7818608E-02  0.8834852E-01
          2   -1    0    0  501    0  0.00000000000E+00  0.00000000000E+00  0.15238669620E+04  0.15238669620E+04  0.00000000000E+00 0. -1.
         -2   -1    0    0    0  501 -0.00000000000E+00 -0.00000000000E+00 -0.40795610771E+03  0.40795610771E+03  0.00000000000E+00 0.  1.
         23    2    1    2    0    0  0.73798730409E+03 -0.14497101636E+03  0.28152388803E+03  0.80850500878E+03  0.93716557270E+02 0.  0.
         13    1    3    3    0    0  0.46399783420E+03 -0.95880713903E+02  0.12874501394E+03  0.49098103839E+03  0.00000000000E+00 0.  1.
        -13    1    3    3    0    0  0.27398946988E+03 -0.49090302461E+02  0.15277887408E+03  0.31752397038E+03  0.00000000000E+00 0. -1.
         22    1    1    2    0    0 -0.73798730409E+03  0.14497101636E+03  0.83438696629E+03  0.11233180610E+04  0.00000000000E+00 0.  1.
<mgrwt>
<rscale>  0 0.15769221E+04</rscale>
<asrwt>0</asrwt>
<pdfrwt beam="1">  1        2 0.23444107E+00 0.15769221E+04</pdfrwt>
<pdfrwt beam="2">  1       -2 0.62762479E-01 0.15769221E+04</pdfrwt>
<totfact> 0.27818276E+01</totfact>
</mgrwt>
</event>
<event>
 6    1  0.2325157E-005  0.3323862E+04  0.7818608E-02  0.8156850E-01
          1   -1    0    0  501    0  0.00000000000E+00  0.00000000000E+00  0.35918929727E+04  0.35918929727E+04  0.00000000000E+00 0.  1.
         -1   -1    0    0    0  501 -0.00000000000E+00 -0.00000000000E+00 -0.76895792228E+03  0.76895792228E+03  0.00000000000E+00 0. -1.
         23    2    1    2    0    0  0.11164162129E+04 -0.12239040019E+04  0.12578945778E+04  0.20818866901E+04  0.87334160066E+02 0.  0.
         13    1    3    3    0    0  0.30792623771E+03 -0.28332942403E+03  0.33001237583E+03  0.53291866039E+03  0.00000000000E+00 0. -1.
        -13    1    3    3    0    0  0.80848997516E+03 -0.94057457782E+03  0.92788220202E+03  0.15489680297E+04  0.00000000000E+00 0.  1.
         22    1    1    2    0    0 -0.11164162129E+04  0.12239040019E+04  0.15650404725E+04  0.22789642048E+04  0.00000000000E+00 0.  1.
<mgrwt>
<rscale>  0 0.33238619E+04</rscale>
<asrwt>0</asrwt>
<pdfrwt beam="1">  1        1 0.55259891E+00 0.33238619E+04</pdfrwt>
<pdfrwt beam="2">  1       -1 0.11830122E+00 0.33238619E+04</pdfrwt>
<totfact> 0.11191065E-01</totfact>
</mgrwt>
</event>
<event>
 6    1  0.2325157E-005  0.1082183E+04  0.7818608E-02  0.9222734E-01
          2   -1    0    0  501    0  0.00000000000E+00  0.00000000000E+00  0.68074607151E+03  0.68074607151E+03  0.00000000000E+00 0.  1.
         -2   -1    0    0    0  501 -0.00000000000E+00 -0.00000000000E+00 -0.43008684945E+03  0.43008684945E+03  0.00000000000E+00 0. -1.
         23    2    1    2    0    0  0.22230940524E+03 -0.46816874151E+03 -0.18560080112E+02  0.52681025458E+03  0.92634364942E+02 0.  0.
         13    1    3    3    0    0  0.19273771232E+03 -0.33370789843E+03  0.12911749159E+02  0.38558462170E+03  0.00000000000E+00 0.  1.
        -13    1    3    3    0    0  0.29571692922E+02 -0.13446084308E+03 -0.31471829271E+02  0.14122563288E+03  0.00000000000E+00 0. -1.
         22    1    1    2    0    0 -0.22230940524E+03  0.46816874151E+03  0.26921930217E+03  0.58402266638E+03  0.00000000000E+00 0.  1.
<mgrwt>
<rscale>  0 0.10821829E+04</rscale>
<asrwt>0</asrwt>
<pdfrwt beam="1">  1        2 0.10473017E+00 0.10821829E+04</pdfrwt>
<pdfrwt beam="2">  1       -2 0.66167207E-01 0.10821829E+04</pdfrwt>
<totfact> 0.88676194E+01</totfact>
</mgrwt>
</event>
<event>
 6    1  0.2325157E-005  0.2367296E+04  0.7818608E-02  0.8451850E-01
          2   -1    0    0  501    0  0.00000000000E+00  0.00000000000E+00  0.49624138727E+03  0.49624138727E+03  0.00000000000E+00 0.  1.
         -2   -1    0    0    0  501 -0.00000000000E+00 -0.00000000000E+00 -0.28232683991E+04  0.28232683991E+04  0.00000000000E+00 0. -1.
         23    2    1    2    0    0  0.57295422927E+03  0.10222044820E+04 -0.13798776025E+04  0.18127680848E+04  0.94272898195E+02 0.  0.
         11    1    3    3    0    0  0.14181552050E+03  0.34221193938E+03 -0.42905786482E+03  0.56684328052E+03  0.00000000000E+00 0. -1.
        -11    1    3    3    0    0  0.43113870877E+03  0.67999254261E+03 -0.95081973772E+03  0.12459248042E+04  0.00000000000E+00 0.  1.
         22    1    1    2    0    0 -0.57295422927E+03 -0.10222044820E+04 -0.94714940930E+03  0.15067417016E+04  0.00000000000E+00 0.  1.
<mgrwt>
<rscale>  0 0.23672960E+04</rscale>
<asrwt>0</asrwt>
<pdfrwt beam="1">  1        2 0.76344828E-01 0.23672960E+04</pdfrwt>
<pdfrwt beam="2">  1       -2 0.43434899E+00 0.23672960E+04</pdfrwt>
<totfact> 0.24684245E-01</totfact>
</mgrwt>
</event>
<event>
 6    1  0.2325157E-005  0.2331489E+04  0.7818608E-02  0.8465608E-01
          2   -1    0    0  501    0  0.00000000000E+00  0.00000000000E+00  0.12314653890E+04  0.12314653890E+04  0.00000000000E+00 0.  1.
         -2   -1    0    0    0  501 -0.00000000000E+00 -0.00000000000E+00 -0.11035312372E+04  0.11035312372E+04  0.00000000000E+00 0. -1.
         23    2    1    2    0    0 -0.14254140524E+03 -0.80527649061E+03  0.89351141489E+03  0.12147748517E+04  0.92341827656E+02 0.  0.
         13    1    3    3    0    0 -0.73976897236E+02 -0.21050804036E+03  0.27179625872E+03  0.35165241736E+03  0.00000000000E+00 0. -1.
        -13    1    3    3    0    0 -0.68564508005E+02 -0.59476845025E+03  0.62171515617E+03  0.86312243430E+03  0.00000000000E+00 0.  1.
         22    1    1    2    0    0  0.14254140524E+03  0.80527649061E+03 -0.76557726305E+03  0.11202217746E+04  0.00000000000E+00 0. -1.
<mgrwt>
<rscale>  0 0.23314892E+04</rscale>
<asrwt>0</asrwt>
<pdfrwt beam="1">  1        2 0.18945621E+00 0.23314892E+04</pdfrwt>
<pdfrwt beam="2">  1       -2 0.16977404E+00 0.23314892E+04</pdfrwt>
<totfact> 0.35094019E+00</totfact>
</mgrwt>
</event>
<event>
 6    1  0.2325157E-005  0.8066585E+03  0.7818608E-02  0.9550429E-01
         -2   -1    0    0    0  501 -0.00000000000E+00  0.00000000000E+00  0.40027996415E+03  0.40027996415E+03  0.00000000000E+00 0. -1.
          2   -1    0    0  501    0  0.00000000000E+00 -0.00000000000E+00 -0.40640172220E+03  0.40640172220E+03  0.00000000000E+00 0.  1.
         23    2    1    2    0    0  0.75180891341E+01  0.39523826255E+03 -0.40493083676E+02  0.40988048439E+03  0.10046151410E+03 0.  0.
         11    1    3    3    0    0 -0.49435898747E+01  0.66802877930E+02 -0.45833995397E+02  0.81165378793E+02  0.00000000000E+00 0.  1.
        -11    1    3    3    0    0  0.12461679009E+02  0.32843538462E+03  0.53409117210E+01  0.32871510560E+03  0.00000000000E+00 0. -1.
         22    1    1    2    0    0 -0.75180891341E+01 -0.39523826255E+03  0.34371325624E+02  0.39680120195E+03  0.00000000000E+00 0. -1.
<mgrwt>
<rscale>  0 0.80665846E+03</rscale>
<asrwt>0</asrwt>
<pdfrwt beam="1">  1        2 0.62523342E-01 0.80665846E+03</pdfrwt>
<pdfrwt beam="2">  1       -2 0.61581533E-01 0.80665846E+03</pdfrwt>
<totfact> 0.19284451E+02</totfact>
</mgrwt>
</event>
<event>
 6    1  0.2325157E-005  0.2108335E+04  0.7818608E-02  0.8557580E-01
         -2   -1    0    0    0  501 -0.00000000000E+00  0.00000000000E+00  0.13338654167E+04  0.13338654167E+04  0.00000000000E+00 0. -1.
          2   -1    0    0  501    0  0.00000000000E+00 -0.00000000000E+00 -0.83311967783E+03  0.83311967783E+03  0.00000000000E+00 0.  1.
         23    2    1    2    0    0  0.88661975766E+03  0.53285680836E+03  0.44878767469E+03  0.11312580005E+04  0.91122520728E+02 0.  0.
         13    1    3    3    0    0  0.38515357239E+03  0.28241330164E+03  0.19285444542E+03  0.51506638833E+03  0.00000000000E+00 0.  1.
        -13    1    3    3    0    0  0.50146618527E+03  0.25044350672E+03  0.25593322927E+03  0.61619161214E+03  0.00000000000E+00 0. -1.
         22    1    1    2    0    0 -0.88661975766E+03 -0.53285680836E+03  0.51958064160E+02  0.10357270940E+04  0.00000000000E+00 0.  1.
<mgrwt>
<rscale>  0 0.21083354E+04</rscale>
<asrwt>0</asrwt>
<pdfrwt beam="1">  1        2 0.12817226E+00 0.21083354E+04</pdfrwt>
<pdfrwt beam="2">  1       -2 0.20521006E+00 0.21083354E+04</pdfrwt>
<totfact> 0.36922901E+00</totfact>
</mgrwt>
</event>
<event>
 6    1  0.2325157E-005  0.1748727E+04  0.7818608E-02  0.8734052E-01
         -2   -1    0    0    0  501 -0.00000000000E+00  0.00000000000E+00  0.37049871303E+03  0.37049871303E+03  0.00000000000E+00 0. -1.
          2   -1    0    0  501    0  0.00000000000E+00 -0.00000000000E+00 -0.20634649765E+04  0.20634649765E+04  0.00000000000E+00 0.  1.
         23    2    1    2    0    0 -0.56196143758E+03  0.12833925446E+03 -0.17594899173E+04  0.18537076959E+04  0.90309641582E+02 0.  0.
         13    1    3    3    0    0 -0.50362017289E+02  0.15382233077E+01 -0.24480154916E+03  0.24993298580E+03  0.00000000000E+00 0. -1.
        -13    1    3    3    0    0 -0.51159942029E+03  0.12680103115E+03 -0.15146883681E+04  0.16037747101E+04  0.00000000000E+00 0.  1.
         22    1    1    2    0    0  0.56196143758E+03 -0.12833925446E+03  0.66523653831E+02  0.58025599358E+03  0.00000000000E+00 0. -1.
<mgrwt>
<rscale>  0 0.17487265E+04</rscale>
<asrwt>0</asrwt>
<pdfrwt beam="1">  1        2 0.31745615E+00 0.17487265E+04</pdfrwt>
<pdfrwt beam="2">  1       -2 0.56999803E-01 0.17487265E+04</pdfrwt>
<totfact> 0.16847163E+01</totfact>
</mgrwt>
</event>
<event>
 6    1  0.2325157E-005  0.1470157E+04  0.7818608E-02  0.8904544E-01
          2   -1    0    0  501    0  0.00000000000E+00  0.00000000000E+00  0.14435663490E+04  0.14435663490E+04  0.00000000000E+00 0.  1.
         -2   -1    0    0    0  501 -0.00000000000E+00 -0.00000000000E+00 -0.37430942127E+03  0.37430942127E+03  0.00000000000E+00 0. -1.
         23    2    1    2    0    0  0.32572442996E+03 -0.41893558865E+03 -0.87220961368E+02  0.54545895974E+03  0.91184148548E+02 0.  0.
         13    1    3    3    0    0  0.16923545830E+03 -0.23348836115E+03 -0.92217669562E+02  0.30275659154E+03  0.00000000000E+00 0. -1.
        -13    1    3    3    0    0  0.15648897166E+03 -0.18544722750E+03  0.49967081945E+01  0.24270236820E+03  0.00000000000E+00 0.  1.
         22    1    1    2    0    0 -0.32572442996E+03  0.41893558865E+03  0.11564778891E+04  0.12724168105E+04  0.00000000000E+00 0.  1.
<mgrwt>
<rscale>  0 0.14701571E+04</rscale>
<asrwt>0</asrwt>
<pdfrwt beam="1">  1        2 0.22208713E+00 0.14701571E+04</pdfrwt>
<pdfrwt beam="2">  1       -2 0.57586066E-01 0.14701571E+04</pdfrwt>
<totfact> 0.37364660E+01</totfact>
</mgrwt>
</event>
<event>
 6    1  0.2325157E-005  0.2076272E+04  0.7818608E-02  0.8571768E-01
          2   -1    0    0  501    0  0.00000000000E+00  0.00000000000E+00  0.97018759906E+03  0.97018759906E+03  0.00000000000E+00 0.  1.
         -2   -1    0    0    0  501 -0.00000000000E+00 -0.00000000000E+00 -0.11108434259E+04  0.11108434259E+04  0.00000000000E+00 0. -1.
         23    2    1    2    0    0  0.58511413926E+03 -0.50918903819E+03  0.61798695784E+03  0.99605595276E+03  0.92669026107E+02 0.  0.
         13    1    3    3    0    0  0.35417563679E+03 -0.33789569382E+03  0.33905133619E+03  0.59545754691E+03  0.00000000000E+00 0.  1.
        -13    1    3    3    0    0  0.23093850247E+03 -0.17129334437E+03  0.27893562165E+03  0.40059840586E+03  0.00000000000E+00 0. -1.
         22    1    1    2    0    0 -0.58511413926E+03  0.50918903819E+03 -0.75864278472E+03  0.10849750722E+04  0.00000000000E+00 0. -1.
<mgrwt>
<rscale>  0 0.20762722E+04</rscale>
<asrwt>0</asrwt>
<pdfrwt beam="1">  1        2 0.14925963E+00 0.20762722E+04</pdfrwt>
<pdfrwt beam="2">  1       -2 0.17089899E+00 0.20762722E+04</pdfrwt>
<totfact> 0.51055487E+00</totfact>
</mgrwt>
</event>
<event>
 6    1  0.2325157E-005  0.3752625E+04  0.7818608E-02  0.8056399E-01
         -2   -1    0    0    0  501 -0.00000000000E+00  0.00000000000E+00  0.13478156151E+04  0.13478156151E+04  0.00000000000E+00 0. -1.
          2   -1    0    0  501    0  0.00000000000E+00 -0.00000000000E+00 -0.26120397518E+04  0.26120397518E+04  0.00000000000E+00 0.  1.
         23    2    1    2    0    0  0.17874439279E+03  0.12420957624E+04 -0.21030316374E+04  0.24504351258E+04  0.84491399081E+02 0.  0.
         13    1    3    3    0    0  0.11936001525E+03  0.93877594046E+03 -0.15191704394E+04  0.17898116950E+04  0.00000000000E+00 0.  1.
        -13    1    3    3    0    0  0.59384377534E+02  0.30331982196E+03 -0.58386119804E+03  0.66062343076E+03  0.00000000000E+00 0. -1.
         22    1    1    2    0    0 -0.17874439279E+03 -0.12420957624E+04  0.83880750071E+03  0.15094202411E+04  0.00000000000E+00 0. -1.
<mgrwt>
<rscale>  0 0.37526247E+04</rscale>
<asrwt>0</asrwt>
<pdfrwt beam="1">  1        2 0.40185226E+00 0.37526247E+04</pdfrwt>
<pdfrwt beam="2">  1       -2 0.20735625E+00 0.37526247E+04</pdfrwt>
<totfact> 0.28697772E-01</totfact>
</mgrwt>
</event>
<event>
 6    1  0.2325157E-005  0.1561039E+04  0.7818608E-02  0.8844847E-01
         -2   -1    0    0    0  501 -0.00000000000E+00  0.00000000000E+00  0.30088217486E+03  0.30088217486E+03  0.00000000000E+00 0. -1.
          2   -1    0    0  501    0  0.00000000000E+00 -0.00000000000E+00 -0.20247495931E+04  0.20247495931E+04  0.00000000000E+00 0.  1.
         23    2    1    2    0    0  0.64944221062E+03 -0.30610281597E+03 -0.41932967324E+03  0.83657406356E+03  0.92437384657E+02 0.  0.
         11    1    3    3    0    0  0.50720644656E+02 -0.60442942855E+01 -0.51367896727E+02  0.72441549555E+02  0.00000000000E+00 0.  1.
        -11    1    3    3    0    0  0.59872156596E+03 -0.30005852169E+03 -0.36796177652E+03  0.76413251401E+03  0.00000000000E+00 0. -1.
         22    1    1    2    0    0 -0.64944221062E+03  0.30610281597E+03 -0.13045377450E+04  0.14890577044E+04  0.00000000000E+00 0.  1.
<mgrwt>
<rscale>  0 0.15610395E+04</rscale>
<asrwt>0</asrwt>
<pdfrwt beam="1">  1        2 0.31149993E+00 0.15610395E+04</pdfrwt>
<pdfrwt beam="2">  1       -2 0.46289566E-01 0.15610395E+04</pdfrwt>
<totfact> 0.27554380E+01</totfact>
</mgrwt>
</event>
<event>
 6    1  0.2325157E-005  0.3581496E+04  0.7818608E-02  0.8094743E-01
         -2   -1    0    0    0  501 -0.00000000000E+00  0.00000000000E+00  0.15305133540E+04  0.15305133540E+04  0.00000000000E+00 0. -1.
          2   -1    0    0  501    0  0.00000000000E+00 -0.00000000000E+00 -0.20952305097E+04  0.20952305097E+04  0.00000000000E+00 0.  1.
         23    2    1    2    0    0  0.40453703131E+03 -0.92670899899E+03  0.12121786114E+04  0.15812883505E+04  0.93038073320E+02 0.  0.
         11    1    3    3    0    0  0.18929641402E+03 -0.46360348490E+03  0.53019942962E+03  0.72929607070E+03  0.00000000000E+00 0. -1.
        -11    1    3    3    0    0  0.21524061729E+03 -0.46310551409E+03  0.68197918177E+03  0.85199227983E+03  0.00000000000E+00 0.  1.
         22    1    1    2    0    0 -0.40453703131E+03  0.92670899899E+03 -0.17768957671E+04  0.20444555132E+04  0.00000000000E+00 0.  1.
<mgrwt>
<rscale>  0 0.35814959E+04</rscale>
<asrwt>0</asrwt>
<pdfrwt beam="1">  1        2 0.32234315E+00 0.35814959E+04</pdfrwt>
<pdfrwt beam="2">  1       -2 0.23546359E+00 0.35814959E+04</pdfrwt>
<totfact> 0.38145442E-01</totfact>
</mgrwt>
</event>
<event>
 6    1  0.2325157E-005  0.2592639E+04  0.7818608E-02  0.8370706E-01
         -2   -1    0    0    0  501 -0.00000000000E+00  0.00000000000E+00  0.75181818879E+03  0.75181818879E+03  0.00000000000E+00 0. -1.
          2   -1    0    0  501    0  0.00000000000E+00 -0.00000000000E+00 -0.22351742209E+04  0.22351742209E+04  0.00000000000E+00 0.  1.
         23    2    1    2    0    0 -0.98272286977E+03  0.74024232891E+03 -0.27795234918E+03  0.12645810235E+04  0.90579867686E+02 0.  0.
         13    1    3    3    0    0 -0.70908073189E+03  0.56876564486E+03 -0.23428271430E+03  0.93871094237E+03  0.00000000000E+00 0.  1.
        -13    1    3    3    0    0 -0.27364213788E+03  0.17147668405E+03 -0.43669634885E+02  0.32587008118E+03  0.00000000000E+00 0. -1.
         22    1    1    2    0    0  0.98272286977E+03 -0.74024232891E+03 -0.12054036829E+04  0.17224113861E+04  0.00000000000E+00 0. -1.
<mgrwt>
<rscale>  0 0.25926393E+04</rscale>
<asrwt>0</asrwt>
<pdfrwt beam="1">  1        2 0.34387296E+00 0.25926393E+04</pdfrwt>
<pdfrwt beam="2">  1       -2 0.11566434E+00 0.25926393E+04</pdfrwt>
<totfact> 0.25383918E+00</totfact>
</mgrwt>
</event>
<event>
 6    1  0.2325157E-005  0.6284613E+03  0.7818608E-02  0.9848056E-01
          2   -1    0    0  501    0  0.00000000000E+00  0.00000000000E+00  0.85331951982E+03  0.85331951982E+03  0.00000000000E+00 0.  1.
         -2   -1    0    0    0  501 -0.00000000000E+00 -0.00000000000E+00 -0.11571386252E+03  0.11571386252E+03  0.00000000000E+00 0. -1.
         23    2    1    2    0    0 -0.70549729641E+02 -0.19276840460E+03  0.21675374605E+02  0.22425617281E+03  0.87658924327E+02 0.  0.
         11    1    3    3    0    0 -0.37957362807E+02 -0.18475779011E+03  0.26061125192E+02  0.19040846789E+03  0.00000000000E+00 0.  1.
        -11    1    3    3    0    0 -0.32592366834E+02 -0.80106144946E+01 -0.43857505868E+01  0.33847704924E+02  0.00000000000E+00 0. -1.
         22    1    1    2    0    0  0.70549729641E+02  0.19276840460E+03  0.71593028269E+03  0.74477720953E+03  0.00000000000E+00 0.  1.
<mgrwt>
<rscale>  0 0.62846129E+03</rscale>
<asrwt>0</asrwt>
<pdfrwt beam="1">  1        2 0.13127992E+00 0.62846129E+03</pdfrwt>
<pdfrwt beam="2">  1       -2 0.17802133E-01 0.62846129E+03</pdfrwt>
<totfact> 0.83025576E+02</totfact>
</mgrwt>
</event>
<event>
 6    1  0.2325157E-005  0.4826478E+04  0.7818608E-02  0.7855847E-01
          2   -1    0    0  501    0  0.00000000000E+00  0.00000000000E+00  0.23383160696E+04  0.23383160696E+04  0.00000000000E+00 0.  1.
         -2   -1    0    0    0  501 -0.00000000000E+00 -0.00000000000E+00 -0.24905629587E+04  0.24905629587E+04  0.00000000000E+00 0. -1.
         23    2    1    2    0    0  0.16733655280E+04  0.11873954745E+04  0.11930527636E+04  0.23753323386E+04  0.93640902977E+02 0.  0.
         11    1    3    3    0    0  0.74451571007E+03  0.58513283613E+03  0.55640409851E+03  0.10983030544E+04  0.00000000000E+00 0.  1.
        -11    1    3    3    0    0  0.92884981795E+03  0.60226263834E+03  0.63664866510E+03  0.12770292842E+04  0.00000000000E+00 0. -1.
         22    1    1    2    0    0 -0.16733655280E+04 -0.11873954745E+04 -0.13452996527E+04  0.24535466897E+04  0.00000000000E+00 0. -1.
<mgrwt>
<rscale>  0 0.48264784E+04</rscale>
<asrwt>0</asrwt>
<pdfrwt beam="1">  1        2 0.35974094E+00 0.48264784E+04</pdfrwt>
<pdfrwt beam="2">  1       -2 0.38316353E+00 0.48264784E+04</pdfrwt>
<totfact> 0.30407965E-02</totfact>
</mgrwt>
</event>
<event>
 6    1  0.2325157E-005  0.2896095E+04  0.7818608E-02  0.8274040E-01
          2   -1    0    0  501    0  0.00000000000E+00  0.00000000000E+00  0.15369349225E+04  0.15369349225E+04  0.00000000000E+00 0.  1.
         -2   -1    0    0    0  501 -0.00000000000E+00 -0.00000000000E+00 -0.13643004269E+04  0.13643004269E+04  0.00000000000E+00 0. -1.
         23    2    1    2    0    0 -0.12771092555E+04  0.40882923952E+03  0.62972082811E+03  0.14845217887E+04  0.95431767413E+02 0.  0.
         11    1    3    3    0    0 -0.61816220150E+03  0.14794787456E+03  0.30086098399E+03  0.70322856358E+03  0.00000000000E+00 0. -1.
        -11    1    3    3    0    0 -0.65894705402E+03  0.26088136496E+03  0.32885984412E+03  0.78129322515E+03  0.00000000000E+00 0.  1.
         22    1    1    2    0    0  0.12771092555E+04 -0.40882923952E+03 -0.45708633250E+03  0.14167135607E+04  0.00000000000E+00 0. -1.
<mgrwt>
<rscale>  0 0.28960946E+04</rscale>
<asrwt>0</asrwt>
<pdfrwt beam="1">  1        2 0.23645153E+00 0.28960946E+04</pdfrwt>
<pdfrwt beam="2">  1       -2 0.20989237E+00 0.28960946E+04</pdfrwt>
<totfact> 0.11981537E+00</totfact>
</mgrwt>
</event>
<event>
 6    1  0.2325157E-005  0.3362271E+04  0.7818608E-02  0.8147229E-01
         -2   -1    0    0    0  501 -0.00000000000E+00  0.00000000000E+00  0.25383659086E+04  0.25383659086E+04  0.00000000000E+00 0. -1.
          2   -1    0    0  501    0  0.00000000000E+00 -0.00000000000E+00 -0.11134000787E+04  0.11134000787E+04  0.00000000000E+00 0.  1.
         23    2    1    2    0    0  0.67989445507E+03 -0.15353827631E+04  0.76547587052E+03  0.18477195063E+04  0.91963939649E+02 0.  0.
         13    1    3    3    0    0  0.15264368580E+03 -0.38619442829E+03  0.15022145514E+03  0.44160244207E+03  0.00000000000E+00 0.  1.
        -13    1    3    3    0    0  0.52725076928E+03 -0.11491883348E+04  0.61525441538E+03  0.14061170642E+04  0.00000000000E+00 0. -1.
         22    1    1    2    0    0 -0.67989445507E+03  0.15353827631E+04  0.65948995937E+03  0.18040464811E+04  0.00000000000E+00 0. -1.
<mgrwt>
<rscale>  0 0.33622711E+04</rscale>
<asrwt>0</asrwt>
<pdfrwt beam="1">  1        2 0.17129232E+00 0.33622711E+04</pdfrwt>
<pdfrwt beam="2">  1       -2 0.39051783E+00 0.33622711E+04</pdfrwt>
<totfact> 0.15189848E-01</totfact>
</mgrwt>
</event>
<event>
 6    1  0.2325157E-005  0.2657462E+04  0.7818608E-02  0.8348940E-01
         -2   -1    0    0    0  501 -0.00000000000E+00  0.00000000000E+00  0.95030061641E+03  0.95030061641E+03  0.00000000000E+00 0. -1.
          2   -1    0    0  501    0  0.00000000000E+00 -0.00000000000E+00 -0.18578605879E+04  0.18578605879E+04  0.00000000000E+00 0.  1.
         23    2    1    2    0    0 -0.83910853979E+03  0.89428240412E+03  0.81569736850E+02  0.12326543843E+04  0.94546545998E+02 0.  0.
         11    1    3    3    0    0 -0.48177871027E+03  0.53461588841E+03  0.92168083655E+02  0.72554795118E+03  0.00000000000E+00 0. -1.
        -11    1    3    3    0    0 -0.35732982952E+03  0.35966651571E+03 -0.10598346804E+02  0.50710643315E+03  0.00000000000E+00 0.  1.
         22    1    1    2    0    0  0.83910853979E+03 -0.89428240412E+03 -0.98912970833E+03  0.15755068200E+04  0.00000000000E+00 0.  1.
<mgrwt>
<rscale>  0 0.26574620E+04</rscale>
<asrwt>0</asrwt>
<pdfrwt beam="1">  1        2 0.28582470E+00 0.26574620E+04</pdfrwt>
<pdfrwt beam="2">  1       -2 0.14620010E+00 0.26574620E+04</pdfrwt>
<totfact> 0.22624502E+00</totfact>
</mgrwt>
</event>
<event>
 6    1  0.2325157E-005  0.8809358E+03  0.7818608E-02  0.9449731E-01
          2   -1    0    0  501    0  0.00000000000E+00  0.00000000000E+00  0.17206606472E+04  0.17206606472E+04  0.00000000000E+00 0.  1.
         -2   -1    0    0    0  501 -0.00000000000E+00 -0.00000000000E+00 -0.11275434979E+03  0.11275434979E+03  0.00000000000E+00 0. -1.
         23    2    1    2    0    0 -0.20594164547E+03  0.26227258721E+03  0.13961435325E+04  0.14383930483E+04  0.92514468174E+02 0.  0.
         11    1    3    3    0    0 -0.92785800685E+02  0.57244920674E+02  0.36172402498E+03  0.37779684488E+03  0.00000000000E+00 0.  1.
        -11    1    3    3    0    0 -0.11315584478E+03  0.20502766654E+03  0.10344195075E+04  0.10605962034E+04  0.00000000000E+00 0. -1.
         22    1    1    2    0    0  0.20594164547E+03 -0.26227258721E+03  0.21176276497E+03  0.39502194872E+03  0.00000000000E+00 0. -1.
<mgrwt>
<rscale>  0 0.88093580E+03</rscale>
<asrwt>0</asrwt>
<pdfrwt beam="1">  1        2 0.26471700E+00 0.88093580E+03</pdfrwt>
<pdfrwt beam="2">  1       -2 0.17346824E-01 0.88093580E+03</pdfrwt>
<totfact> 0.26320258E+02</totfact>
</mgrwt>
</event>
<event>
 6    1  0.2325157E-005  0.4265780E+04  0.7818608E-02  0.7952976E-01
         -2   -1    0    0    0  501 -0.00000000000E+00  0.00000000000E+00  0.21680287263E+04  0.21680287263E+04  0.00000000000E+00 0. -1.
          2   -1    0    0  501    0  0.00000000000E+00 -0.00000000000E+00 -0.20983205188E+04  0.20983205188E+04  0.00000000000E+00 0.  1.
         23    2    1    2    0    0 -0.12299293023E+04  0.12823367368E+04 -0.11434632173E+04  0.21148617361E+04  0.89545732834E+02 0.  0.
         11    1    3    3    0    0 -0.10662089386E+04  0.11530927317E+04 -0.10116526190E+04  0.18681181360E+04  0.00000000000E+00 0. -1.
        -11    1    3    3    0    0 -0.16372036374E+03  0.12924400511E+03 -0.13181059827E+03  0.24674360006E+03  0.00000000000E+00 0.  1.
         22    1    1    2    0    0  0.12299293023E+04 -0.12823367368E+04  0.12131714247E+04  0.21514875089E+04  0.00000000000E+00 0. -1.
<mgrwt>
<rscale>  0 0.42657797E+04</rscale>
<asrwt>0</asrwt>
<pdfrwt beam="1">  1        2 0.32281854E+00 0.42657797E+04</pdfrwt>
<pdfrwt beam="2">  1       -2 0.33354288E+00 0.42657797E+04</pdfrwt>
<totfact> 0.89709202E-02</totfact>
</mgrwt>
</event>
<event>
 6    1  0.2325157E-005  0.2939646E+04  0.7818608E-02  0.8261178E-01
         -2   -1    0    0    0  501 -0.00000000000E+00  0.00000000000E+00  0.10005822813E+04  0.10005822813E+04  0.00000000000E+00 0. -1.
          2   -1    0    0  501    0  0.00000000000E+00 -0.00000000000E+00 -0.21591225435E+04  0.21591225435E+04  0.00000000000E+00 0.  1.
         23    2    1    2    0    0  0.13613842043E+04 -0.53088309283E+03 -0.42435360773E+03  0.15243963360E+04  0.92219275439E+02 0.  0.
         11    1    3    3    0    0  0.78755435864E+03 -0.30380711955E+03 -0.29232517200E+03  0.89330545721E+03  0.00000000000E+00 0. -1.
        -11    1    3    3    0    0  0.57382984570E+03 -0.22707597328E+03 -0.13202843573E+03  0.63109087880E+03  0.00000000000E+00 0.  1.
         22    1    1    2    0    0 -0.13613842043E+04  0.53088309283E+03 -0.73418665439E+03  0.16353084888E+04  0.00000000000E+00 0. -1.
<mgrwt>
<rscale>  0 0.29396461E+04</rscale>
<asrwt>0</asrwt>
<pdfrwt beam="1">  1        2 0.33217270E+00 0.29396461E+04</pdfrwt>
<pdfrwt beam="2">  1       -2 0.15393574E+00 0.29396461E+04</pdfrwt>
<totfact> 0.13097173E+00</totfact>
</mgrwt>
</event>
<event>
 6    1  0.2325157E-005  0.1842883E+04  0.7818608E-02  0.8683821E-01
         -2   -1    0    0    0  501 -0.00000000000E+00  0.00000000000E+00  0.33286947424E+03  0.33286947424E+03  0.00000000000E+00 0. -1.
          2   -1    0    0  501    0  0.00000000000E+00 -0.00000000000E+00 -0.25507134894E+04  0.25507134894E+04  0.00000000000E+00 0.  1.
         23    2    1    2    0    0 -0.35282061897E+03 -0.36556354104E+03 -0.23103417281E+04  0.23671771943E+04  0.87919719621E+02 0.  0.
         11    1    3    3    0    0 -0.16067436615E+03 -0.14392530825E+03 -0.79737232893E+03  0.82603473125E+03  0.00000000000E+00 0.  1.
        -11    1    3    3    0    0 -0.19214625282E+03 -0.22163823279E+03 -0.15129693992E+04  0.15411424631E+04  0.00000000000E+00 0. -1.
         22    1    1    2    0    0  0.35282061897E+03  0.36556354104E+03  0.92497712915E+02  0.51640576933E+03  0.00000000000E+00 0. -1.
<mgrwt>
<rscale>  0 0.18428832E+04</rscale>
<asrwt>0</asrwt>
<pdfrwt beam="1">  1        2 0.39241746E+00 0.18428832E+04</pdfrwt>
<pdfrwt beam="2">  1       -2 0.51210688E-01 0.18428832E+04</pdfrwt>
<totfact> 0.11039171E+01</totfact>
</mgrwt>
</event>
<event>
 6    1  0.2325157E-005  0.2608861E+04  0.7818608E-02  0.8365198E-01
          1   -1    0    0  501    0  0.00000000000E+00  0.00000000000E+00  0.11882651791E+04  0.11882651791E+04  0.00000000000E+00 0. -1.
         -1   -1    0    0    0  501 -0.00000000000E+00 -0.00000000000E+00 -0.14319518335E+04  0.14319518335E+04  0.00000000000E+00 0.  1.
         23    2    1    2    0    0  0.31001089349E+03  0.78552688954E+02 -0.13904775020E+04  0.14296681782E+04  0.90808243445E+02 0.  0.
         11    1    3    3    0    0  0.21237820894E+03  0.21194159362E+02 -0.10277073839E+04  0.10496362050E+04  0.00000000000E+00 0. -1.
        -11    1    3    3    0    0  0.97632684554E+02  0.57358529593E+02 -0.36277011816E+03  0.38003197318E+03  0.00000000000E+00 0.  1.
         22    1    1    2    0    0 -0.31001089349E+03 -0.78552688954E+02  0.11467908476E+04  0.11905488344E+04  0.00000000000E+00 0. -1.
<mgrwt>
<rscale>  0 0.26088607E+04</rscale>
<asrwt>0</asrwt>
<pdfrwt beam="1">  1        1 0.18281003E+00 0.26088607E+04</pdfrwt>
<pdfrwt beam="2">  1       -1 0.22030028E+00 0.26088607E+04</pdfrwt>
<totfact> 0.10507534E+00</totfact>
</mgrwt>
</event>
<event>
 6    1  0.2325157E-005  0.4147523E+03  0.7818608E-02  0.1038788E+00
         -2   -1    0    0    0  501 -0.00000000000E+00  0.00000000000E+00  0.69662654679E+02  0.69662654679E+02  0.00000000000E+00 0. -1.
          2   -1    0    0  501    0  0.00000000000E+00 -0.00000000000E+00 -0.61733043177E+03  0.61733043177E+03  0.00000000000E+00 0.  1.
         23    2    1    2    0    0 -0.56861995378E+02 -0.53270087526E+02 -0.58737883937E+03  0.59954048666E+03  0.91454390025E+02 0.  0.
         11    1    3    3    0    0 -0.71064655502E+02 -0.32523727006E+02 -0.54248578421E+03  0.54808649331E+03  0.00000000000E+00 0.  1.
        -11    1    3    3    0    0  0.14202660124E+02 -0.20746360520E+02 -0.44893055162E+02  0.51453993346E+02  0.00000000000E+00 0. -1.
         22    1    1    2    0    0  0.56861995378E+02  0.53270087526E+02  0.39711062280E+02  0.87452599794E+02  0.00000000000E+00 0. -1.
<mgrwt>
<rscale>  0 0.41475234E+03</rscale>
<asrwt>0</asrwt>
<pdfrwt beam="1">  1        2 0.94973912E-01 0.41475234E+03</pdfrwt>
<pdfrwt beam="2">  1       -2 0.10717332E-01 0.41475234E+03</pdfrwt>
<totfact> 0.29135434E+03</totfact>
</mgrwt>
</event>
<event>
 6    1  0.2325157E-005  0.2434319E+04  0.7818608E-02  0.8426766E-01
          2   -1    0    0  501    0  0.00000000000E+00  0.00000000000E+00  0.12443650396E+04  0.12443650396E+04  0.00000000000E+00 0. -1.
         -2   -1    0    0    0  501 -0.00000000000E+00 -0.00000000000E+00 -0.11905489730E+04  0.11905489730E+04  0.00000000000E+00 0.  1.
         23    2    1    2    0    0  0.47378732495E+03  0.66137288114E+03 -0.87639730886E+03  0.11991205666E+04  0.89047027493E+02 0.  0.
         11    1    3    3    0    0  0.28802444703E+03  0.46260246512E+03 -0.61736479112E+03  0.82346730848E+03  0.00000000000E+00 0. -1.
        -11    1    3    3    0    0  0.18576287792E+03  0.19877041602E+03 -0.25903251774E+03  0.37565325813E+03  0.00000000000E+00 0.  1.
         22    1    1    2    0    0 -0.47378732495E+03 -0.66137288114E+03  0.93021337551E+03  0.12357934460E+04  0.00000000000E+00 0. -1.
<mgrwt>
<rscale>  0 0.24343192E+04</rscale>
<asrwt>0</asrwt>
<pdfrwt beam="1">  1        2 0.19144078E+00 0.24343192E+04</pdfrwt>
<pdfrwt beam="2">  1       -2 0.18316138E+00 0.24343192E+04</pdfrwt>
<totfact> 0.27565805E+00</totfact>
</mgrwt>
</event>
<event>
 6    1  0.2325157E-005  0.5028158E+04  0.7818608E-02  0.7824178E-01
         -2   -1    0    0    0  501 -0.00000000000E+00  0.00000000000E+00  0.23075465133E+04  0.23075465133E+04  0.00000000000E+00 0. -1.
          2   -1    0    0  501    0  0.00000000000E+00 -0.00000000000E+00 -0.27390964884E+04  0.27390964884E+04  0.00000000000E+00 0.  1.
         23    2    1    2    0    0 -0.42227544063E+03 -0.50777318664E+03  0.22180207218E+04  0.23160066226E+04  0.90114355337E+02 0.  0.
         11    1    3    3    0    0 -0.26280992589E+03 -0.36083410485E+03  0.13810555993E+04  0.14514078946E+04  0.00000000000E+00 0.  1.
        -11    1    3    3    0    0 -0.15946551474E+03 -0.14693908179E+03  0.83696512252E+03  0.86459872800E+03  0.00000000000E+00 0. -1.
         22    1    1    2    0    0  0.42227544063E+03  0.50777318664E+03 -0.26495706968E+04  0.27306363790E+04  0.00000000000E+00 0.  1.
<mgrwt>
<rscale>  0 0.50281577E+04</rscale>
<asrwt>0</asrwt>
<pdfrwt beam="1">  1        2 0.42139946E+00 0.50281577E+04</pdfrwt>
<pdfrwt beam="2">  1       -2 0.35500715E+00 0.50281577E+04</pdfrwt>
<totfact> 0.26440247E-02</totfact>
</mgrwt>
</event>
<event>
 6    1  0.2325157E-005  0.9759284E+03  0.7818608E-02  0.9335347E-01
          2   -1    0    0  501    0  0.00000000000E+00  0.00000000000E+00  0.14134381207E+03  0.14134381207E+03  0.00000000000E+00 0.  1.
         -2   -1    0    0    0  501 -0.00000000000E+00 -0.00000000000E+00 -0.16846088798E+04  0.16846088798E+04  0.00000000000E+00 0. -1.
         23    2    1    2    0    0  0.74472593109E+02 -0.38840564505E+03 -0.25795555013E+03  0.48117551022E+03  0.92648224825E+02 0.  0.
         11    1    3    3    0    0  0.37021516792E+02 -0.72529382259E+02 -0.19780961565E+02  0.83799704277E+02  0.00000000000E+00 0. -1.
        -11    1    3    3    0    0  0.37451076317E+02 -0.31587626279E+03 -0.23817458857E+03  0.39737580594E+03  0.00000000000E+00 0.  1.
         22    1    1    2    0    0 -0.74472593109E+02  0.38840564505E+03 -0.12853095176E+04  0.13447771816E+04  0.00000000000E+00 0. -1.
<mgrwt>
<rscale>  0 0.97592836E+03</rscale>
<asrwt>0</asrwt>
<pdfrwt beam="1">  1        2 0.21745202E-01 0.97592836E+03</pdfrwt>
<pdfrwt beam="2">  1       -2 0.25917059E+00 0.97592836E+03</pdfrwt>
<totfact> 0.14685964E+01</totfact>
</mgrwt>
</event>
<event>
 6    1  0.2325157E-005  0.3549453E+04  0.7818608E-02  0.8102169E-01
          2   -1    0    0  501    0  0.00000000000E+00  0.00000000000E+00  0.48487793847E+04  0.48487793847E+04  0.00000000000E+00 0.  1.
         -2   -1    0    0    0  501 -0.00000000000E+00 -0.00000000000E+00 -0.64957654642E+03  0.64957654642E+03  0.00000000000E+00 0. -1.
         23    2    1    2    0    0  0.61040273846E+03 -0.15995371795E+04  0.13833284540E+04  0.22028651877E+04  0.88919806073E+02 0.  0.
         11    1    3    3    0    0  0.19796261320E+03 -0.43856116929E+03  0.35303873056E+03  0.59679262789E+03  0.00000000000E+00 0.  1.
        -11    1    3    3    0    0  0.41244012526E+03 -0.11609760102E+04  0.10302897234E+04  0.16060725598E+04  0.00000000000E+00 0. -1.
         22    1    1    2    0    0 -0.61040273846E+03  0.15995371795E+04  0.28158743843E+04  0.32954907434E+04  0.00000000000E+00 0.  1.
<mgrwt>
<rscale>  0 0.35494526E+04</rscale>
<asrwt>0</asrwt>
<pdfrwt beam="1">  1        2 0.74596604E+00 0.35494526E+04</pdfrwt>
<pdfrwt beam="2">  1       -2 0.99934856E-01 0.35494526E+04</pdfrwt>
<totfact> 0.35188188E-02</totfact>
</mgrwt>
</event>
<event>
 6    1  0.2325157E-005  0.8675475E+03  0.7818608E-02  0.9467083E-01
         -2   -1    0    0    0  501 -0.00000000000E+00  0.00000000000E+00  0.19919603631E+03  0.19919603631E+03  0.00000000000E+00 0. -1.
          2   -1    0    0  501    0  0.00000000000E+00 -0.00000000000E+00 -0.94459547361E+03  0.94459547361E+03  0.00000000000E+00 0.  1.
         23    2    1    2    0    0 -0.15322372163E+03  0.20492094647E+03  0.76442229958E+02  0.28303961232E+03  0.93797145214E+02 0.  0.
         11    1    3    3    0    0 -0.13685919927E+02  0.90610541765E+02  0.33909841884E+02  0.97711064162E+02  0.00000000000E+00 0.  1.
        -11    1    3    3    0    0 -0.13953780170E+03  0.11431040471E+03  0.42532388074E+02  0.18532854816E+03  0.00000000000E+00 0. -1.
         22    1    1    2    0    0  0.15322372163E+03 -0.20492094647E+03 -0.82184166726E+03  0.86075189759E+03  0.00000000000E+00 0.  1.
<mgrwt>
<rscale>  0 0.86754752E+03</rscale>
<asrwt>0</asrwt>
<pdfrwt beam="1">  1        2 0.14532238E+00 0.86754752E+03</pdfrwt>
<pdfrwt beam="2">  1       -2 0.30645544E-01 0.86754752E+03</pdfrwt>
<totfact> 0.27037284E+02</totfact>
</mgrwt>
</event>
<event>
 6    1  0.2325157E-005  0.1382151E+04  0.7818608E-02  0.8966841E-01
         -2   -1    0    0    0  501 -0.00000000000E+00  0.00000000000E+00  0.22913869168E+03  0.22913869168E+03  0.00000000000E+00 0. -1.
          2   -1    0    0  501    0  0.00000000000E+00 -0.00000000000E+00 -0.20842642066E+04  0.20842642066E+04  0.00000000000E+00 0.  1.
         23    2    1    2    0    0 -0.51218444766E+02 -0.12447942148E+03 -0.20610367922E+04  0.20673990171E+04  0.90263954876E+02 0.  0.
         11    1    3    3    0    0 -0.38730384001E+02 -0.10808963776E+03 -0.19931397374E+04  0.19964441954E+04  0.00000000000E+00 0.  1.
        -11    1    3    3    0    0 -0.12488060765E+02 -0.16389783724E+02 -0.67897054753E+02  0.70954821657E+02  0.00000000000E+00 0. -1.
         22    1    1    2    0    0  0.51218444766E+02  0.12447942148E+03  0.20591127728E+03  0.24600388120E+03  0.00000000000E+00 0. -1.
<mgrwt>
<rscale>  0 0.13821513E+04</rscale>
<asrwt>0</asrwt>
<pdfrwt beam="1">  1        2 0.32065604E+00 0.13821513E+04</pdfrwt>
<pdfrwt beam="2">  1       -2 0.35252106E-01 0.13821513E+04</pdfrwt>
<totfact> 0.44199400E+01</totfact>
</mgrwt>
</event>
<event>
 6    1  0.2325157E-005  0.2850654E+04  0.7818608E-02  0.8287713E-01
          2   -1    0    0  501    0  0.00000000000E+00  0.00000000000E+00  0.13082039890E+04  0.13082039890E+04  0.00000000000E+00 0.  1.
         -2   -1    0    0    0  501 -0.00000000000E+00 -0.00000000000E+00 -0.15529356412E+04  0.15529356412E+04  0.00000000000E+00 0. -1.
         23    2    1    2    0    0 -0.73640280944E+03 -0.14281663176E+03  0.10922442060E+04  0.13281066452E+04  0.90466388315E+02 0.  0.
         11    1    3    3    0    0 -0.43401569632E+03 -0.12928482690E+03  0.65753581525E+03  0.79839685587E+03  0.00000000000E+00 0. -1.
        -11    1    3    3    0    0 -0.30238711312E+03 -0.13531804855E+02  0.43470839071E+03  0.52970978930E+03  0.00000000000E+00 0.  1.
         22    1    1    2    0    0  0.73640280944E+03  0.14281663176E+03 -0.13369758581E+04  0.15330329850E+04  0.00000000000E+00 0. -1.
<mgrwt>
<rscale>  0 0.28506537E+04</rscale>
<asrwt>0</asrwt>
<pdfrwt beam="1">  1        2 0.20126215E+00 0.28506537E+04</pdfrwt>
<pdfrwt beam="2">  1       -2 0.23891317E+00 0.28506537E+04</pdfrwt>
<totfact> 0.10659536E+00</totfact>
</mgrwt>
</event>
<event>
 6    1  0.2325157E-005  0.3582401E+04  0.7818608E-02  0.8094535E-01
          2   -1    0    0  501    0  0.00000000000E+00  0.00000000000E+00  0.25486069437E+04  0.25486069437E+04  0.00000000000E+00 0. -1.
         -2   -1    0    0    0  501 -0.00000000000E+00 -0.00000000000E+00 -0.12588834068E+04  0.12588834068E+04  0.00000000000E+00 0.  1.
         23    2    1    2    0    0 -0.74093044275E+03 -0.34278754489E+03 -0.10479081695E+04  0.13314040804E+04  0.89688748596E+02 0.  0.
         11    1    3    3    0    0 -0.46288745049E+03 -0.23943423255E+03 -0.60736944563E+03  0.80030693301E+03  0.00000000000E+00 0. -1.
        -11    1    3    3    0    0 -0.27804299226E+03 -0.10335331234E+03 -0.44053872388E+03  0.53109714738E+03  0.00000000000E+00 0.  1.
         22    1    1    2    0    0  0.74093044275E+03  0.34278754489E+03  0.23376317064E+04  0.24760862700E+04  0.00000000000E+00 0. -1.
<mgrwt>
<rscale>  0 0.35824009E+04</rscale>
<asrwt>0</asrwt>
<pdfrwt beam="1">  1        2 0.39209338E+00 0.35824009E+04</pdfrwt>
<pdfrwt beam="2">  1       -2 0.19367437E+00 0.35824009E+04</pdfrwt>
<totfact> 0.38986540E-01</totfact>
</mgrwt>
</event>
<event>
 6    1  0.2325157E-005  0.1398066E+04  0.7818608E-02  0.8955220E-01
         -2   -1    0    0    0  501 -0.00000000000E+00  0.00000000000E+00  0.12566987826E+04  0.12566987826E+04  0.00000000000E+00 0. -1.
          2   -1    0    0  501    0  0.00000000000E+00 -0.00000000000E+00 -0.38883387220E+03  0.38883387220E+03  0.00000000000E+00 0.  1.
         23    2    1    2    0    0  0.57827550476E+03  0.30989202629E+03  0.16174510357E+03  0.68166502439E+03  0.89833733010E+02 0.  0.
         13    1    3    3    0    0  0.46463848217E+03  0.25069271279E+03  0.92425609933E+02  0.53598344073E+03  0.00000000000E+00 0.  1.
        -13    1    3    3    0    0  0.11363702259E+03  0.59199313498E+02  0.69319493633E+02  0.14568158367E+03  0.00000000000E+00 0. -1.
         22    1    1    2    0    0 -0.57827550476E+03 -0.30989202629E+03  0.70611980686E+03  0.96386763044E+03  0.00000000000E+00 0. -1.
<mgrwt>
<rscale>  0 0.13980659E+04</rscale>
<asrwt>0</asrwt>
<pdfrwt beam="1">  1        2 0.59820596E-01 0.13980659E+04</pdfrwt>
<pdfrwt beam="2">  1       -2 0.19333827E+00 0.13980659E+04</pdfrwt>
<totfact> 0.11753745E+01</totfact>
</mgrwt>
</event>
<event>
 6    1  0.2325157E-005  0.3228174E+04  0.7818608E-02  0.8181416E-01
          2   -1    0    0  501    0  0.00000000000E+00  0.00000000000E+00  0.34320671362E+04  0.34320671362E+04  0.00000000000E+00 0.  1.
         -2   -1    0    0    0  501 -0.00000000000E+00 -0.00000000000E+00 -0.75909826366E+03  0.75909826366E+03  0.00000000000E+00 0. -1.
         23    2    1    2    0    0  0.42636520082E+03 -0.57431667802E+03  0.32143009783E+04  0.32941328586E+04  0.89182845386E+02 0.  0.
         11    1    3    3    0    0  0.27910881355E+03 -0.43104384082E+03  0.23987845348E+04  0.24531342741E+04  0.00000000000E+00 0. -1.
        -11    1    3    3    0    0  0.14725638726E+03 -0.14327283720E+03  0.81551644355E+03  0.84099858452E+03  0.00000000000E+00 0.  1.
         22    1    1    2    0    0 -0.42636520082E+03  0.57431667802E+03 -0.54133210583E+03  0.89703254118E+03  0.00000000000E+00 0. -1.
<mgrwt>
<rscale>  0 0.32281736E+04</rscale>
<asrwt>0</asrwt>
<pdfrwt beam="1">  1        2 0.52801032E+00 0.32281736E+04</pdfrwt>
<pdfrwt beam="2">  1       -2 0.11678435E+00 0.32281736E+04</pdfrwt>
<totfact> 0.43181021E-01</totfact>
</mgrwt>
</event>
<event>
 6    1  0.2325157E-005  0.5606725E+04  0.7818608E-02  0.7741172E-01
          2   -1    0    0  501    0  0.00000000000E+00  0.00000000000E+00  0.22025489412E+04  0.22025489412E+04  0.00000000000E+00 0.  1.
         -2   -1    0    0    0  501 -0.00000000000E+00 -0.00000000000E+00 -0.35680663975E+04  0.35680663975E+04  0.00000000000E+00 0. -1.
         23    2    1    2    0    0 -0.20324308922E+04  0.98802713470E+00 -0.26691087953E+04  0.33560498111E+04  0.90289897113E+02 0.  0.
         11    1    3    3    0    0 -0.11958800360E+04 -0.16503811279E+02 -0.15023584910E+04  0.19202818730E+04  0.00000000000E+00 0. -1.
        -11    1    3    3    0    0 -0.83655085615E+03  0.17491838414E+02 -0.11667503044E+04  0.14357679381E+04  0.00000000000E+00 0.  1.
         22    1    1    2    0    0  0.20324308922E+04 -0.98802713470E+00  0.13035913390E+04  0.24145655275E+04  0.00000000000E+00 0.  1.
<mgrwt>
<rscale>  0 0.56067248E+04</rscale>
<asrwt>0</asrwt>
<pdfrwt beam="1">  1        2 0.33885368E+00 0.56067248E+04</pdfrwt>
<pdfrwt beam="2">  1       -2 0.54893329E+00 0.56067248E+04</pdfrwt>
<totfact> 0.31350524E-03</totfact>
</mgrwt>
</event>
<event>
 6    1  0.2325157E-005  0.1901565E+04  0.7818608E-02  0.8654078E-01
         -2   -1    0    0    0  501 -0.00000000000E+00  0.00000000000E+00  0.40179467203E+03  0.40179467203E+03  0.00000000000E+00 0. -1.
          2   -1    0    0  501    0  0.00000000000E+00 -0.00000000000E+00 -0.22498732797E+04  0.22498732797E+04  0.00000000000E+00 0.  1.
         23    2    1    2    0    0  0.66027608313E+02  0.67782329201E+03 -0.18469842771E+04  0.19706354578E+04  0.90824705976E+02 0.  0.
         11    1    3    3    0    0  0.83502794090E+02  0.47844824138E+03 -0.13604499529E+04  0.14445447416E+04  0.00000000000E+00 0. -1.
        -11    1    3    3    0    0 -0.17475185777E+02  0.19937505063E+03 -0.48653432429E+03  0.52609071617E+03  0.00000000000E+00 0.  1.
         22    1    1    2    0    0 -0.66027608313E+02 -0.67782329201E+03 -0.10943305315E+01  0.68103249395E+03  0.00000000000E+00 0. -1.
<mgrwt>
<rscale>  0 0.19015647E+04</rscale>
<asrwt>0</asrwt>
<pdfrwt beam="1">  1        2 0.34613436E+00 0.19015647E+04</pdfrwt>
<pdfrwt beam="2">  1       -2 0.61814564E-01 0.19015647E+04</pdfrwt>
<totfact> 0.11021144E+01</totfact>
</mgrwt>
</event>
<event>
 6    1  0.2325157E-005  0.2804688E+04  0.7818608E-02  0.8301814E-01
         -2   -1    0    0    0  501 -0.00000000000E+00  0.00000000000E+00  0.96117729548E+03  0.96117729548E+03  0.00000000000E+00 0.  1.
          2   -1    0    0  501    0  0.00000000000E+00 -0.00000000000E+00 -0.20460004180E+04  0.20460004180E+04  0.00000000000E+00 0. -1.
         23    2    1    2    0    0  0.55646210663E+03  0.11229486279E+04  0.12809782788E+03  0.12630902934E+04  0.91237815171E+02 0.  0.
         11    1    3    3    0    0  0.35217603224E+03  0.62672971658E+03  0.98903466653E+02  0.72567209609E+03  0.00000000000E+00 0. -1.
        -11    1    3    3    0    0  0.20428607439E+03  0.49621891128E+03  0.29194361222E+02  0.53741819734E+03  0.00000000000E+00 0.  1.
         22    1    1    2    0    0 -0.55646210663E+03 -0.11229486279E+04 -0.12129209504E+04  0.17440874201E+04  0.00000000000E+00 0. -1.
<mgrwt>
<rscale>  0 0.28046883E+04</rscale>
<asrwt>0</asrwt>
<pdfrwt beam="1">  1        2 0.31476930E+00 0.28046883E+04</pdfrwt>
<pdfrwt beam="2">  1       -2 0.14787343E+00 0.28046883E+04</pdfrwt>
<totfact> 0.17047786E+00</totfact>
</mgrwt>
</event>
<event>
 6    1  0.7446213E-005  0.3969608E+04  0.7818608E-02  0.8010706E-01
          2   -1    0    0  501    0  0.00000000000E+00  0.00000000000E+00  0.18082680346E+04  0.18082680346E+04  0.00000000000E+00 0.  1.
         -2   -1    0    0    0  501 -0.00000000000E+00 -0.00000000000E+00 -0.21785742788E+04  0.21785742788E+04  0.00000000000E+00 0. -1.
         23    2    1    2    0    0  0.13247237949E+04  0.93922794687E+02  0.12947164819E+04  0.18570499991E+04  0.92894060683E+02 0.  0.
         11    1    3    3    0    0  0.58896051113E+03  0.43644573602E+01  0.53551356623E+03  0.79603285848E+03  0.00000000000E+00 0. -1.
        -11    1    3    3    0    0  0.73576328373E+03  0.89558337327E+02  0.75920291565E+03  0.10610171406E+04  0.00000000000E+00 0.  1.
         22    1    1    2    0    0 -0.13247237949E+04 -0.93922794687E+02 -0.16650227260E+04  0.21297923143E+04  0.00000000000E+00 0. -1.
<mgrwt>
<rscale>  0 0.39696077E+04</rscale>
<asrwt>0</asrwt>
<pdfrwt beam="1">  1        2 0.27819508E+00 0.39696077E+04</pdfrwt>
<pdfrwt beam="2">  1       -2 0.33516527E+00 0.39696077E+04</pdfrwt>
<totfact> 0.13013375E-01</totfact>
</mgrwt>
</event>
<event>
 6    1  0.2325157E-005  0.4339830E+04  0.7818608E-02  0.7939294E-01
          2   -1    0    0  501    0  0.00000000000E+00  0.00000000000E+00  0.48464344853E+04  0.48464344853E+04  0.00000000000E+00 0.  1.
         -2   -1    0    0    0  501 -0.00000000000E+00 -0.00000000000E+00 -0.97154531580E+03  0.97154531580E+03  0.00000000000E+00 0. -1.
         23    2    1    2    0    0 -0.86114460567E+03 -0.93602215620E+03  0.42936293018E+04  0.44789313304E+04  0.88689188869E+02 0.  0.
         11    1    3    3    0    0 -0.10720448208E+03 -0.15206733663E+03  0.70055271382E+03  0.72483886533E+03  0.00000000000E+00 0.  1.
        -11    1    3    3    0    0 -0.75394012359E+03 -0.78395481957E+03  0.35930765880E+04  0.37540924650E+04  0.00000000000E+00 0. -1.
         22    1    1    2    0    0  0.86114460567E+03  0.93602215620E+03 -0.41874013223E+03  0.13390484708E+04  0.00000000000E+00 0. -1.
<mgrwt>
<rscale>  0 0.43398298E+04</rscale>
<asrwt>0</asrwt>
<pdfrwt beam="1">  1        2 0.74560529E+00 0.43398298E+04</pdfrwt>
<pdfrwt beam="2">  1       -2 0.14946851E+00 0.43398298E+04</pdfrwt>
<totfact> 0.12080000E-02</totfact>
</mgrwt>
</event>
<event>
 6    1  0.2325157E-005  0.5752763E+04  0.7818608E-02  0.7721835E-01
         -2   -1    0    0    0  501 -0.00000000000E+00  0.00000000000E+00  0.35030616571E+04  0.35030616571E+04  0.00000000000E+00 0. -1.
          2   -1    0    0  501    0  0.00000000000E+00 -0.00000000000E+00 -0.23618111555E+04  0.23618111555E+04  0.00000000000E+00 0.  1.
         23    2    1    2    0    0 -0.16002086680E+04  0.18701616154E+04  0.20870662738E+04  0.32280679802E+04  0.80031271077E+02 0.  0.
         13    1    3    3    0    0 -0.85816915839E+03  0.10287171315E+04  0.10883678661E+04  0.17260526797E+04  0.00000000000E+00 0. -1.
        -13    1    3    3    0    0 -0.74203950963E+03  0.84144448397E+03  0.99869840775E+03  0.15020153006E+04  0.00000000000E+00 0.  1.
         22    1    1    2    0    0  0.16002086680E+04 -0.18701616154E+04 -0.94581577221E+03  0.26368048324E+04  0.00000000000E+00 0. -1.
<mgrwt>
<rscale>  0 0.57527628E+04</rscale>
<asrwt>0</asrwt>
<pdfrwt beam="1">  1        2 0.36335556E+00 0.57527628E+04</pdfrwt>
<pdfrwt beam="2">  1       -2 0.53893256E+00 0.57527628E+04</pdfrwt>
<totfact> 0.28451853E-03</totfact>
</mgrwt>
</event>
<event>
 6    1  0.2325157E-005  0.6912819E+03  0.7818608E-02  0.9732259E-01
          2   -1    0    0  501    0  0.00000000000E+00  0.00000000000E+00  0.34159619823E+03  0.34159619823E+03  0.00000000000E+00 0.  1.
         -2   -1    0    0    0  501 -0.00000000000E+00 -0.00000000000E+00 -0.34973359830E+03  0.34973359830E+03  0.00000000000E+00 0. -1.
         23    2    1    2    0    0 -0.29461329102E+03  0.90078782392E+02  0.13847631671E+03  0.35014544719E+03  0.92276571324E+02 0.  0.
         13    1    3    3    0    0 -0.18733391290E+03  0.91574852334E+02  0.59246363802E+02  0.21677195420E+03  0.00000000000E+00 0.  1.
        -13    1    3    3    0    0 -0.10727937811E+03 -0.14960699419E+01  0.79229952913E+02  0.13337349299E+03  0.00000000000E+00 0. -1.
         22    1    1    2    0    0  0.29461329102E+03 -0.90078782392E+02 -0.14661371679E+03  0.34118434934E+03  0.00000000000E+00 0. -1.
<mgrwt>
<rscale>  0 0.69128190E+03</rscale>
<asrwt>0</asrwt>
<pdfrwt beam="1">  1        2 0.52553261E-01 0.69128190E+03</pdfrwt>
<pdfrwt beam="2">  1       -2 0.53805169E-01 0.69128190E+03</pdfrwt>
<totfact> 0.31195789E+02</totfact>
</mgrwt>
</event>
<event>
 6    1  0.2325157E-005  0.2412413E+04  0.7818608E-02  0.8434871E-01
          2   -1    0    0  501    0  0.00000000000E+00  0.00000000000E+00  0.36597419741E+04  0.36597419741E+04  0.00000000000E+00 0.  1.
         -2   -1    0    0    0  501 -0.00000000000E+00 -0.00000000000E+00 -0.39755113838E+03  0.39755113838E+03  0.00000000000E+00 0. -1.
         23    2    1    2    0    0 -0.91486684092E+03  0.36962271491E+03  0.47167693958E+03  0.10974670884E+04  0.91392488044E+02 0.  0.
         13    1    3    3    0    0 -0.31398690226E+03  0.14870221619E+03  0.20921507779E+03  0.40555033309E+03  0.00000000000E+00 0. -1.
        -13    1    3    3    0    0 -0.60087993866E+03  0.22092049872E+03  0.26246186179E+03  0.69191675535E+03  0.00000000000E+00 0.  1.
         22    1    1    2    0    0  0.91486684092E+03 -0.36962271491E+03  0.27905138961E+04  0.29598260240E+04  0.00000000000E+00 0.  1.
<mgrwt>
<rscale>  0 0.24124134E+04</rscale>
<asrwt>0</asrwt>
<pdfrwt beam="1">  1        2 0.56303720E+00 0.24124134E+04</pdfrwt>
<pdfrwt beam="2">  1       -2 0.61161716E-01 0.24124134E+04</pdfrwt>
<totfact> 0.13994342E+00</totfact>
</mgrwt>
</event>
<event>
 6    1  0.2325157E-005  0.1723259E+04  0.7818608E-02  0.8748209E-01
          2   -1    0    0  501    0  0.00000000000E+00  0.00000000000E+00  0.31100180884E+04  0.31100180884E+04  0.00000000000E+00 0. -1.
         -2   -1    0    0    0  501 -0.00000000000E+00 -0.00000000000E+00 -0.23871410046E+03  0.23871410046E+03  0.00000000000E+00 0.  1.
         23    2    1    2    0    0  0.56570280148E+03  0.64011420088E+03  0.16193998615E+04  0.18331366651E+04  0.90378491895E+02 0.  0.
         13    1    3    3    0    0  0.34474868229E+03  0.41297527603E+03  0.92967641689E+03  0.10741035670E+04  0.00000000000E+00 0. -1.
        -13    1    3    3    0    0  0.22095411919E+03  0.22713892485E+03  0.68972344459E+03  0.75903309808E+03  0.00000000000E+00 0.  1.
         22    1    1    2    0    0 -0.56570280148E+03 -0.64011420088E+03  0.12519041265E+04  0.15155955238E+04  0.00000000000E+00 0. -1.
<mgrwt>
<rscale>  0 0.17232587E+04</rscale>
<asrwt>0</asrwt>
<pdfrwt beam="1">  1        2 0.47846429E+00 0.17232587E+04</pdfrwt>
<pdfrwt beam="2">  1       -2 0.36725248E-01 0.17232587E+04</pdfrwt>
<totfact> 0.98900454E+00</totfact>
</mgrwt>
</event>
<event>
 6    1  0.2325157E-005  0.6679820E+03  0.7818608E-02  0.9773610E-01
          4   -1    0    0  501    0  0.00000000000E+00  0.00000000000E+00  0.11171652315E+03  0.11171652315E+03  0.00000000000E+00 0.  1.
         -4   -1    0    0    0  501 -0.00000000000E+00 -0.00000000000E+00 -0.99850938198E+03  0.99850938198E+03  0.00000000000E+00 0. -1.
         23    2    1    2    0    0  0.27284433870E+03  0.41339760269E+02 -0.74526729874E+03  0.80009288029E+03  0.92586508614E+02 0.  0.
         11    1    3    3    0    0  0.22578652437E+03  0.67989433489E+02 -0.63260599199E+03  0.67512403213E+03  0.00000000000E+00 0. -1.
        -11    1    3    3    0    0  0.47057814332E+02 -0.26649673220E+02 -0.11266130675E+03  0.12496884816E+03  0.00000000000E+00 0.  1.
         22    1    1    2    0    0 -0.27284433870E+03 -0.41339760269E+02 -0.14152556009E+03  0.31013302484E+03  0.00000000000E+00 0.  1.
<mgrwt>
<rscale>  0 0.66798203E+03</rscale>
<asrwt>0</asrwt>
<pdfrwt beam="1">  1        4 0.17187157E-01 0.66798203E+03</pdfrwt>
<pdfrwt beam="2">  1       -4 0.15361683E+00 0.66798203E+03</pdfrwt>
<totfact> 0.16968787E+01</totfact>
</mgrwt>
</event>
<event>
 6    1  0.2325157E-005  0.6269989E+03  0.7818608E-02  0.9850923E-01
         -2   -1    0    0    0  501 -0.00000000000E+00  0.00000000000E+00  0.41321012947E+03  0.41321012947E+03  0.00000000000E+00 0. -1.
          2   -1    0    0  501    0  0.00000000000E+00 -0.00000000000E+00 -0.23784973656E+03  0.23784973656E+03  0.00000000000E+00 0.  1.
         23    2    1    2    0    0  0.11060075378E+03  0.28268658740E+03  0.48100786747E+02  0.32191059777E+03  0.95752356848E+02 0.  0.
         11    1    3    3    0    0  0.11546259847E+03  0.19369336383E+03  0.12202086780E+02  0.22582653023E+03  0.00000000000E+00 0. -1.
        -11    1    3    3    0    0 -0.48618446917E+01  0.88993223571E+02  0.35898699967E+02  0.96084067539E+02  0.00000000000E+00 0.  1.
         22    1    1    2    0    0 -0.11060075378E+03 -0.28268658740E+03  0.12725960617E+03  0.32914926826E+03  0.00000000000E+00 0. -1.
<mgrwt>
<rscale>  0 0.62699895E+03</rscale>
<asrwt>0</asrwt>
<pdfrwt beam="1">  1        2 0.36592267E-01 0.62699895E+03</pdfrwt>
<pdfrwt beam="2">  1       -2 0.63570789E-01 0.62699895E+03</pdfrwt>
<totfact> 0.32913949E+02</totfact>
</mgrwt>
</event>
<event>
 6    1  0.2325157E-005  0.3932207E+04  0.7818608E-02  0.8018364E-01
          2   -1    0    0  501    0  0.00000000000E+00  0.00000000000E+00  0.20485369533E+04  0.20485369533E+04  0.00000000000E+00 0.  1.
         -2   -1    0    0    0  501 -0.00000000000E+00 -0.00000000000E+00 -0.18869874408E+04  0.18869874408E+04  0.00000000000E+00 0. -1.
         23    2    1    2    0    0  0.17998177554E+04 -0.24090894049E+03 -0.67082632014E+03  0.19379682379E+04  0.91279073152E+02 0.  0.
         13    1    3    3    0    0  0.10455389396E+04 -0.10691197206E+03 -0.42095954596E+03  0.11321611119E+04  0.00000000000E+00 0. -1.
        -13    1    3    3    0    0  0.75427881582E+03 -0.13399696843E+03 -0.24986677418E+03  0.80580712605E+03  0.00000000000E+00 0.  1.
         22    1    1    2    0    0 -0.17998177554E+04  0.24090894049E+03  0.83237583266E+03  0.19975561562E+04  0.00000000000E+00 0.  1.
<mgrwt>
<rscale>  0 0.39322073E+04</rscale>
<asrwt>0</asrwt>
<pdfrwt beam="1">  1        2 0.31515953E+00 0.39322073E+04</pdfrwt>
<pdfrwt beam="2">  1       -2 0.29030576E+00 0.39322073E+04</pdfrwt>
<totfact> 0.18143033E-01</totfact>
</mgrwt>
</event>
<event>
 6    1  0.2325157E-005  0.3099750E+04  0.7818608E-02  0.8215806E-01
          2   -1    0    0  501    0  0.00000000000E+00  0.00000000000E+00  0.21795446564E+04  0.21795446564E+04  0.00000000000E+00 0.  1.
         -2   -1    0    0    0  501 -0.00000000000E+00 -0.00000000000E+00 -0.11021169314E+04  0.11021169314E+04  0.00000000000E+00 0. -1.
         23    2    1    2    0    0 -0.58272336206E+03  0.45330161848E+03 -0.90187241635E+03  0.11691564580E+04  0.92217643621E+02 0.  0.
         13    1    3    3    0    0 -0.25307174345E+03  0.13994491598E+03 -0.34938056122E+03  0.45353794042E+03  0.00000000000E+00 0. -1.
        -13    1    3    3    0    0 -0.32965161861E+03  0.31335670250E+03 -0.55249185513E+03  0.71561851753E+03  0.00000000000E+00 0.  1.
         22    1    1    2    0    0  0.58272336206E+03 -0.45330161848E+03  0.19793001414E+04  0.21125051299E+04  0.00000000000E+00 0.  1.
<mgrwt>
<rscale>  0 0.30997504E+04</rscale>
<asrwt>0</asrwt>
<pdfrwt beam="1">  1        2 0.33531456E+00 0.30997504E+04</pdfrwt>
<pdfrwt beam="2">  1       -2 0.16955645E+00 0.30997504E+04</pdfrwt>
<totfact> 0.96653422E-01</totfact>
</mgrwt>
</event>
<event>
 6    1  0.2325157E-005  0.2740256E+04  0.7818608E-02  0.8322060E-01
          2   -1    0    0  501    0  0.00000000000E+00  0.00000000000E+00  0.20084554043E+04  0.20084554043E+04  0.00000000000E+00 0.  1.
         -2   -1    0    0    0  501 -0.00000000000E+00 -0.00000000000E+00 -0.93467415199E+03  0.93467415199E+03  0.00000000000E+00 0. -1.
         23    2    1    2    0    0  0.58103023959E+03  0.34442163645E+03 -0.74089046334E+03  0.10068300344E+04  0.92550723761E+02 0.  0.
         11    1    3    3    0    0  0.56899086940E+02  0.12620285263E+02 -0.93790545730E+02  0.11042392930E+03  0.00000000000E+00 0.  1.
        -11    1    3    3    0    0  0.52413115265E+03  0.33180135119E+03 -0.64709991761E+03  0.89640610507E+03  0.00000000000E+00 0. -1.
         22    1    1    2    0    0 -0.58103023959E+03 -0.34442163645E+03  0.18146717156E+04  0.19362995219E+04  0.00000000000E+00 0.  1.
<mgrwt>
<rscale>  0 0.27402564E+04</rscale>
<asrwt>0</asrwt>
<pdfrwt beam="1">  1        2 0.30899314E+00 0.27402564E+04</pdfrwt>
<pdfrwt beam="2">  1       -2 0.14379602E+00 0.27402564E+04</pdfrwt>
<totfact> 0.19357163E+00</totfact>
</mgrwt>
</event>
<event>
 6    1  0.2325157E-005  0.6238720E+04  0.7818608E-02  0.7661488E-01
          2   -1    0    0  501    0  0.00000000000E+00  0.00000000000E+00  0.47280134133E+04  0.47280134133E+04  0.00000000000E+00 0.  1.
         -2   -1    0    0    0  501 -0.00000000000E+00 -0.00000000000E+00 -0.20580329995E+04  0.20580329995E+04  0.00000000000E+00 0. -1.
         23    2    1    2    0    0  0.12092684778E+04 -0.30989188957E+03  0.44439458930E+04  0.46168722022E+04  0.92144436537E+02 0.  0.
         13    1    3    3    0    0  0.66897629872E+03 -0.17171671975E+03  0.22884242603E+04  0.23903768563E+04  0.00000000000E+00 0. -1.
        -13    1    3    3    0    0  0.54029217911E+03 -0.13817516982E+03  0.21555216327E+04  0.22264953459E+04  0.00000000000E+00 0.  1.
         22    1    1    2    0    0 -0.12092684778E+04  0.30989188957E+03 -0.17739654792E+04  0.21691742106E+04  0.00000000000E+00 0. -1.
<mgrwt>
<rscale>  0 0.62387203E+04</rscale>
<asrwt>0</asrwt>
<pdfrwt beam="1">  1        2 0.72738668E+00 0.62387203E+04</pdfrwt>
<pdfrwt beam="2">  1       -2 0.31662046E+00 0.62387203E+04</pdfrwt>
<totfact> 0.11688731E-03</totfact>
</mgrwt>
</event>
<event>
 6    1  0.2325157E-005  0.2158140E+04  0.7818608E-02  0.8536056E-01
          2   -1    0    0  501    0  0.00000000000E+00  0.00000000000E+00  0.11475186309E+04  0.11475186309E+04  0.00000000000E+00 0.  1.
         -2   -1    0    0    0  501 -0.00000000000E+00 -0.00000000000E+00 -0.10147038445E+04  0.10147038445E+04  0.00000000000E+00 0. -1.
         23    2    1    2    0    0  0.10616461780E+04  0.86270329742E+02 -0.93526306235E+02  0.10732938885E+04  0.93152691662E+02 0.  0.
         11    1    3    3    0    0  0.74903539945E+03  0.10186749075E+03 -0.54932644022E+02  0.75792388185E+03  0.00000000000E+00 0.  1.
        -11    1    3    3    0    0  0.31261077860E+03 -0.15597161009E+02 -0.38593662212E+02  0.31537000664E+03  0.00000000000E+00 0. -1.
         22    1    1    2    0    0 -0.10616461780E+04 -0.86270329742E+02  0.22634109263E+03  0.10889285869E+04  0.00000000000E+00 0. -1.
<mgrwt>
<rscale>  0 0.21581395E+04</rscale>
<asrwt>0</asrwt>
<pdfrwt beam="1">  1        2 0.17654133E+00 0.21581395E+04</pdfrwt>
<pdfrwt beam="2">  1       -2 0.15610828E+00 0.21581395E+04</pdfrwt>
<totfact> 0.50321892E+00</totfact>
</mgrwt>
</event>
<event>
 6    1  0.2325157E-005  0.4917230E+03  0.7818608E-02  0.1015962E+00
          2   -1    0    0  501    0  0.00000000000E+00  0.00000000000E+00  0.17360321719E+04  0.17360321719E+04  0.00000000000E+00 0.  1.
         -2   -1    0    0    0  501 -0.00000000000E+00 -0.00000000000E+00 -0.34819567288E+02  0.34819567288E+02  0.00000000000E+00 0. -1.
         23    2    1    2    0    0  0.18156986897E+03 -0.66870963328E+02  0.13752371923E+04  0.13917748176E+04  0.91216581492E+02 0.  0.
         13    1    3    3    0    0  0.41126320493E+02  0.21079256387E+02  0.38567355207E+03  0.38843248842E+03  0.00000000000E+00 0. -1.
        -13    1    3    3    0    0  0.14044354848E+03 -0.87950219715E+02  0.98956364020E+03  0.10033423291E+04  0.00000000000E+00 0.  1.
         22    1    1    2    0    0 -0.18156986897E+03  0.66870963328E+02  0.32597541230E+03  0.37907692159E+03  0.00000000000E+00 0. -1.
<mgrwt>
<rscale>  0 0.49172305E+03</rscale>
<asrwt>0</asrwt>
<pdfrwt beam="1">  1        2 0.26708181E+00 0.49172305E+03</pdfrwt>
<pdfrwt beam="2">  1       -2 0.53568578E-02 0.49172305E+03</pdfrwt>
<totfact> 0.17835772E+03</totfact>
</mgrwt>
</event>
<event>
 6    1  0.2325157E-005  0.2487590E+04  0.7818608E-02  0.8407420E-01
          2   -1    0    0  501    0  0.00000000000E+00  0.00000000000E+00  0.22026859635E+04  0.22026859635E+04  0.00000000000E+00 0.  1.
         -2   -1    0    0    0  501 -0.00000000000E+00 -0.00000000000E+00 -0.70233589188E+03  0.70233589188E+03  0.00000000000E+00 0. -1.
         23    2    1    2    0    0  0.10052075650E+04  0.71687623439E+03  0.91061986154E+03  0.15367618271E+04  0.89747405674E+02 0.  0.
         13    1    3    3    0    0  0.40605261590E+03  0.24096946922E+03  0.32491009824E+03  0.57315930065E+03  0.00000000000E+00 0.  1.
        -13    1    3    3    0    0  0.59915494914E+03  0.47590676517E+03  0.58570976329E+03  0.96360252648E+03  0.00000000000E+00 0. -1.
         22    1    1    2    0    0 -0.10052075650E+04 -0.71687623439E+03  0.58973021007E+03  0.13682600283E+04  0.00000000000E+00 0. -1.
<mgrwt>
<rscale>  0 0.24875895E+04</rscale>
<asrwt>0</asrwt>
<pdfrwt beam="1">  1        2 0.33887476E+00 0.24875895E+04</pdfrwt>
<pdfrwt beam="2">  1       -2 0.10805168E+00 0.24875895E+04</pdfrwt>
<totfact> 0.31514686E+00</totfact>
</mgrwt>
</event>
<event>
 6    1  0.2325157E-005  0.3286932E+04  0.7818608E-02  0.8166228E-01
         -2   -1    0    0    0  501 -0.00000000000E+00  0.00000000000E+00  0.21006416871E+04  0.21006416871E+04  0.00000000000E+00 0. -1.
          2   -1    0    0  501    0  0.00000000000E+00 -0.00000000000E+00 -0.12857884270E+04  0.12857884270E+04  0.00000000000E+00 0.  1.
         23    2    1    2    0    0  0.10359037577E+04  0.57018376845E+03  0.15818118000E+04  0.19770218953E+04  0.90999335500E+02 0.  0.
         11    1    3    3    0    0  0.10888291089E+03  0.32824017857E+02  0.13216258041E+03  0.17435553359E+03  0.00000000000E+00 0. -1.
        -11    1    3    3    0    0  0.92702084683E+03  0.53735975059E+03  0.14496492195E+04  0.18026663617E+04  0.00000000000E+00 0.  1.
         22    1    1    2    0    0 -0.10359037577E+04 -0.57018376845E+03 -0.76695853987E+03  0.14094082187E+04  0.00000000000E+00 0.  1.
<mgrwt>
<rscale>  0 0.32869322E+04</rscale>
<asrwt>0</asrwt>
<pdfrwt beam="1">  1        2 0.19781360E+00 0.32869322E+04</pdfrwt>
<pdfrwt beam="2">  1       -2 0.32317564E+00 0.32869322E+04</pdfrwt>
<totfact> 0.32234957E-01</totfact>
</mgrwt>
</event>
<event>
 6    1  0.2325157E-005  0.1754598E+04  0.7818608E-02  0.8730824E-01
          2   -1    0    0  501    0  0.00000000000E+00  0.00000000000E+00  0.87528090552E+03  0.87528090552E+03  0.00000000000E+00 0.  1.
         -2   -1    0    0    0  501 -0.00000000000E+00 -0.00000000000E+00 -0.87932146475E+03  0.87932146475E+03  0.00000000000E+00 0. -1.
         23    2    1    2    0    0 -0.37218715164E+02  0.78909414469E+03 -0.37830471217E+03  0.88045795537E+03  0.89649060182E+02 0.  0.
         11    1    3    3    0    0  0.26450116930E+02  0.39042790425E+03 -0.18683631432E+03  0.43363736630E+03  0.00000000000E+00 0.  1.
        -11    1    3    3    0    0 -0.63668832094E+02  0.39866624043E+03 -0.19146839785E+03  0.44682058907E+03  0.00000000000E+00 0. -1.
         22    1    1    2    0    0  0.37218715164E+02 -0.78909414469E+03  0.37426415294E+03  0.87414441491E+03  0.00000000000E+00 0.  1.
<mgrwt>
<rscale>  0 0.17545977E+04</rscale>
<asrwt>0</asrwt>
<pdfrwt beam="1">  1        2 0.13465860E+00 0.17545977E+04</pdfrwt>
<pdfrwt beam="2">  1       -2 0.13528022E+00 0.17545977E+04</pdfrwt>
<totfact> 0.11332318E+01</totfact>
</mgrwt>
</event>
<event>
 6    1  0.3417980E-005  0.3222303E+04  0.7818608E-02  0.8182952E-01
         -2   -1    0    0    0  501 -0.00000000000E+00  0.00000000000E+00  0.18205339881E+04  0.18205339881E+04  0.00000000000E+00 0. -1.
          2   -1    0    0  501    0  0.00000000000E+00 -0.00000000000E+00 -0.14258500113E+04  0.14258500113E+04  0.00000000000E+00 0.  1.
         23    2    1    2    0    0  0.13333389176E+04  0.87960502075E+03  0.39941629590E+03  0.16490361799E+04  0.91045502656E+02 0.  0.
         11    1    3    3    0    0  0.60214492603E+03  0.35200697866E+03  0.19975639281E+03  0.72552742294E+03  0.00000000000E+00 0.  1.
        -11    1    3    3    0    0  0.73119399156E+03  0.52759804209E+03  0.19965990309E+03  0.92350875698E+03  0.00000000000E+00 0. -1.
         22    1    1    2    0    0 -0.13333389176E+04 -0.87960502075E+03 -0.47323190597E+01  0.15973478195E+04  0.00000000000E+00 0. -1.
<mgrwt>
<rscale>  0 0.32223025E+04</rscale>
<asrwt>0</asrwt>
<pdfrwt beam="1">  1        2 0.21936154E+00 0.32223025E+04</pdfrwt>
<pdfrwt beam="2">  1       -2 0.28008215E+00 0.32223025E+04</pdfrwt>
<totfact> 0.49446977E-01</totfact>
</mgrwt>
</event>
<event>
 6    1  0.2325157E-005  0.2740502E+04  0.7818608E-02  0.8321982E-01
         -1   -1    0    0    0  501 -0.00000000000E+00  0.00000000000E+00  0.93505773877E+03  0.93505773877E+03  0.00000000000E+00 0. -1.
          1   -1    0    0  501    0  0.00000000000E+00 -0.00000000000E+00 -0.20079912500E+04  0.20079912500E+04  0.00000000000E+00 0.  1.
         23    2    1    2    0    0 -0.67515444908E+03  0.28066034699E+03  0.70558148085E+03  0.10201035040E+04  0.90344740815E+02 0.  0.
         13    1    3    3    0    0 -0.20847865718E+03  0.76275372836E+02  0.27214485856E+03  0.35120379702E+03  0.00000000000E+00 0. -1.
        -13    1    3    3    0    0 -0.46667579190E+03  0.20438497416E+03  0.43343662229E+03  0.66889970694E+03  0.00000000000E+00 0.  1.
         22    1    1    2    0    0  0.67515444908E+03 -0.28066034699E+03 -0.17785149921E+04  0.19229454848E+04  0.00000000000E+00 0.  1.
<mgrwt>
<rscale>  0 0.27405020E+04</rscale>
<asrwt>0</asrwt>
<pdfrwt beam="1">  1        1 0.30892173E+00 0.27405020E+04</pdfrwt>
<pdfrwt beam="2">  1       -1 0.14385504E+00 0.27405020E+04</pdfrwt>
<totfact> 0.99912961E-01</totfact>
</mgrwt>
</event>
<event>
 6    1  0.2325157E-005  0.3178519E+04  0.7818608E-02  0.8194513E-01
         -2   -1    0    0    0  501 -0.00000000000E+00  0.00000000000E+00  0.24425820791E+04  0.24425820791E+04  0.00000000000E+00 0. -1.
          2   -1    0    0  501    0  0.00000000000E+00 -0.00000000000E+00 -0.10340476547E+04  0.10340476547E+04  0.00000000000E+00 0.  1.
         23    2    1    2    0    0  0.25041033755E+03  0.58008508431E+03  0.22984556059E+04  0.23852252480E+04  0.84836721827E+02 0.  0.
         13    1    3    3    0    0  0.11541089034E+03  0.28818267086E+03  0.12849062718E+04  0.13218748249E+04  0.00000000000E+00 0. -1.
        -13    1    3    3    0    0  0.13499944721E+03  0.29190241345E+03  0.10135493341E+04  0.10633504232E+04  0.00000000000E+00 0.  1.
         22    1    1    2    0    0 -0.25041033755E+03 -0.58008508431E+03 -0.88992118154E+03  0.10914044858E+04  0.00000000000E+00 0.  1.
<mgrwt>
<rscale>  0 0.31785193E+04</rscale>
<asrwt>0</asrwt>
<pdfrwt beam="1">  1        2 0.15908426E+00 0.31785193E+04</pdfrwt>
<pdfrwt beam="2">  1       -2 0.37578186E+00 0.31785193E+04</pdfrwt>
<totfact> 0.21528554E-01</totfact>
</mgrwt>
</event>
<event>
 6    1  0.2325157E-005  0.1183335E+04  0.7818608E-02  0.9127570E-01
          2   -1    0    0  501    0  0.00000000000E+00  0.00000000000E+00  0.62164790414E+03  0.62164790414E+03  0.00000000000E+00 0.  1.
         -2   -1    0    0    0  501 -0.00000000000E+00 -0.00000000000E+00 -0.56313301098E+03  0.56313301098E+03  0.00000000000E+00 0. -1.
         23    2    1    2    0    0  0.21846507779E+03 -0.53198632547E+03 -0.91328195912E+02  0.59048352151E+03  0.97946460425E+02 0.  0.
         13    1    3    3    0    0  0.11118215555E+03 -0.36064970544E+03 -0.91492119981E+02  0.38833038739E+03  0.00000000000E+00 0. -1.
        -13    1    3    3    0    0  0.10728292224E+03 -0.17133662002E+03  0.16392406857E+00  0.20215313412E+03  0.00000000000E+00 0.  1.
         22    1    1    2    0    0 -0.21846507779E+03  0.53198632547E+03  0.14984308908E+03  0.59429739360E+03  0.00000000000E+00 0. -1.
<mgrwt>
<rscale>  0 0.11833350E+04</rscale>
<asrwt>0</asrwt>
<pdfrwt beam="1">  1        2 0.95638139E-01 0.11833350E+04</pdfrwt>
<pdfrwt beam="2">  1       -2 0.86635848E-01 0.11833350E+04</pdfrwt>
<totfact> 0.54153083E+01</totfact>
</mgrwt>
</event>
<event>
 6    1  0.2325157E-005  0.3565193E+04  0.7818608E-02  0.8098512E-01
          2   -1    0    0  501    0  0.00000000000E+00  0.00000000000E+00  0.18377279364E+04  0.18377279364E+04  0.00000000000E+00 0.  1.
         -2   -1    0    0    0  501 -0.00000000000E+00 -0.00000000000E+00 -0.17291186902E+04  0.17291186902E+04  0.00000000000E+00 0. -1.
         23    2    1    2    0    0 -0.12831098273E+04  0.82357938155E+03 -0.86749638569E+03  0.17564775949E+04  0.89497125003E+02 0.  0.
         13    1    3    3    0    0 -0.47586950161E+03  0.30058330319E+03 -0.37007916573E+03  0.67361761678E+03  0.00000000000E+00 0. -1.
        -13    1    3    3    0    0 -0.80724032571E+03  0.52299607836E+03 -0.49741721996E+03  0.10828599781E+04  0.00000000000E+00 0.  1.
         22    1    1    2    0    0  0.12831098273E+04 -0.82357938155E+03  0.97610563186E+03  0.18103690318E+04  0.00000000000E+00 0.  1.
<mgrwt>
<rscale>  0 0.35651927E+04</rscale>
<asrwt>0</asrwt>
<pdfrwt beam="1">  1        2 0.28272738E+00 0.35651927E+04</pdfrwt>
<pdfrwt beam="2">  1       -2 0.26601826E+00 0.35651927E+04</pdfrwt>
<totfact> 0.34451827E-01</totfact>
</mgrwt>
</event>
<event>
 6    1  0.2325157E-005  0.3494596E+04  0.7818608E-02  0.8115072E-01
         -2   -1    0    0    0  501 -0.00000000000E+00  0.00000000000E+00  0.81054015324E+03  0.81054015324E+03  0.00000000000E+00 0. -1.
          2   -1    0    0  501    0  0.00000000000E+00 -0.00000000000E+00 -0.37666867818E+04  0.37666867818E+04  0.00000000000E+00 0.  1.
         23    2    1    2    0    0  0.23518783825E+03  0.12465929899E+04  0.92568009680E+02  0.12751111970E+04  0.89623248399E+02 0.  0.
         13    1    3    3    0    0  0.80962491798E+02  0.47484853494E+03 -0.75808638707E+01  0.48176085946E+03  0.00000000000E+00 0.  1.
        -13    1    3    3    0    0  0.15422534645E+03  0.77174445497E+03  0.10014887355E+03  0.79335033758E+03  0.00000000000E+00 0. -1.
         22    1    1    2    0    0 -0.23518783825E+03 -0.12465929899E+04 -0.30487146383E+04  0.33021157380E+04  0.00000000000E+00 0.  1.
<mgrwt>
<rscale>  0 0.34945963E+04</rscale>
<asrwt>0</asrwt>
<pdfrwt beam="1">  1        2 0.57949027E+00 0.34945963E+04</pdfrwt>
<pdfrwt beam="2">  1       -2 0.12469849E+00 0.34945963E+04</pdfrwt>
<totfact> 0.20596974E-01</totfact>
</mgrwt>
</event>
<event>
 6    1  0.2325157E-005  0.1952659E+04  0.7818608E-02  0.8629080E-01
         -2   -1    0    0    0  501 -0.00000000000E+00  0.00000000000E+00  0.59486676210E+03  0.59486676210E+03  0.00000000000E+00 0. -1.
          2   -1    0    0  501    0  0.00000000000E+00 -0.00000000000E+00 -0.16024077718E+04  0.16024077718E+04  0.00000000000E+00 0.  1.
         23    2    1    2    0    0  0.62717021293E+03 -0.63082298126E+03 -0.58053390698E+02  0.89619542473E+03  0.92281815419E+02 0.  0.
         13    1    3    3    0    0  0.11884632434E+03 -0.10048157013E+03  0.22224545140E+02  0.15720981252E+03  0.00000000000E+00 0. -1.
        -13    1    3    3    0    0  0.50832388859E+03 -0.53034141113E+03 -0.80277935839E+02  0.73898561221E+03  0.00000000000E+00 0.  1.
         22    1    1    2    0    0 -0.62717021293E+03  0.63082298126E+03 -0.94948761901E+03  0.13010791092E+04  0.00000000000E+00 0.  1.
<mgrwt>
<rscale>  0 0.19526588E+04</rscale>
<asrwt>0</asrwt>
<pdfrwt beam="1">  1        2 0.24652427E+00 0.19526588E+04</pdfrwt>
<pdfrwt beam="2">  1       -2 0.91517965E-01 0.19526588E+04</pdfrwt>
<totfact> 0.10541526E+01</totfact>
</mgrwt>
</event>
<event>
 6    1  0.2325157E-005  0.3020101E+04  0.7818608E-02  0.8238014E-01
          2   -1    0    0  501    0  0.00000000000E+00  0.00000000000E+00  0.15233973988E+04  0.15233973988E+04  0.00000000000E+00 0.  1.
         -2   -1    0    0    0  501 -0.00000000000E+00 -0.00000000000E+00 -0.14968203540E+04  0.14968203540E+04  0.00000000000E+00 0. -1.
         23    2    1    2    0    0 -0.67595231547E+03 -0.53659836598E+03 -0.12242812945E+04  0.15005151754E+04  0.88497256001E+02 0.  0.
         11    1    3    3    0    0 -0.27720873678E+03 -0.18824125656E+03 -0.41459181881E+03  0.53307206890E+03  0.00000000000E+00 0. -1.
        -11    1    3    3    0    0 -0.39874357869E+03 -0.34835710941E+03 -0.80968947567E+03  0.96744310646E+03  0.00000000000E+00 0.  1.
         22    1    1    2    0    0  0.67595231547E+03  0.53659836598E+03  0.12508583392E+04  0.15197025775E+04  0.00000000000E+00 0.  1.
<mgrwt>
<rscale>  0 0.30201008E+04</rscale>
<asrwt>0</asrwt>
<pdfrwt beam="1">  1        2 0.23436883E+00 0.30201008E+04</pdfrwt>
<pdfrwt beam="2">  1       -2 0.23028005E+00 0.30201008E+04</pdfrwt>
<totfact> 0.89615172E-01</totfact>
</mgrwt>
</event>
<event>
 6    1  0.2325157E-005  0.3161556E+04  0.7818608E-02  0.8199044E-01
          2   -1    0    0  501    0  0.00000000000E+00  0.00000000000E+00  0.27893896448E+04  0.27893896448E+04  0.00000000000E+00 0. -1.
         -2   -1    0    0    0  501 -0.00000000000E+00 -0.00000000000E+00 -0.89584453670E+03  0.89584453670E+03  0.00000000000E+00 0.  1.
         23    2    1    2    0    0  0.14656541394E+02 -0.70414876430E+03 -0.70044436454E+03  0.99733134087E+03  0.89482954800E+02 0.  0.
         11    1    3    3    0    0 -0.42268986575E+01 -0.15611857493E+02 -0.39648501687E+02  0.42820561097E+02  0.00000000000E+00 0.  1.
        -11    1    3    3    0    0  0.18883440051E+02 -0.68853690681E+03 -0.66079586285E+03  0.95451077977E+03  0.00000000000E+00 0. -1.
         22    1    1    2    0    0 -0.14656541394E+02  0.70414876430E+03  0.25939894726E+04  0.26879028406E+04  0.00000000000E+00 0. -1.
<mgrwt>
<rscale>  0 0.31615562E+04</rscale>
<asrwt>0</asrwt>
<pdfrwt beam="1">  1        2 0.42913686E+00 0.31615562E+04</pdfrwt>
<pdfrwt beam="2">  1       -2 0.13782224E+00 0.31615562E+04</pdfrwt>
<totfact> 0.74124114E-01</totfact>
</mgrwt>
</event>
<event>
 6    1  0.2325157E-005  0.1399196E+04  0.7818608E-02  0.8954401E-01
          2   -1    0    0  501    0  0.00000000000E+00  0.00000000000E+00  0.17005430347E+04  0.17005430347E+04  0.00000000000E+00 0.  1.
         -2   -1    0    0    0  501 -0.00000000000E+00 -0.00000000000E+00 -0.28781220475E+03  0.28781220475E+03  0.00000000000E+00 0. -1.
         23    2    1    2    0    0 -0.34134027091E+03 -0.53672509731E+03  0.30560529757E+03  0.71151775758E+03  0.90972033203E+02 0.  0.
         13    1    3    3    0    0 -0.30494714389E+03 -0.41479328050E+03  0.25576267819E+03  0.57485717675E+03  0.00000000000E+00 0. -1.
        -13    1    3    3    0    0 -0.36393127021E+02 -0.12193181681E+03  0.49842619381E+02  0.13666058083E+03  0.00000000000E+00 0.  1.
         22    1    1    2    0    0  0.34134027091E+03  0.53672509731E+03  0.11071255323E+04  0.12768374818E+04  0.00000000000E+00 0.  1.
<mgrwt>
<rscale>  0 0.13991955E+04</rscale>
<asrwt>0</asrwt>
<pdfrwt beam="1">  1        2 0.26162200E+00 0.13991955E+04</pdfrwt>
<pdfrwt beam="2">  1       -2 0.44278802E-01 0.13991955E+04</pdfrwt>
<totfact> 0.46134309E+01</totfact>
</mgrwt>
</event>
<event>
 6    1  0.2325157E-005  0.2528804E+04  0.7818608E-02  0.8392795E-01
         -2   -1    0    0    0  501 -0.00000000000E+00  0.00000000000E+00  0.69487078517E+03  0.69487078517E+03  0.00000000000E+00 0. -1.
          2   -1    0    0  501    0  0.00000000000E+00 -0.00000000000E+00 -0.23007342173E+04  0.23007342173E+04  0.00000000000E+00 0.  1.
         23    2    1    2    0    0 -0.29796982378E+02 -0.91563848075E+03  0.22548107096E+03  0.94789790023E+03  0.91580720234E+02 0.  0.
         11    1    3    3    0    0  0.22043682796E+02 -0.50900763806E+03  0.10005493344E+03  0.51921641852E+03  0.00000000000E+00 0.  1.
        -11    1    3    3    0    0 -0.51840665174E+02 -0.40663084269E+03  0.12542613752E+03  0.42868148172E+03  0.00000000000E+00 0. -1.
         22    1    1    2    0    0  0.29796982378E+02  0.91563848075E+03 -0.18313445031E+04  0.20477071022E+04  0.00000000000E+00 0.  1.
<mgrwt>
<rscale>  0 0.25288045E+04</rscale>
<asrwt>0</asrwt>
<pdfrwt beam="1">  1        2 0.35395911E+00 0.25288045E+04</pdfrwt>
<pdfrwt beam="2">  1       -2 0.10690320E+00 0.25288045E+04</pdfrwt>
<totfact> 0.28365744E+00</totfact>
</mgrwt>
</event>
<event>
 6    1  0.2325157E-005  0.4058302E+04  0.7818608E-02  0.7992887E-01
          1   -1    0    0  501    0  0.00000000000E+00  0.00000000000E+00  0.34459358795E+04  0.34459358795E+04  0.00000000000E+00 0.  1.
         -1   -1    0    0    0  501 -0.00000000000E+00 -0.00000000000E+00 -0.11948726920E+04  0.11948726920E+04  0.00000000000E+00 0. -1.
         23    2    1    2    0    0  0.86600601269E+03  0.87593408416E+03 -0.71639898485E+03  0.14278568635E+04  0.91218327957E+02 0.  0.
         13    1    3    3    0    0  0.13709444823E+03  0.13483718018E+03 -0.74930311694E+02  0.20637467021E+03  0.00000000000E+00 0. -1.
        -13    1    3    3    0    0  0.72891156446E+03  0.74109690398E+03 -0.64146867316E+03  0.12214821933E+04  0.00000000000E+00 0.  1.
         22    1    1    2    0    0 -0.86600601269E+03 -0.87593408416E+03  0.29674621723E+04  0.32129517080E+04  0.00000000000E+00 0.  1.
<mgrwt>
<rscale>  0 0.40583024E+04</rscale>
<asrwt>0</asrwt>
<pdfrwt beam="1">  1        1 0.53014398E+00 0.40583024E+04</pdfrwt>
<pdfrwt beam="2">  1       -1 0.18382657E+00 0.40583024E+04</pdfrwt>
<totfact> 0.41879106E-02</totfact>
</mgrwt>
</event>
<event>
 6    1  0.2325157E-005  0.3498935E+04  0.7818608E-02  0.8114042E-01
         -2   -1    0    0    0  501 -0.00000000000E+00  0.00000000000E+00  0.26904692137E+04  0.26904692137E+04  0.00000000000E+00 0. -1.
          2   -1    0    0  501    0  0.00000000000E+00 -0.00000000000E+00 -0.11375844381E+04  0.11375844381E+04  0.00000000000E+00 0.  1.
         23    2    1    2    0    0 -0.13807846830E+04  0.10439552875E+04  0.50910589405E+03  0.18066968459E+04  0.92497018162E+02 0.  0.
         11    1    3    3    0    0 -0.32821548111E+03  0.29500682349E+03  0.11402260932E+03  0.45580213183E+03  0.00000000000E+00 0. -1.
        -11    1    3    3    0    0 -0.10525692019E+04  0.74894846400E+03  0.39508328473E+03  0.13508947140E+04  0.00000000000E+00 0.  1.
         22    1    1    2    0    0  0.13807846830E+04 -0.10439552875E+04  0.10437788816E+04  0.20213568059E+04  0.00000000000E+00 0. -1.
<mgrwt>
<rscale>  0 0.34989346E+04</rscale>
<asrwt>0</asrwt>
<pdfrwt beam="1">  1        2 0.17501299E+00 0.34989346E+04</pdfrwt>
<pdfrwt beam="2">  1       -2 0.41391834E+00 0.34989346E+04</pdfrwt>
<totfact> 0.10199893E-01</totfact>
</mgrwt>
</event>
<event>
 6    1  0.2648985E-005  0.2546473E+04  0.7818608E-02  0.8386614E-01
         -2   -1    0    0    0  501 -0.00000000000E+00  0.00000000000E+00  0.13499018542E+04  0.13499018542E+04  0.00000000000E+00 0. -1.
          2   -1    0    0  501    0  0.00000000000E+00 -0.00000000000E+00 -0.12009248160E+04  0.12009248160E+04  0.00000000000E+00 0.  1.
         23    2    1    2    0    0  0.26315693303E+03  0.11445733531E+04  0.56301531824E+03  0.13055446021E+04  0.90336744917E+02 0.  0.
         11    1    3    3    0    0  0.40090348494E+02  0.34813634671E+03  0.15242054908E+03  0.38214941544E+03  0.00000000000E+00 0. -1.
        -11    1    3    3    0    0  0.22306658453E+03  0.79643700636E+03  0.41059476916E+03  0.92339518663E+03  0.00000000000E+00 0.  1.
         22    1    1    2    0    0 -0.26315693303E+03 -0.11445733531E+04 -0.41403828002E+03  0.12452820682E+04  0.00000000000E+00 0.  1.
<mgrwt>
<rscale>  0 0.25464726E+04</rscale>
<asrwt>0</asrwt>
<pdfrwt beam="1">  1        2 0.18475766E+00 0.25464726E+04</pdfrwt>
<pdfrwt beam="2">  1       -2 0.20767721E+00 0.25464726E+04</pdfrwt>
<totfact> 0.19920391E+00</totfact>
</mgrwt>
</event>
<event>
 6    1  0.2325157E-005  0.2094629E+04  0.7818608E-02  0.8563613E-01
          2   -1    0    0  501    0  0.00000000000E+00  0.00000000000E+00  0.11578810342E+04  0.11578810342E+04  0.00000000000E+00 0.  1.
         -2   -1    0    0    0  501 -0.00000000000E+00 -0.00000000000E+00 -0.94730571472E+03  0.94730571472E+03  0.00000000000E+00 0. -1.
         23    2    1    2    0    0  0.15965550569E+03 -0.23541250372E+03  0.11164820732E+04  0.11556732030E+04  0.90218650257E+02 0.  0.
         13    1    3    3    0    0  0.65190983353E+02 -0.96354319014E+02  0.29387175048E+03  0.31606110934E+03  0.00000000000E+00 0.  1.
        -13    1    3    3    0    0  0.94464522334E+02 -0.13905818471E+03  0.82261032275E+03  0.83961209366E+03  0.00000000000E+00 0. -1.
         22    1    1    2    0    0 -0.15965550569E+03  0.23541250372E+03 -0.90590675376E+03  0.94951354593E+03  0.00000000000E+00 0. -1.
<mgrwt>
<rscale>  0 0.20946287E+04</rscale>
<asrwt>0</asrwt>
<pdfrwt beam="1">  1        2 0.17813554E+00 0.20946287E+04</pdfrwt>
<pdfrwt beam="2">  1       -2 0.14573934E+00 0.20946287E+04</pdfrwt>
<totfact> 0.59860465E+00</totfact>
</mgrwt>
</event>
<event>
 6    1  0.2325157E-005  0.1751662E+04  0.7818608E-02  0.8732436E-01
         -2   -1    0    0    0  501 -0.00000000000E+00  0.00000000000E+00  0.58672224527E+03  0.58672224527E+03  0.00000000000E+00 0.  1.
          2   -1    0    0  501    0  0.00000000000E+00 -0.00000000000E+00 -0.13073984360E+04  0.13073984360E+04  0.00000000000E+00 0. -1.
         23    2    1    2    0    0  0.71270355780E+03 -0.32981633242E+03  0.51952760706E+02  0.79244891935E+03  0.92471757810E+02 0.  0.
         11    1    3    3    0    0  0.17560381897E+02  0.59190408770E+01 -0.17297802857E+01  0.18611668305E+02  0.00000000000E+00 0. -1.
        -11    1    3    3    0    0  0.69514317591E+03 -0.33573537330E+03  0.53682540992E+02  0.77383725104E+03  0.00000000000E+00 0.  1.
         22    1    1    2    0    0 -0.71270355780E+03  0.32981633242E+03 -0.77262895144E+03  0.11016717619E+04  0.00000000000E+00 0. -1.
<mgrwt>
<rscale>  0 0.17516618E+04</rscale>
<asrwt>0</asrwt>
<pdfrwt beam="1">  1        2 0.20113822E+00 0.17516618E+04</pdfrwt>
<pdfrwt beam="2">  1       -2 0.90264961E-01 0.17516618E+04</pdfrwt>
<totfact> 0.16284036E+01</totfact>
</mgrwt>
</event>
<event>
 6    1  0.2325157E-005  0.8264296E+03  0.7818608E-02  0.9522530E-01
         -2   -1    0    0    0  501 -0.00000000000E+00  0.00000000000E+00  0.19668599035E+03  0.19668599035E+03  0.00000000000E+00 0. -1.
          2   -1    0    0  501    0  0.00000000000E+00 -0.00000000000E+00 -0.86811718775E+03  0.86811718775E+03  0.00000000000E+00 0.  1.
         23    2    1    2    0    0 -0.33888888176E+03 -0.11195938429E+03 -0.59555055161E+03  0.69992175857E+03  0.88484070294E+02 0.  0.
         11    1    3    3    0    0 -0.12691706511E+03 -0.72510432750E+02 -0.30390559317E+03  0.33723035723E+03  0.00000000000E+00 0.  1.
        -11    1    3    3    0    0 -0.21197181665E+03 -0.39448951538E+02 -0.29164495843E+03  0.36269140135E+03  0.00000000000E+00 0. -1.
         22    1    1    2    0    0  0.33888888176E+03  0.11195938429E+03 -0.75880645787E+02  0.36488141953E+03  0.00000000000E+00 0. -1.
<mgrwt>
<rscale>  0 0.82642964E+03</rscale>
<asrwt>0</asrwt>
<pdfrwt beam="1">  1        2 0.13355649E+00 0.82642964E+03</pdfrwt>
<pdfrwt beam="2">  1       -2 0.30259384E-01 0.82642964E+03</pdfrwt>
<totfact> 0.31223930E+02</totfact>
</mgrwt>
</event>
<event>
 6    1  0.2325157E-005  0.9237450E+03  0.7818608E-02  0.9396376E-01
          2   -1    0    0  501    0  0.00000000000E+00  0.00000000000E+00  0.38909864376E+03  0.38909864376E+03  0.00000000000E+00 0.  1.
         -2   -1    0    0    0  501 -0.00000000000E+00 -0.00000000000E+00 -0.54825740531E+03  0.54825740531E+03  0.00000000000E+00 0. -1.
         23    2    1    2    0    0  0.58578117396E+02 -0.10864281065E+03  0.36650523704E+03  0.39739559167E+03  0.91446767881E+02 0.  0.
         13    1    3    3    0    0  0.58422740282E+02 -0.47703164340E+02  0.28966577061E+03  0.29932435106E+03  0.00000000000E+00 0.  1.
        -13    1    3    3    0    0  0.15537711401E+00 -0.60939646310E+02  0.76839466426E+02  0.98071240612E+02  0.00000000000E+00 0. -1.
         22    1    1    2    0    0 -0.58578117396E+02  0.10864281065E+03 -0.52566399859E+03  0.53996045740E+03  0.00000000000E+00 0. -1.
<mgrwt>
<rscale>  0 0.92374501E+03</rscale>
<asrwt>0</asrwt>
<pdfrwt beam="1">  1        2 0.59861330E-01 0.92374501E+03</pdfrwt>
<pdfrwt beam="2">  1       -2 0.84347293E-01 0.92374501E+03</pdfrwt>
<totfact> 0.10088083E+02</totfact>
</mgrwt>
</event>
<event>
 6    1  0.2325157E-005  0.6538178E+03  0.7818608E-02  0.9799642E-01
          2   -1    0    0  501    0  0.00000000000E+00  0.00000000000E+00  0.10558766326E+04  0.10558766326E+04  0.00000000000E+00 0.  1.
         -2   -1    0    0    0  501 -0.00000000000E+00 -0.00000000000E+00 -0.10121393424E+03  0.10121393424E+03  0.00000000000E+00 0. -1.
         23    2    1    2    0    0  0.93449016111E+02 -0.18772613267E+03  0.56180578405E+02  0.23446174689E+03  0.88556388074E+02 0.  0.
         11    1    3    3    0    0  0.94826811840E+02 -0.96028746556E+02  0.22814179884E+02  0.13687268249E+03  0.00000000000E+00 0. -1.
        -11    1    3    3    0    0 -0.13777957286E+01 -0.91697386112E+02  0.33366398521E+02  0.97589064403E+02  0.00000000000E+00 0.  1.
         22    1    1    2    0    0 -0.93449016111E+02  0.18772613267E+03  0.89848211993E+03  0.92262881991E+03  0.00000000000E+00 0.  1.
<mgrwt>
<rscale>  0 0.65381780E+03</rscale>
<asrwt>0</asrwt>
<pdfrwt beam="1">  1        2 0.16244255E+00 0.65381780E+03</pdfrwt>
<pdfrwt beam="2">  1       -2 0.15571375E-01 0.65381780E+03</pdfrwt>
<totfact> 0.76959397E+02</totfact>
</mgrwt>
</event>
<event>
 6    1  0.2325157E-005  0.3900050E+04  0.7818608E-02  0.8025019E-01
          2   -1    0    0  501    0  0.00000000000E+00  0.00000000000E+00  0.36929718320E+04  0.36929718320E+04  0.00000000000E+00 0.  1.
         -2   -1    0    0    0  501 -0.00000000000E+00 -0.00000000000E+00 -0.10296850870E+04  0.10296850870E+04  0.00000000000E+00 0. -1.
         23    2    1    2    0    0 -0.17922925292E+04 -0.18348342492E+03  0.22325134537E+04  0.28702141247E+04  0.89633271959E+02 0.  0.
         13    1    3    3    0    0 -0.98641490312E+03 -0.58064995062E+02  0.12024379013E+04  0.15563556185E+04  0.00000000000E+00 0. -1.
        -13    1    3    3    0    0 -0.80587762607E+03 -0.12541842985E+03  0.10300755524E+04  0.13138585062E+04  0.00000000000E+00 0.  1.
         22    1    1    2    0    0  0.17922925292E+04  0.18348342492E+03  0.43077329134E+03  0.18524427942E+04  0.00000000000E+00 0. -1.
<mgrwt>
<rscale>  0 0.39000503E+04</rscale>
<asrwt>0</asrwt>
<pdfrwt beam="1">  1        2 0.56814951E+00 0.39000503E+04</pdfrwt>
<pdfrwt beam="2">  1       -2 0.15841309E+00 0.39000503E+04</pdfrwt>
<totfact> 0.12129474E-01</totfact>
</mgrwt>
</event>
<event>
 6    1  0.2325157E-005  0.3862239E+04  0.7818608E-02  0.8032929E-01
          2   -1    0    0  501    0  0.00000000000E+00  0.00000000000E+00  0.24376083091E+04  0.24376083091E+04  0.00000000000E+00 0. -1.
         -2   -1    0    0    0  501 -0.00000000000E+00 -0.00000000000E+00 -0.15298693142E+04  0.15298693142E+04  0.00000000000E+00 0.  1.
         23    2    1    2    0    0 -0.14079019820E+04 -0.10242722769E+04  0.13097511049E+04  0.21805989411E+04  0.90785997343E+02 0.  0.
         13    1    3    3    0    0 -0.82293284408E+03 -0.56131178898E+03  0.70720196996E+03  0.12216480740E+04  0.00000000000E+00 0.  1.
        -13    1    3    3    0    0 -0.58496913787E+03 -0.46296048795E+03  0.60254913492E+03  0.95895086718E+03  0.00000000000E+00 0. -1.
         22    1    1    2    0    0  0.14079019820E+04  0.10242722769E+04 -0.40201211004E+03  0.17868786821E+04  0.00000000000E+00 0. -1.
<mgrwt>
<rscale>  0 0.38622388E+04</rscale>
<asrwt>0</asrwt>
<pdfrwt beam="1">  1        2 0.37501666E+00 0.38622388E+04</pdfrwt>
<pdfrwt beam="2">  1       -2 0.23536451E+00 0.38622388E+04</pdfrwt>
<totfact> 0.23884040E-01</totfact>
</mgrwt>
</event>
<event>
 6    1  0.4336917E-005  0.4421582E+04  0.7818608E-02  0.7924511E-01
         -1   -1    0    0    0  501 -0.00000000000E+00  0.00000000000E+00  0.15421953473E+04  0.15421953473E+04  0.00000000000E+00 0.  1.
          1   -1    0    0  501    0  0.00000000000E+00 -0.00000000000E+00 -0.31692462324E+04  0.31692462324E+04  0.00000000000E+00 0. -1.
         23    2    1    2    0    0  0.15930662190E+03 -0.11240861180E+04 -0.28343187982E+04  0.30542017012E+04  0.76398831114E+02 0.  0.
         11    1    3    3    0    0  0.86159497437E+02 -0.45987396274E+03 -0.12521439268E+04  0.13367018867E+04  0.00000000000E+00 0. -1.
        -11    1    3    3    0    0  0.73147124460E+02 -0.66421215521E+03 -0.15821748715E+04  0.17174998145E+04  0.00000000000E+00 0.  1.
         22    1    1    2    0    0 -0.15930662190E+03  0.11240861180E+04  0.12072679132E+04  0.16572398784E+04  0.00000000000E+00 0.  1.
<mgrwt>
<rscale>  0 0.44215820E+04</rscale>
<asrwt>0</asrwt>
<pdfrwt beam="1">  1        1 0.48757634E+00 0.44215820E+04</pdfrwt>
<pdfrwt beam="2">  1       -1 0.23726082E+00 0.44215820E+04</pdfrwt>
<totfact> 0.28629956E-02</totfact>
</mgrwt>
</event>
<event>
 6    1  0.2325157E-005  0.2387527E+04  0.7818608E-02  0.8444188E-01
         -2   -1    0    0    0  501 -0.00000000000E+00  0.00000000000E+00  0.86337347060E+03  0.86337347060E+03  0.00000000000E+00 0. -1.
          2   -1    0    0  501    0  0.00000000000E+00 -0.00000000000E+00 -0.16505848170E+04  0.16505848170E+04  0.00000000000E+00 0.  1.
         23    2    1    2    0    0  0.23925975144E+02  0.14337438205E+03 -0.16399679025E+04  0.16489019833E+04  0.90853529595E+02 0.  0.
         13    1    3    3    0    0  0.25948650411E+02  0.13094038502E+03 -0.10070192102E+04  0.10158279415E+04  0.00000000000E+00 0.  1.
        -13    1    3    3    0    0 -0.20226752667E+01  0.12433997028E+02 -0.63294869225E+03  0.63307404189E+03  0.00000000000E+00 0. -1.
         22    1    1    2    0    0 -0.23925975144E+02 -0.14337438205E+03  0.85275655603E+03  0.86505630428E+03  0.00000000000E+00 0. -1.
<mgrwt>
<rscale>  0 0.23875269E+04</rscale>
<asrwt>0</asrwt>
<pdfrwt beam="1">  1        2 0.25393613E+00 0.23875269E+04</pdfrwt>
<pdfrwt beam="2">  1       -2 0.13282669E+00 0.23875269E+04</pdfrwt>
<totfact> 0.38682016E+00</totfact>
</mgrwt>
</event>
<event>
 6    1  0.2325157E-005  0.2324171E+04  0.7818608E-02  0.8468451E-01
         -2   -1    0    0    0  501 -0.00000000000E+00  0.00000000000E+00  0.66142894950E+03  0.66142894950E+03  0.00000000000E+00 0. -1.
          2   -1    0    0  501    0  0.00000000000E+00 -0.00000000000E+00 -0.20417049067E+04  0.20417049067E+04  0.00000000000E+00 0.  1.
         23    2    1    2    0    0  0.55064994162E+02 -0.11247280341E+04 -0.10164898308E+04  0.15197549439E+04  0.91423241628E+02 0.  0.
         11    1    3    3    0    0  0.29187754804E+01 -0.76424528279E+03 -0.65398007704E+03  0.10058674429E+04  0.00000000000E+00 0. -1.
        -11    1    3    3    0    0  0.52146218682E+02 -0.36048275135E+03 -0.36250975375E+03  0.51388750102E+03  0.00000000000E+00 0.  1.
         22    1    1    2    0    0 -0.55064994162E+02  0.11247280341E+04 -0.36378612645E+03  0.11833789123E+04  0.00000000000E+00 0. -1.
<mgrwt>
<rscale>  0 0.23241710E+04</rscale>
<asrwt>0</asrwt>
<pdfrwt beam="1">  1        2 0.31410845E+00 0.23241710E+04</pdfrwt>
<pdfrwt beam="2">  1       -2 0.10175830E+00 0.23241710E+04</pdfrwt>
<totfact> 0.45405728E+00</totfact>
</mgrwt>
</event>
<event>
 6    1  0.2325157E-005  0.4271729E+04  0.7818608E-02  0.7951866E-01
          2   -1    0    0  501    0  0.00000000000E+00  0.00000000000E+00  0.32011575333E+04  0.32011575333E+04  0.00000000000E+00 0.  1.
         -2   -1    0    0    0  501 -0.00000000000E+00 -0.00000000000E+00 -0.14250837741E+04  0.14250837741E+04  0.00000000000E+00 0. -1.
         23    2    1    2    0    0 -0.22037826732E+03  0.19082652355E+04  0.18972668957E+04  0.27014736419E+04  0.91078948181E+02 0.  0.
         11    1    3    3    0    0 -0.87489849164E+02  0.10184570203E+04  0.96099456928E+03  0.14030038268E+04  0.00000000000E+00 0.  1.
        -11    1    3    3    0    0 -0.13288841816E+03  0.88980821520E+03  0.93627232641E+03  0.12984698151E+04  0.00000000000E+00 0. -1.
         22    1    1    2    0    0  0.22037826732E+03 -0.19082652355E+04 -0.12119313654E+03  0.19247676655E+04  0.00000000000E+00 0. -1.
<mgrwt>
<rscale>  0 0.42717292E+04</rscale>
<asrwt>0</asrwt>
<pdfrwt beam="1">  1        2 0.49248577E+00 0.42717292E+04</pdfrwt>
<pdfrwt beam="2">  1       -2 0.21924366E+00 0.42717292E+04</pdfrwt>
<totfact> 0.99742907E-02</totfact>
</mgrwt>
</event>
<event>
 6    1  0.2325157E-005  0.1302489E+04  0.7818608E-02  0.9027593E-01
         -2   -1    0    0    0  501 -0.00000000000E+00  0.00000000000E+00  0.12585638244E+03  0.12585638244E+03  0.00000000000E+00 0. -1.
          2   -1    0    0  501    0  0.00000000000E+00 -0.00000000000E+00 -0.33698706045E+04  0.33698706045E+04  0.00000000000E+00 0.  1.
         23    2    1    2    0    0  0.58687527811E+02  0.18900640641E+03 -0.32861691440E+04  0.32933790563E+04  0.90941287252E+02 0.  0.
         11    1    3    3    0    0  0.37450192085E+02  0.48699894345E+02 -0.52802380190E+03  0.53158567698E+03  0.00000000000E+00 0.  1.
        -11    1    3    3    0    0  0.21237335726E+02  0.14030651206E+03 -0.27581453421E+04  0.27617933793E+04  0.00000000000E+00 0. -1.
         22    1    1    2    0    0 -0.58687527811E+02 -0.18900640641E+03  0.42154921982E+02  0.20234793063E+03  0.00000000000E+00 0. -1.
<mgrwt>
<rscale>  0 0.13024895E+04</rscale>
<asrwt>0</asrwt>
<pdfrwt beam="1">  1        2 0.51844160E+00 0.13024895E+04</pdfrwt>
<pdfrwt beam="2">  1       -2 0.19362522E-01 0.13024895E+04</pdfrwt>
<totfact> 0.22566842E+01</totfact>
</mgrwt>
</event>
<event>
 6    1  0.2325157E-005  0.2448637E+04  0.7818608E-02  0.8421516E-01
          2   -1    0    0  501    0  0.00000000000E+00  0.00000000000E+00  0.18109237129E+04  0.18109237129E+04  0.00000000000E+00 0.  1.
         -2   -1    0    0    0  501 -0.00000000000E+00 -0.00000000000E+00 -0.82773021402E+03  0.82773021402E+03  0.00000000000E+00 0. -1.
         23    2    1    2    0    0  0.35612230225E+03  0.11485438366E+04  0.25340439663E+03  0.12320380687E+04  0.87908906350E+02 0.  0.
         11    1    3    3    0    0  0.76340061360E+02  0.19516930954E+03  0.74898646083E+02  0.22255037978E+03  0.00000000000E+00 0.  1.
        -11    1    3    3    0    0  0.27978224089E+03  0.95337452707E+03  0.17850575055E+03  0.10094876890E+04  0.00000000000E+00 0. -1.
         22    1    1    2    0    0 -0.35612230225E+03 -0.11485438366E+04  0.72978910229E+03  0.14066158582E+04  0.00000000000E+00 0.  1.
<mgrwt>
<rscale>  0 0.24486374E+04</rscale>
<asrwt>0</asrwt>
<pdfrwt beam="1">  1        2 0.27860365E+00 0.24486374E+04</pdfrwt>
<pdfrwt beam="2">  1       -2 0.12734311E+00 0.24486374E+04</pdfrwt>
<totfact> 0.34876569E+00</totfact>
</mgrwt>
</event>
<event>
 6    1  0.2325157E-005  0.5197324E+04  0.7818608E-02  0.7798769E-01
          2   -1    0    0  501    0  0.00000000000E+00  0.00000000000E+00  0.37137860045E+04  0.37137860045E+04  0.00000000000E+00 0.  1.
         -2   -1    0    0    0  501 -0.00000000000E+00 -0.00000000000E+00 -0.18183721287E+04  0.18183721287E+04  0.00000000000E+00 0. -1.
         23    2    1    2    0    0  0.19848262466E+04  0.11326953309E+04  0.22631668797E+04  0.32174710672E+04  0.87531714844E+02 0.  0.
         13    1    3    3    0    0  0.14348207921E+04  0.77331661851E+03  0.16094324205E+04  0.22906335399E+04  0.00000000000E+00 0. -1.
        -13    1    3    3    0    0  0.55000545445E+03  0.35937871235E+03  0.65373445918E+03  0.92683752726E+03  0.00000000000E+00 0.  1.
         22    1    1    2    0    0 -0.19848262466E+04 -0.11326953309E+04 -0.36775300392E+03  0.23146870660E+04  0.00000000000E+00 0. -1.
<mgrwt>
<rscale>  0 0.51973243E+04</rscale>
<asrwt>0</asrwt>
<pdfrwt beam="1">  1        2 0.57135169E+00 0.51973243E+04</pdfrwt>
<pdfrwt beam="2">  1       -2 0.27974956E+00 0.51973243E+04</pdfrwt>
<totfact> 0.17217024E-02</totfact>
</mgrwt>
</event>
<event>
 6    1  0.2325157E-005  0.2307234E+04  0.7818608E-02  0.8475074E-01
          2   -1    0    0  501    0  0.00000000000E+00  0.00000000000E+00  0.12400675770E+04  0.12400675770E+04  0.00000000000E+00 0.  1.
         -2   -1    0    0    0  501 -0.00000000000E+00 -0.00000000000E+00 -0.10731930322E+04  0.10731930322E+04  0.00000000000E+00 0. -1.
         23    2    1    2    0    0 -0.11380167079E+03 -0.45399589232E+03  0.11387819124E+04  0.12345266189E+04  0.90380519986E+02 0.  0.
         13    1    3    3    0    0 -0.75100858356E+02 -0.32024151697E+03  0.89849410143E+03  0.95681054468E+03  0.00000000000E+00 0.  1.
        -13    1    3    3    0    0 -0.38700812433E+02 -0.13375437535E+03  0.24028781094E+03  0.27771607425E+03  0.00000000000E+00 0. -1.
         22    1    1    2    0    0  0.11380167079E+03  0.45399589232E+03 -0.97190736759E+03  0.10787339902E+04  0.00000000000E+00 0. -1.
<mgrwt>
<rscale>  0 0.23072337E+04</rscale>
<asrwt>0</asrwt>
<pdfrwt beam="1">  1        2 0.19077963E+00 0.23072337E+04</pdfrwt>
<pdfrwt beam="2">  1       -2 0.16510662E+00 0.23072337E+04</pdfrwt>
<totfact> 0.37544946E+00</totfact>
</mgrwt>
</event>
<event>
 6    1  0.2325157E-005  0.1808306E+04  0.7818608E-02  0.8701895E-01
         -2   -1    0    0    0  501 -0.00000000000E+00  0.00000000000E+00  0.35118792552E+03  0.35118792552E+03  0.00000000000E+00 0. -1.
          2   -1    0    0  501    0  0.00000000000E+00 -0.00000000000E+00 -0.23277933701E+04  0.23277933701E+04  0.00000000000E+00 0.  1.
         23    2    1    2    0    0  0.42830193535E+02 -0.37636339784E+03  0.22143717423E+03  0.44853847260E+03  0.93104814902E+02 0.  0.
         13    1    3    3    0    0 -0.12958071625E+02 -0.11329477168E+03  0.10669014358E+03  0.15616146659E+03  0.00000000000E+00 0. -1.
        -13    1    3    3    0    0  0.55788265160E+02 -0.26306862616E+03  0.11474703065E+03  0.29237700601E+03  0.00000000000E+00 0.  1.
         22    1    1    2    0    0 -0.42830193535E+02  0.37636339784E+03 -0.21980426188E+04  0.22304428231E+04  0.00000000000E+00 0.  1.
<mgrwt>
<rscale>  0 0.18083063E+04</rscale>
<asrwt>0</asrwt>
<pdfrwt beam="1">  1        2 0.35812206E+00 0.18083063E+04</pdfrwt>
<pdfrwt beam="2">  1       -2 0.54028912E-01 0.18083063E+04</pdfrwt>
<totfact> 0.13313910E+01</totfact>
</mgrwt>
</event>
<event>
 6    1  0.2325157E-005  0.2383839E+04  0.7818608E-02  0.8445579E-01
         -1   -1    0    0    0  501 -0.00000000000E+00  0.00000000000E+00  0.12069509526E+04  0.12069509526E+04  0.00000000000E+00 0. -1.
          1   -1    0    0  501    0  0.00000000000E+00 -0.00000000000E+00 -0.11770751333E+04  0.11770751333E+04  0.00000000000E+00 0.  1.
         23    2    1    2    0    0  0.87509391949E+03  0.77158314051E+03 -0.22058158758E+03  0.11907705293E+04  0.90267967772E+02 0.  0.
         11    1    3    3    0    0  0.31817465898E+03  0.33539950171E+03 -0.10341646128E+03  0.47373294568E+03  0.00000000000E+00 0.  1.
        -11    1    3    3    0    0  0.55691926052E+03  0.43618363880E+03 -0.11716512630E+03  0.71703758361E+03  0.00000000000E+00 0. -1.
         22    1    1    2    0    0 -0.87509391949E+03 -0.77158314051E+03  0.25045740693E+03  0.11932555566E+04  0.00000000000E+00 0. -1.
<mgrwt>
<rscale>  0 0.23838389E+04</rscale>
<asrwt>0</asrwt>
<pdfrwt beam="1">  1        1 0.18108848E+00 0.23838389E+04</pdfrwt>
<pdfrwt beam="2">  1       -1 0.18568476E+00 0.23838389E+04</pdfrwt>
<totfact> 0.18894169E+00</totfact>
</mgrwt>
</event>
<event>
 6    1  0.2325157E-005  0.1178904E+04  0.7818608E-02  0.9131525E-01
          2   -1    0    0  501    0  0.00000000000E+00  0.00000000000E+00  0.16927367386E+04  0.16927367386E+04  0.00000000000E+00 0.  1.
         -2   -1    0    0    0  501 -0.00000000000E+00 -0.00000000000E+00 -0.20526158597E+03  0.20526158597E+03  0.00000000000E+00 0. -1.
         23    2    1    2    0    0  0.78110752970E+02  0.25763857431E+03  0.15857639305E+04  0.16113982399E+04  0.97355634553E+02 0.  0.
         13    1    3    3    0    0  0.29947171077E+02  0.19998421487E+03  0.13129070783E+04  0.13283883151E+04  0.00000000000E+00 0.  1.
        -13    1    3    3    0    0  0.48163581893E+02  0.57654359442E+02  0.27285685213E+03  0.28300992480E+03  0.00000000000E+00 0. -1.
         22    1    1    2    0    0 -0.78110752970E+02 -0.25763857431E+03 -0.98288777840E+02  0.28660008470E+03  0.00000000000E+00 0. -1.
<mgrwt>
<rscale>  0 0.11789043E+04</rscale>
<asrwt>0</asrwt>
<pdfrwt beam="1">  1        2 0.26042103E+00 0.11789043E+04</pdfrwt>
<pdfrwt beam="2">  1       -2 0.31578707E-01 0.11789043E+04</pdfrwt>
<totfact> 0.91081117E+01</totfact>
</mgrwt>
</event>
<event>
 6    1  0.2325157E-005  0.6114578E+04  0.7818608E-02  0.7676356E-01
          2   -1    0    0  501    0  0.00000000000E+00  0.00000000000E+00  0.26686317065E+04  0.26686317065E+04  0.00000000000E+00 0.  1.
         -2   -1    0    0    0  501 -0.00000000000E+00 -0.00000000000E+00 -0.35025501058E+04  0.35025501058E+04  0.00000000000E+00 0. -1.
         23    2    1    2    0    0  0.41367108548E+03  0.29738702375E+04 -0.99491477368E+03  0.31643649259E+04  0.91225110004E+02 0.  0.
         13    1    3    3    0    0  0.31138076623E+02  0.23524248276E+03 -0.53112357382E+02  0.24316563906E+03  0.00000000000E+00 0. -1.
        -13    1    3    3    0    0  0.38253300886E+03  0.27386277547E+04 -0.94180241630E+03  0.29211992868E+04  0.00000000000E+00 0.  1.
         22    1    1    2    0    0 -0.41367108548E+03 -0.29738702375E+04  0.16099637439E+03  0.30068168865E+04  0.00000000000E+00 0. -1.
<mgrwt>
<rscale>  0 0.61145781E+04</rscale>
<asrwt>0</asrwt>
<pdfrwt beam="1">  1        2 0.41055873E+00 0.61145781E+04</pdfrwt>
<pdfrwt beam="2">  1       -2 0.53885386E+00 0.61145781E+04</pdfrwt>
<totfact> 0.18405902E-03</totfact>
</mgrwt>
</event>
<event>
 6    1  0.2325157E-005  0.3868403E+04  0.7818608E-02  0.8031633E-01
         -2   -1    0    0    0  501 -0.00000000000E+00  0.00000000000E+00  0.20534978931E+04  0.20534978931E+04  0.00000000000E+00 0. -1.
          2   -1    0    0  501    0  0.00000000000E+00 -0.00000000000E+00 -0.18218353294E+04  0.18218353294E+04  0.00000000000E+00 0.  1.
         23    2    1    2    0    0  0.64766177156E+03 -0.15948247346E+04 -0.76544565589E+03  0.18860729313E+04  0.91827802901E+02 0.  0.
         13    1    3    3    0    0  0.60503945692E+03 -0.14145357574E+04 -0.68174309688E+03  0.16827827559E+04  0.00000000000E+00 0. -1.
        -13    1    3    3    0    0  0.42622314646E+02 -0.18028897723E+03 -0.83702559014E+02  0.20329017537E+03  0.00000000000E+00 0.  1.
         22    1    1    2    0    0 -0.64766177156E+03  0.15948247346E+04  0.99710821959E+03  0.19892602912E+04  0.00000000000E+00 0. -1.
<mgrwt>
<rscale>  0 0.38684028E+04</rscale>
<asrwt>0</asrwt>
<pdfrwt beam="1">  1        2 0.28028236E+00 0.38684028E+04</pdfrwt>
<pdfrwt beam="2">  1       -2 0.31592275E+00 0.38684028E+04</pdfrwt>
<totfact> 0.16974546E-01</totfact>
</mgrwt>
</event>
<event>
 6    1  0.2325157E-005  0.4634280E+04  0.7818608E-02  0.7887541E-01
         -2   -1    0    0    0  501 -0.00000000000E+00  0.00000000000E+00  0.16688069723E+04  0.16688069723E+04  0.00000000000E+00 0. -1.
          2   -1    0    0  501    0  0.00000000000E+00 -0.00000000000E+00 -0.32173508570E+04  0.32173508570E+04  0.00000000000E+00 0.  1.
         23    2    1    2    0    0 -0.29744688455E+03  0.18883198555E+04 -0.21535579053E+04  0.28810971092E+04  0.93179263822E+02 0.  0.
         13    1    3    3    0    0 -0.25609607906E+03  0.14911761728E+04 -0.16553470841E+04  0.22426247008E+04  0.00000000000E+00 0. -1.
        -13    1    3    3    0    0 -0.41350805484E+02  0.39714368270E+03 -0.49821082126E+03  0.63847240837E+03  0.00000000000E+00 0.  1.
         22    1    1    2    0    0  0.29744688455E+03 -0.18883198555E+04  0.60501402060E+03  0.20050607200E+04  0.00000000000E+00 0. -1.
<mgrwt>
<rscale>  0 0.46342799E+04</rscale>
<asrwt>0</asrwt>
<pdfrwt beam="1">  1        2 0.49497705E+00 0.46342799E+04</pdfrwt>
<pdfrwt beam="2">  1       -2 0.25673954E+00 0.46342799E+04</pdfrwt>
<totfact> 0.55259953E-02</totfact>
</mgrwt>
</event>
<event>
 6    1  0.2325157E-005  0.2405329E+04  0.7818608E-02  0.8437511E-01
         -2   -1    0    0    0  501 -0.00000000000E+00  0.00000000000E+00  0.86377093282E+03  0.86377093282E+03  0.00000000000E+00 0. -1.
          2   -1    0    0  501    0  0.00000000000E+00 -0.00000000000E+00 -0.16745198189E+04  0.16745198189E+04  0.00000000000E+00 0.  1.
         23    2    1    2    0    0  0.61172785555E+03  0.98541871871E+03 -0.73397270917E+03  0.13758985624E+04  0.95498144883E+02 0.  0.
         11    1    3    3    0    0  0.26365235066E+02  0.48699665708E+02 -0.61324027356E+02  0.82628199734E+02  0.00000000000E+00 0. -1.
        -11    1    3    3    0    0  0.58536262049E+03  0.93671905301E+03 -0.67264868182E+03  0.12932703626E+04  0.00000000000E+00 0.  1.
         22    1    1    2    0    0 -0.61172785555E+03 -0.98541871871E+03 -0.76776176886E+02  0.11623921893E+04  0.00000000000E+00 0. -1.
<mgrwt>
<rscale>  0 0.24053287E+04</rscale>
<asrwt>0</asrwt>
<pdfrwt beam="1">  1        2 0.25761843E+00 0.24053287E+04</pdfrwt>
<pdfrwt beam="2">  1       -2 0.13288784E+00 0.24053287E+04</pdfrwt>
<totfact> 0.37412397E+00</totfact>
</mgrwt>
</event>
<event>
 6    1  0.2325157E-005  0.2058474E+04  0.7818608E-02  0.8579760E-01
         -2   -1    0    0    0  501 -0.00000000000E+00  0.00000000000E+00  0.80884977930E+03  0.80884977930E+03  0.00000000000E+00 0. -1.
          2   -1    0    0  501    0  0.00000000000E+00 -0.00000000000E+00 -0.13096735554E+04  0.13096735554E+04  0.00000000000E+00 0.  1.
         23    2    1    2    0    0 -0.41377323042E+03 -0.86955455438E+03 -0.62039635650E+03  0.11481465980E+04  0.77560054463E+02 0.  0.
         13    1    3    3    0    0 -0.35511473626E+03 -0.72301930496E+03 -0.54962304222E+03  0.97516607806E+03  0.00000000000E+00 0. -1.
        -13    1    3    3    0    0 -0.58658494158E+02 -0.14653524942E+03 -0.70773314277E+02  0.17298051993E+03  0.00000000000E+00 0.  1.
         22    1    1    2    0    0  0.41377323042E+03  0.86955455438E+03  0.11957258036E+03  0.97037673675E+03  0.00000000000E+00 0. -1.
<mgrwt>
<rscale>  0 0.20584744E+04</rscale>
<asrwt>0</asrwt>
<pdfrwt beam="1">  1        2 0.20148824E+00 0.20584744E+04</pdfrwt>
<pdfrwt beam="2">  1       -2 0.12443843E+00 0.20584744E+04</pdfrwt>
<totfact> 0.73183236E+00</totfact>
</mgrwt>
</event>
<event>
 6    1  0.2325157E-005  0.1298749E+04  0.7818608E-02  0.9030558E-01
          2   -1    0    0  501    0  0.00000000000E+00  0.00000000000E+00  0.76001366257E+03  0.76001366257E+03  0.00000000000E+00 0.  1.
         -2   -1    0    0    0  501 -0.00000000000E+00 -0.00000000000E+00 -0.55484190074E+03  0.55484190074E+03  0.00000000000E+00 0. -1.
         23    2    1    2    0    0  0.59951265261E+02 -0.26255495418E+03  0.69790255716E+03  0.75332827560E+03  0.88917115121E+02 0.  0.
         11    1    3    3    0    0  0.39599717577E+02 -0.15906613375E+03  0.53250366370E+03  0.55716274497E+03  0.00000000000E+00 0.  1.
        -11    1    3    3    0    0  0.20351547685E+02 -0.10348882043E+03  0.16539889346E+03  0.19616553063E+03  0.00000000000E+00 0. -1.
         22    1    1    2    0    0 -0.59951265261E+02  0.26255495418E+03 -0.49273079533E+03  0.56152728771E+03  0.00000000000E+00 0. -1.
<mgrwt>
<rscale>  0 0.12987493E+04</rscale>
<asrwt>0</asrwt>
<pdfrwt beam="1">  1        2 0.11692518E+00 0.12987493E+04</pdfrwt>
<pdfrwt beam="2">  1       -2 0.85360293E-01 0.12987493E+04</pdfrwt>
<totfact> 0.43133060E+01</totfact>
</mgrwt>
</event>
<event>
 6    1  0.2325157E-005  0.1792199E+04  0.7818608E-02  0.8710459E-01
         -2   -1    0    0    0  501 -0.00000000000E+00  0.00000000000E+00  0.46248452644E+03  0.46248452644E+03  0.00000000000E+00 0. -1.
          2   -1    0    0  501    0  0.00000000000E+00 -0.00000000000E+00 -0.17362629695E+04  0.17362629695E+04  0.00000000000E+00 0.  1.
         23    2    1    2    0    0  0.11473725509E+01  0.52350800197E+03 -0.15272834199E+04  0.16170889038E+04  0.91213670692E+02 0.  0.
         13    1    3    3    0    0  0.19089061233E+02  0.16298378612E+03 -0.36854163354E+03  0.40342414708E+03  0.00000000000E+00 0. -1.
        -13    1    3    3    0    0 -0.17941688682E+02  0.36052421584E+03 -0.11587417863E+04  0.12136647567E+04  0.00000000000E+00 0.  1.
         22    1    1    2    0    0 -0.11473725509E+01 -0.52350800197E+03  0.25350497675E+03  0.58165859215E+03  0.00000000000E+00 0. -1.
<mgrwt>
<rscale>  0 0.17921995E+04</rscale>
<asrwt>0</asrwt>
<pdfrwt beam="1">  1        2 0.26711738E+00 0.17921995E+04</pdfrwt>
<pdfrwt beam="2">  1       -2 0.71151466E-01 0.17921995E+04</pdfrwt>
<totfact> 0.15860814E+01</totfact>
</mgrwt>
</event>
<event>
 6    1  0.2325157E-005  0.1818447E+04  0.7818608E-02  0.8696550E-01
         -2   -1    0    0    0  501 -0.00000000000E+00  0.00000000000E+00  0.60704862285E+03  0.60704862285E+03  0.00000000000E+00 0. -1.
          2   -1    0    0  501    0  0.00000000000E+00 -0.00000000000E+00 -0.13618145146E+04  0.13618145146E+04  0.00000000000E+00 0.  1.
         23    2    1    2    0    0  0.74425497277E+03 -0.22541887994E+03  0.12696377777E+03  0.79320317555E+03  0.91226865037E+02 0.  0.
         13    1    3    3    0    0  0.45190210352E+03 -0.15313675211E+03  0.11983803046E+03  0.49196293515E+03  0.00000000000E+00 0. -1.
        -13    1    3    3    0    0  0.29235286925E+03 -0.72282127827E+02  0.71257473143E+01  0.30124024040E+03  0.00000000000E+00 0.  1.
         22    1    1    2    0    0 -0.74425497277E+03  0.22541887994E+03 -0.88172966950E+03  0.11756599619E+04  0.00000000000E+00 0.  1.
<mgrwt>
<rscale>  0 0.18184473E+04</rscale>
<asrwt>0</asrwt>
<pdfrwt beam="1">  1        2 0.20950992E+00 0.18184473E+04</pdfrwt>
<pdfrwt beam="2">  1       -2 0.93392097E-01 0.18184473E+04</pdfrwt>
<totfact> 0.13918144E+01</totfact>
</mgrwt>
</event>
<event>
 6    1  0.2325157E-005  0.1397959E+04  0.7818608E-02  0.8955297E-01
          2   -1    0    0  501    0  0.00000000000E+00  0.00000000000E+00  0.15410698645E+04  0.15410698645E+04  0.00000000000E+00 0.  1.
         -2   -1    0    0    0  501 -0.00000000000E+00 -0.00000000000E+00 -0.31703466429E+03  0.31703466429E+03  0.00000000000E+00 0. -1.
         23    2    1    2    0    0  0.63791350520E+03 -0.21740974405E+03  0.37987664219E+03  0.77791736538E+03  0.81538500999E+02 0.  0.
         11    1    3    3    0    0  0.31640625064E+03 -0.79190992590E+02  0.14845717058E+03  0.35836247048E+03  0.00000000000E+00 0. -1.
        -11    1    3    3    0    0  0.32150725456E+03 -0.13821875146E+03  0.23141947161E+03  0.41955489489E+03  0.00000000000E+00 0.  1.
         22    1    1    2    0    0 -0.63791350520E+03  0.21740974405E+03  0.84415855803E+03  0.10801871634E+04  0.00000000000E+00 0.  1.
<mgrwt>
<rscale>  0 0.13979593E+04</rscale>
<asrwt>0</asrwt>
<pdfrwt beam="1">  1        2 0.23708767E+00 0.13979593E+04</pdfrwt>
<pdfrwt beam="2">  1       -2 0.48774564E-01 0.13979593E+04</pdfrwt>
<totfact> 0.46621773E+01</totfact>
</mgrwt>
</event>
<event>
 6    1  0.2325157E-005  0.1258369E+04  0.7818608E-02  0.9063247E-01
          2   -1    0    0  501    0  0.00000000000E+00  0.00000000000E+00  0.70267910646E+03  0.70267910646E+03  0.00000000000E+00 0.  1.
         -2   -1    0    0    0  501 -0.00000000000E+00 -0.00000000000E+00 -0.56337671843E+03  0.56337671843E+03  0.00000000000E+00 0. -1.
         23    2    1    2    0    0  0.32250646118E+03 -0.37292135638E+03  0.45777294668E+03  0.67911097887E+03  0.92492677315E+02 0.  0.
         13    1    3    3    0    0  0.16411662955E+03 -0.22827881611E+03  0.31077299492E+03  0.41907677143E+03  0.00000000000E+00 0. -1.
        -13    1    3    3    0    0  0.15838983163E+03 -0.14464254027E+03  0.14699995175E+03  0.26003420744E+03  0.00000000000E+00 0.  1.
         22    1    1    2    0    0 -0.32250646118E+03  0.37292135638E+03 -0.31847055864E+03  0.58694484602E+03  0.00000000000E+00 0. -1.
<mgrwt>
<rscale>  0 0.12583689E+04</rscale>
<asrwt>0</asrwt>
<pdfrwt beam="1">  1        2 0.10810448E+00 0.12583689E+04</pdfrwt>
<pdfrwt beam="2">  1       -2 0.86673341E-01 0.12583689E+04</pdfrwt>
<totfact> 0.46208736E+01</totfact>
</mgrwt>
</event>
<event>
 6    1  0.2325157E-005  0.1345586E+04  0.7818608E-02  0.8994176E-01
         -2   -1    0    0    0  501 -0.00000000000E+00  0.00000000000E+00  0.41969717233E+03  0.41969717233E+03  0.00000000000E+00 0. -1.
          2   -1    0    0  501    0  0.00000000000E+00 -0.00000000000E+00 -0.10785166504E+04  0.10785166504E+04  0.00000000000E+00 0.  1.
         23    2    1    2    0    0  0.41538181820E+03  0.22493881471E+03 -0.85957879491E+03  0.98494602851E+03  0.90019159987E+02 0.  0.
         13    1    3    3    0    0  0.40257534053E+03  0.22468223278E+03 -0.79412142604E+03  0.91824716162E+03  0.00000000000E+00 0.  1.
        -13    1    3    3    0    0  0.12806477667E+02  0.25658192451E+00 -0.65457368871E+02  0.66698866887E+02  0.00000000000E+00 0. -1.
         22    1    1    2    0    0 -0.41538181820E+03 -0.22493881471E+03  0.20075931686E+03  0.51326779419E+03  0.00000000000E+00 0. -1.
<mgrwt>
<rscale>  0 0.13455860E+04</rscale>
<asrwt>0</asrwt>
<pdfrwt beam="1">  1        2 0.16592564E+00 0.13455860E+04</pdfrwt>
<pdfrwt beam="2">  1       -2 0.64568796E-01 0.13455860E+04</pdfrwt>
<totfact> 0.48617877E+01</totfact>
</mgrwt>
</event>
<event>
 6    1  0.2325157E-005  0.1330199E+04  0.7818608E-02  0.9005954E-01
          2   -1    0    0  501    0  0.00000000000E+00  0.00000000000E+00  0.15947708528E+04  0.15947708528E+04  0.00000000000E+00 0.  1.
         -2   -1    0    0    0  501 -0.00000000000E+00 -0.00000000000E+00 -0.27737976638E+03  0.27737976638E+03  0.00000000000E+00 0. -1.
         23    2    1    2    0    0 -0.52315875213E+03  0.30692354562E+03  0.10344321020E+04  0.12028502908E+04  0.94349910364E+02 0.  0.
         11    1    3    3    0    0 -0.84466703180E+02  0.12213717790E+02  0.14285646568E+03  0.16640843919E+03  0.00000000000E+00 0.  1.
        -11    1    3    3    0    0 -0.43869204895E+03  0.29470982783E+03  0.89157563629E+03  0.10364418516E+04  0.00000000000E+00 0. -1.
         22    1    1    2    0    0  0.52315875213E+03 -0.30692354562E+03  0.28295898449E+03  0.66930032847E+03  0.00000000000E+00 0. -1.
<mgrwt>
<rscale>  0 0.13301987E+04</rscale>
<asrwt>0</asrwt>
<pdfrwt beam="1">  1        2 0.24534936E+00 0.13301987E+04</pdfrwt>
<pdfrwt beam="2">  1       -2 0.42673811E-01 0.13301987E+04</pdfrwt>
<totfact> 0.57152978E+01</totfact>
</mgrwt>
</event>
<event>
 6    1  0.2325157E-005  0.2602427E+04  0.7818608E-02  0.8367377E-01
         -2   -1    0    0    0  501 -0.00000000000E+00  0.00000000000E+00  0.87533475365E+03  0.87533475365E+03  0.00000000000E+00 0. -1.
          2   -1    0    0  501    0  0.00000000000E+00 -0.00000000000E+00 -0.19342956988E+04  0.19342956988E+04  0.00000000000E+00 0.  1.
         23    2    1    2    0    0 -0.12053874666E+04  0.23092226053E+03 -0.99153469777E+03  0.15804720680E+04  0.92015574715E+02 0.  0.
         11    1    3    3    0    0 -0.29341067011E+03  0.24681331452E+02 -0.20701981901E+03  0.35993915447E+03  0.00000000000E+00 0. -1.
        -11    1    3    3    0    0 -0.91197679648E+03  0.20624092908E+03 -0.78451487876E+03  0.12205329136E+04  0.00000000000E+00 0.  1.
         22    1    1    2    0    0  0.12053874666E+04 -0.23092226053E+03 -0.67426247341E+02  0.12291583844E+04  0.00000000000E+00 0. -1.
<mgrwt>
<rscale>  0 0.26024268E+04</rscale>
<asrwt>0</asrwt>
<pdfrwt beam="1">  1        2 0.29758395E+00 0.26024268E+04</pdfrwt>
<pdfrwt beam="2">  1       -2 0.13466689E+00 0.26024268E+04</pdfrwt>
<totfact> 0.25519300E+00</totfact>
</mgrwt>
</event>
<event>
 6    1  0.2325157E-005  0.3495839E+04  0.7818608E-02  0.8114777E-01
          2   -1    0    0  501    0  0.00000000000E+00  0.00000000000E+00  0.21910147794E+04  0.21910147794E+04  0.00000000000E+00 0.  1.
         -2   -1    0    0    0  501 -0.00000000000E+00 -0.00000000000E+00 -0.13944329705E+04  0.13944329705E+04  0.00000000000E+00 0. -1.
         23    2    1    2    0    0  0.51747881467E+03 -0.83098589348E+03  0.18817555733E+04  0.21239676859E+04  0.10914583950E+03 0.  0.
         11    1    3    3    0    0  0.18976726438E+03 -0.40127608054E+03  0.80869280311E+03  0.92250645377E+03  0.00000000000E+00 0.  1.
        -11    1    3    3    0    0  0.32771155029E+03 -0.42970981294E+03  0.10730627701E+04  0.12014612321E+04  0.00000000000E+00 0. -1.
         22    1    1    2    0    0 -0.51747881467E+03  0.83098589348E+03 -0.10851737643E+04  0.14614800640E+04  0.00000000000E+00 0. -1.
<mgrwt>
<rscale>  0 0.34958394E+04</rscale>
<asrwt>0</asrwt>
<pdfrwt beam="1">  1        2 0.33707920E+00 0.34958394E+04</pdfrwt>
<pdfrwt beam="2">  1       -2 0.21452815E+00 0.34958394E+04</pdfrwt>
<totfact> 0.45990469E-01</totfact>
</mgrwt>
</event>
<event>
 6    1  0.2664796E-005  0.3148091E+04  0.7818608E-02  0.8202662E-01
          2   -1    0    0  501    0  0.00000000000E+00  0.00000000000E+00  0.23801748306E+04  0.23801748306E+04  0.00000000000E+00 0.  1.
         -2   -1    0    0    0  501 -0.00000000000E+00 -0.00000000000E+00 -0.10409399525E+04  0.10409399525E+04  0.00000000000E+00 0. -1.
         23    2    1    2    0    0  0.80280112532E+03  0.95253907656E+03  0.17136284109E+04  0.21203492944E+04  0.86824308761E+02 0.  0.
         11    1    3    3    0    0  0.65828680300E+03  0.72676722757E+03  0.13568583971E+04  0.16740958240E+04  0.00000000000E+00 0. -1.
        -11    1    3    3    0    0  0.14451432232E+03  0.22577184899E+03  0.35677001375E+03  0.44625347042E+03  0.00000000000E+00 0.  1.
         22    1    1    2    0    0 -0.80280112532E+03 -0.95253907656E+03 -0.37439353273E+03  0.13007654887E+04  0.00000000000E+00 0. -1.
<mgrwt>
<rscale>  0 0.31480909E+04</rscale>
<asrwt>0</asrwt>
<pdfrwt beam="1">  1        2 0.36618074E+00 0.31480909E+04</pdfrwt>
<pdfrwt beam="2">  1       -2 0.16014461E+00 0.31480909E+04</pdfrwt>
<totfact> 0.86705003E-01</totfact>
</mgrwt>
</event>
<event>
 6    1  0.2325157E-005  0.2699816E+04  0.7818608E-02  0.8335065E-01
         -2   -1    0    0    0  501 -0.00000000000E+00  0.00000000000E+00  0.10969151506E+04  0.10969151506E+04  0.00000000000E+00 0. -1.
          2   -1    0    0  501    0  0.00000000000E+00 -0.00000000000E+00 -0.16612515759E+04  0.16612515759E+04  0.00000000000E+00 0.  1.
         23    2    1    2    0    0 -0.11623791442E+04  0.64809393504E+03 -0.60955273877E+02  0.13353021486E+04  0.90361822605E+02 0.  0.
         13    1    3    3    0    0 -0.63234869984E+03  0.36100044251E+03  0.11085400140E+02  0.72822323760E+03  0.00000000000E+00 0. -1.
        -13    1    3    3    0    0 -0.53003044440E+03  0.28709349253E+03 -0.72040674017E+02  0.60707891098E+03  0.00000000000E+00 0.  1.
         22    1    1    2    0    0  0.11623791442E+04 -0.64809393504E+03 -0.50338115143E+03  0.14228645780E+04  0.00000000000E+00 0. -1.
<mgrwt>
<rscale>  0 0.26998163E+04</rscale>
<asrwt>0</asrwt>
<pdfrwt beam="1">  1        2 0.25557716E+00 0.26998163E+04</pdfrwt>
<pdfrwt beam="2">  1       -2 0.16875618E+00 0.26998163E+04</pdfrwt>
<totfact> 0.19673246E+00</totfact>
</mgrwt>
</event>
<event>
 6    1  0.2325157E-005  0.2251296E+04  0.7818608E-02  0.8497376E-01
         -2   -1    0    0    0  501 -0.00000000000E+00  0.00000000000E+00  0.11338605095E+04  0.11338605095E+04  0.00000000000E+00 0. -1.
          2   -1    0    0  501    0  0.00000000000E+00 -0.00000000000E+00 -0.11174949436E+04  0.11174949436E+04  0.00000000000E+00 0.  1.
         23    2    1    2    0    0 -0.73590000748E+03 -0.12578708295E+03 -0.83178179893E+03  0.11214328169E+04  0.91539011003E+02 0.  0.
         13    1    3    3    0    0 -0.37086622536E+03 -0.38535107095E+02 -0.47217929628E+03  0.60164773699E+03  0.00000000000E+00 0.  1.
        -13    1    3    3    0    0 -0.36503378212E+03 -0.87251975860E+02 -0.35960250265E+03  0.51978507991E+03  0.00000000000E+00 0. -1.
         22    1    1    2    0    0  0.73590000748E+03  0.12578708295E+03  0.84814736481E+03  0.11299226361E+04  0.00000000000E+00 0. -1.
<mgrwt>
<rscale>  0 0.22512960E+04</rscale>
<asrwt>0</asrwt>
<pdfrwt beam="1">  1        2 0.17192230E+00 0.22512960E+04</pdfrwt>
<pdfrwt beam="2">  1       -2 0.17444008E+00 0.22512960E+04</pdfrwt>
<totfact> 0.38350998E+00</totfact>
</mgrwt>
</event>
<event>
 6    1  0.2325157E-005  0.3360105E+04  0.7818608E-02  0.8147768E-01
          2   -1    0    0  501    0  0.00000000000E+00  0.00000000000E+00  0.26302281495E+04  0.26302281495E+04  0.00000000000E+00 0.  1.
         -2   -1    0    0    0  501 -0.00000000000E+00 -0.00000000000E+00 -0.10731300184E+04  0.10731300184E+04  0.00000000000E+00 0. -1.
         23    2    1    2    0    0  0.10327288643E+04  0.44895929491E+03  0.21514514562E+04  0.24300360442E+04  0.90765918728E+02 0.  0.
         13    1    3    3    0    0  0.81574034583E+03  0.38776254744E+03  0.16778938553E+04  0.19055497618E+04  0.00000000000E+00 0. -1.
        -13    1    3    3    0    0  0.21698851850E+03  0.61196747471E+02  0.47355760084E+03  0.52448628235E+03  0.00000000000E+00 0.  1.
         22    1    1    2    0    0 -0.10327288643E+04 -0.44895929491E+03 -0.59435332505E+03  0.12733221237E+04  0.00000000000E+00 0. -1.
<mgrwt>
<rscale>  0 0.33601052E+04</rscale>
<asrwt>0</asrwt>
<pdfrwt beam="1">  1        2 0.40465048E+00 0.33601052E+04</pdfrwt>
<pdfrwt beam="2">  1       -2 0.16509693E+00 0.33601052E+04</pdfrwt>
<totfact> 0.56100487E-01</totfact>
</mgrwt>
</event>
<event>
 6    1  0.2325157E-005  0.8376623E+03  0.7818608E-02  0.9507047E-01
          4   -1    0    0  501    0  0.00000000000E+00  0.00000000000E+00  0.14192796743E+03  0.14192796743E+03  0.00000000000E+00 0.  1.
         -4   -1    0    0    0  501 -0.00000000000E+00 -0.00000000000E+00 -0.12359757911E+04  0.12359757911E+04  0.00000000000E+00 0. -1.
         23    2    1    2    0    0  0.22734440241E+03 -0.33086979419E+03 -0.71600467722E+03  0.82647205960E+03  0.96088862395E+02 0.  0.
         11    1    3    3    0    0  0.17233203391E+03 -0.23734240790E+03 -0.42938755889E+03  0.52000329252E+03  0.00000000000E+00 0.  1.
        -11    1    3    3    0    0  0.55012368497E+02 -0.93527386292E+02 -0.28661711833E+03  0.30646876708E+03  0.00000000000E+00 0. -1.
         22    1    1    2    0    0 -0.22734440241E+03  0.33086979419E+03 -0.37804314649E+03  0.55143169896E+03  0.00000000000E+00 0. -1.
<mgrwt>
<rscale>  0 0.83766230E+03</rscale>
<asrwt>0</asrwt>
<pdfrwt beam="1">  1        4 0.21835072E-01 0.83766230E+03</pdfrwt>
<pdfrwt beam="2">  1       -4 0.19015012E+00 0.83766230E+03</pdfrwt>
<totfact> 0.60263378E+00</totfact>
</mgrwt>
</event>
<event>
 6    1  0.2325157E-005  0.3052770E+04  0.7818608E-02  0.8228821E-01
         -2   -1    0    0    0  501 -0.00000000000E+00  0.00000000000E+00  0.15577368658E+04  0.15577368658E+04  0.00000000000E+00 0. -1.
          2   -1    0    0  501    0  0.00000000000E+00 -0.00000000000E+00 -0.14956643069E+04  0.14956643069E+04  0.00000000000E+00 0.  1.
         23    2    1    2    0    0 -0.11895867430E+04 -0.87244755018E+03 -0.35544894063E+03  0.15202327053E+04  0.92098761117E+02 0.  0.
         13    1    3    3    0    0 -0.67321301651E+03 -0.54971473848E+03 -0.21325524245E+03  0.89491891126E+03  0.00000000000E+00 0.  1.
        -13    1    3    3    0    0 -0.51637372650E+03 -0.32273281170E+03 -0.14219369818E+03  0.62531379400E+03  0.00000000000E+00 0. -1.
         22    1    1    2    0    0  0.11895867430E+04  0.87244755018E+03  0.41752149950E+03  0.15331684674E+04  0.00000000000E+00 0.  1.
<mgrwt>
<rscale>  0 0.30527702E+04</rscale>
<asrwt>0</asrwt>
<pdfrwt beam="1">  1        2 0.23010220E+00 0.30527702E+04</pdfrwt>
<pdfrwt beam="2">  1       -2 0.23965183E+00 0.30527702E+04</pdfrwt>
<totfact> 0.81001820E-01</totfact>
</mgrwt>
</event>
<event>
 6    1  0.2325157E-005  0.2718105E+04  0.7818608E-02  0.8329155E-01
         -2   -1    0    0    0  501 -0.00000000000E+00  0.00000000000E+00  0.50534325784E+03  0.50534325784E+03  0.00000000000E+00 0. -1.
          2   -1    0    0  501    0  0.00000000000E+00 -0.00000000000E+00 -0.36549869890E+04  0.36549869890E+04  0.00000000000E+00 0.  1.
         23    2    1    2    0    0 -0.11655671537E+04  0.27710654464E+02 -0.51179916421E+03  0.12763159214E+04  0.87916304548E+02 0.  0.
         13    1    3    3    0    0 -0.70326768724E+03  0.23233983909E+02 -0.35498284559E+03  0.78812313670E+03  0.00000000000E+00 0.  1.
        -13    1    3    3    0    0 -0.46229946642E+03  0.44766705547E+01 -0.15681631862E+03  0.48819278468E+03  0.00000000000E+00 0. -1.
         22    1    1    2    0    0  0.11655671537E+04 -0.27710654464E+02 -0.26378445669E+04  0.28840143254E+04  0.00000000000E+00 0.  1.
<mgrwt>
<rscale>  0 0.27181045E+04</rscale>
<asrwt>0</asrwt>
<pdfrwt beam="1">  1        2 0.56230570E+00 0.27181045E+04</pdfrwt>
<pdfrwt beam="2">  1       -2 0.77745115E-01 0.27181045E+04</pdfrwt>
<totfact> 0.81359926E-01</totfact>
</mgrwt>
</event>
<event>
 6    1  0.2325157E-005  0.2374899E+04  0.7818608E-02  0.8448961E-01
         -2   -1    0    0    0  501 -0.00000000000E+00  0.00000000000E+00  0.54432905178E+03  0.54432905178E+03  0.00000000000E+00 0.  1.
          2   -1    0    0  501    0  0.00000000000E+00 -0.00000000000E+00 -0.25904112897E+04  0.25904112897E+04  0.00000000000E+00 0. -1.
         23    2    1    2    0    0  0.75839368328E+03  0.16831836308E+03  0.15755721517E+03  0.79817900281E+03  0.93666398869E+02 0.  0.
         13    1    3    3    0    0  0.38834831071E+02  0.11621372092E+02 -0.12415098282E+02  0.42394988607E+02  0.00000000000E+00 0. -1.
        -13    1    3    3    0    0  0.71955885221E+03  0.15669699099E+03  0.16997231345E+03  0.75578401420E+03  0.00000000000E+00 0.  1.
         22    1    1    2    0    0 -0.75839368328E+03 -0.16831836308E+03 -0.22036394531E+04  0.23365613387E+04  0.00000000000E+00 0. -1.
<mgrwt>
<rscale>  0 0.23748988E+04</rscale>
<asrwt>0</asrwt>
<pdfrwt beam="1">  1        2 0.39852483E+00 0.23748988E+04</pdfrwt>
<pdfrwt beam="2">  1       -2 0.83742929E-01 0.23748988E+04</pdfrwt>
<totfact> 0.34625475E+00</totfact>
</mgrwt>
</event>
<event>
 6    1  0.2325157E-005  0.1622436E+04  0.7818608E-02  0.8806882E-01
         -2   -1    0    0    0  501 -0.00000000000E+00  0.00000000000E+00  0.54497753649E+03  0.54497753649E+03  0.00000000000E+00 0. -1.
          2   -1    0    0  501    0  0.00000000000E+00 -0.00000000000E+00 -0.12075256286E+04  0.12075256286E+04  0.00000000000E+00 0.  1.
         23    2    1    2    0    0  0.51404034598E+03 -0.89036544159E+02  0.33501658326E+03  0.62675884908E+03  0.91790851139E+02 0.  0.
         13    1    3    3    0    0  0.33481805508E+03 -0.29614527372E+02  0.25396318871E+03  0.42128072761E+03  0.00000000000E+00 0. -1.
        -13    1    3    3    0    0  0.17922229089E+03 -0.59422016787E+02  0.81053394550E+02  0.20547812146E+03  0.00000000000E+00 0.  1.
         22    1    1    2    0    0 -0.51404034598E+03  0.89036544159E+02 -0.99756467539E+03  0.11257443160E+04  0.00000000000E+00 0.  1.
<mgrwt>
<rscale>  0 0.16224356E+04</rscale>
<asrwt>0</asrwt>
<pdfrwt beam="1">  1        2 0.18577317E+00 0.16224356E+04</pdfrwt>
<pdfrwt beam="2">  1       -2 0.83842699E-01 0.16224356E+04</pdfrwt>
<totfact> 0.22310370E+01</totfact>
</mgrwt>
</event>
<event>
 6    1  0.2325157E-005  0.1215241E+04  0.7818608E-02  0.9099620E-01
          2   -1    0    0  501    0  0.00000000000E+00  0.00000000000E+00  0.29121520003E+04  0.29121520003E+04  0.00000000000E+00 0.  1.
         -2   -1    0    0    0  501 -0.00000000000E+00 -0.00000000000E+00 -0.12677995637E+03  0.12677995637E+03  0.00000000000E+00 0. -1.
         23    2    1    2    0    0  0.52875943005E+02 -0.36707755155E+03  0.25932399469E+04  0.26212520111E+04  0.92341158042E+02 0.  0.
         13    1    3    3    0    0  0.31458635521E+02 -0.86131340111E+02  0.90819773478E+03  0.91281508476E+03  0.00000000000E+00 0. -1.
        -13    1    3    3    0    0  0.21417307484E+02 -0.28094621144E+03  0.16850422121E+04  0.17084369264E+04  0.00000000000E+00 0.  1.
         22    1    1    2    0    0 -0.52875943005E+02  0.36707755155E+03  0.19213209704E+03  0.41767994555E+03  0.00000000000E+00 0. -1.
<mgrwt>
<rscale>  0 0.12152407E+04</rscale>
<asrwt>0</asrwt>
<pdfrwt beam="1">  1        2 0.44802333E+00 0.12152407E+04</pdfrwt>
<pdfrwt beam="2">  1       -2 0.19504611E-01 0.12152407E+04</pdfrwt>
<totfact> 0.44024390E+01</totfact>
</mgrwt>
</event>
<event>
 6    1  0.2325157E-005  0.3850558E+03  0.7818608E-02  0.1049081E+00
         -2   -1    0    0    0  501 -0.00000000000E+00  0.00000000000E+00  0.36071495376E+03  0.36071495376E+03  0.00000000000E+00 0. -1.
          2   -1    0    0  501    0  0.00000000000E+00 -0.00000000000E+00 -0.10275976551E+03  0.10275976551E+03  0.00000000000E+00 0.  1.
         23    2    1    2    0    0 -0.59676109622E+02  0.11301826386E+02  0.34258368755E+03  0.35930681523E+03  0.89715300579E+02 0.  0.
         13    1    3    3    0    0 -0.23187287789E+00 -0.33596606221E+02  0.95510266687E+02  0.10124720617E+03  0.00000000000E+00 0. -1.
        -13    1    3    3    0    0 -0.59444236744E+02  0.44898432607E+02  0.24707342086E+03  0.25805960906E+03  0.00000000000E+00 0.  1.
         22    1    1    2    0    0  0.59676109622E+02 -0.11301826386E+02 -0.84628499298E+02  0.10416790404E+03  0.00000000000E+00 0.  1.
<mgrwt>
<rscale>  0 0.38505576E+03</rscale>
<asrwt>0</asrwt>
<pdfrwt beam="1">  1        2 0.15809195E-01 0.38505576E+03</pdfrwt>
<pdfrwt beam="2">  1       -2 0.55494608E-01 0.38505576E+03</pdfrwt>
<totfact> 0.11451891E+03</totfact>
</mgrwt>
</event>
<event>
 6    1  0.2612664E-005  0.3139909E+04  0.7818608E-02  0.8204870E-01
          1   -1    0    0  501    0  0.00000000000E+00  0.00000000000E+00  0.22863591427E+04  0.22863591427E+04  0.00000000000E+00 0.  1.
         -1   -1    0    0    0  501 -0.00000000000E+00 -0.00000000000E+00 -0.10780267882E+04  0.10780267882E+04  0.00000000000E+00 0. -1.
         23    2    1    2    0    0 -0.48319173496E+03  0.12785334864E+04 -0.22002197640E+03  0.13874392389E+04  0.91955657951E+02 0.  0.
         11    1    3    3    0    0 -0.31091453323E+03  0.90303100013E+03 -0.12184127661E+03  0.96279703513E+03  0.00000000000E+00 0. -1.
        -11    1    3    3    0    0 -0.17227720173E+03  0.37550248623E+03 -0.98180699796E+02  0.42464220376E+03  0.00000000000E+00 0.  1.
         22    1    1    2    0    0  0.48319173496E+03 -0.12785334864E+04  0.14283543309E+04  0.19769466921E+04  0.00000000000E+00 0.  1.
<mgrwt>
<rscale>  0 0.31399085E+04</rscale>
<asrwt>0</asrwt>
<pdfrwt beam="1">  1        1 0.35174756E+00 0.31399085E+04</pdfrwt>
<pdfrwt beam="2">  1       -1 0.16585028E+00 0.31399085E+04</pdfrwt>
<totfact> 0.42228286E-01</totfact>
</mgrwt>
</event>
<event>
 6    1  0.2325157E-005  0.1064843E+04  0.7818608E-02  0.9240153E-01
          2   -1    0    0  501    0  0.00000000000E+00  0.00000000000E+00  0.91953699499E+03  0.91953699499E+03  0.00000000000E+00 0.  1.
         -2   -1    0    0    0  501 -0.00000000000E+00 -0.00000000000E+00 -0.30827738854E+03  0.30827738854E+03  0.00000000000E+00 0. -1.
         23    2    1    2    0    0  0.32716000466E+02  0.29711668140E+03  0.81048437622E+03  0.86859416145E+03  0.90676535828E+02 0.  0.
         11    1    3    3    0    0 -0.70239407155E+01  0.12334298384E+03  0.22641279982E+03  0.25792553834E+03  0.00000000000E+00 0.  1.
        -11    1    3    3    0    0  0.39739941182E+02  0.17377369757E+03  0.58407157640E+03  0.61066862311E+03  0.00000000000E+00 0. -1.
         22    1    1    2    0    0 -0.32716000466E+02 -0.29711668140E+03 -0.19922476977E+03  0.35922022207E+03  0.00000000000E+00 0. -1.
<mgrwt>
<rscale>  0 0.10648426E+04</rscale>
<asrwt>0</asrwt>
<pdfrwt beam="1">  1        2 0.14146723E+00 0.10648426E+04</pdfrwt>
<pdfrwt beam="2">  1       -2 0.47427291E-01 0.10648426E+04</pdfrwt>
<totfact> 0.11920406E+02</totfact>
</mgrwt>
</event>
<event>
 6    1  0.2325157E-005  0.3320591E+04  0.7818608E-02  0.8157676E-01
          2   -1    0    0  501    0  0.00000000000E+00  0.00000000000E+00  0.31250003145E+04  0.31250003145E+04  0.00000000000E+00 0.  1.
         -2   -1    0    0    0  501 -0.00000000000E+00 -0.00000000000E+00 -0.88210575418E+03  0.88210575418E+03  0.00000000000E+00 0. -1.
         23    2    1    2    0    0 -0.22578621467E+03  0.77616795491E+03 -0.62604295655E+03  0.10264654354E+04  0.91024159783E+02 0.  0.
         13    1    3    3    0    0 -0.22135427041E+03  0.64105877662E+03 -0.52695166214E+03  0.85885512302E+03  0.00000000000E+00 0. -1.
        -13    1    3    3    0    0 -0.44319442647E+01  0.13510917830E+03 -0.99091294412E+02  0.16761031239E+03  0.00000000000E+00 0.  1.
         22    1    1    2    0    0  0.22578621467E+03 -0.77616795491E+03  0.28689375169E+04  0.29806406333E+04  0.00000000000E+00 0.  1.
<mgrwt>
<rscale>  0 0.33205908E+04</rscale>
<asrwt>0</asrwt>
<pdfrwt beam="1">  1        2 0.48076927E+00 0.33205908E+04</pdfrwt>
<pdfrwt beam="2">  1       -2 0.13570858E+00 0.33205908E+04</pdfrwt>
<totfact> 0.47030700E-01</totfact>
</mgrwt>
</event>
<event>
 6    1  0.2325157E-005  0.1253039E+04  0.7818608E-02  0.9067657E-01
          2   -1    0    0  501    0  0.00000000000E+00  0.00000000000E+00  0.31011923299E+03  0.31011923299E+03  0.00000000000E+00 0.  1.
         -2   -1    0    0    0  501 -0.00000000000E+00 -0.00000000000E+00 -0.12657288902E+04  0.12657288902E+04  0.00000000000E+00 0. -1.
         23    2    1    2    0    0  0.56922856313E+03 -0.88034860928E+02 -0.18199252670E+03  0.61135097003E+03  0.94113946648E+02 0.  0.
         13    1    3    3    0    0  0.28771065911E+03 -0.62129512460E+02 -0.47013132346E+02  0.29807337066E+03  0.00000000000E+00 0. -1.
        -13    1    3    3    0    0  0.28151790402E+03 -0.25905348468E+02 -0.13497939435E+03  0.31327759937E+03  0.00000000000E+00 0.  1.
         22    1    1    2    0    0 -0.56922856313E+03  0.88034860928E+02 -0.77361713049E+03  0.96449715314E+03  0.00000000000E+00 0. -1.
<mgrwt>
<rscale>  0 0.12530393E+04</rscale>
<asrwt>0</asrwt>
<pdfrwt beam="1">  1        2 0.47710651E-01 0.12530393E+04</pdfrwt>
<pdfrwt beam="2">  1       -2 0.19472752E+00 0.12530393E+04</pdfrwt>
<totfact> 0.14979663E+01</totfact>
</mgrwt>
</event>
<event>
 6    1  0.2325157E-005  0.3115114E+04  0.7818608E-02  0.8211602E-01
         -2   -1    0    0    0  501 -0.00000000000E+00  0.00000000000E+00  0.84070854506E+03  0.84070854506E+03  0.00000000000E+00 0. -1.
          2   -1    0    0  501    0  0.00000000000E+00 -0.00000000000E+00 -0.28856418605E+04  0.28856418605E+04  0.00000000000E+00 0.  1.
         23    2    1    2    0    0 -0.26571801793E+03  0.12097446714E+04 -0.21503971477E+04  0.24832853007E+04  0.91704724936E+02 0.  0.
         13    1    3    3    0    0 -0.15833974318E+03  0.80268609957E+03 -0.14977094010E+04  0.17066077167E+04  0.00000000000E+00 0. -1.
        -13    1    3    3    0    0 -0.10737827474E+03  0.40705857184E+03 -0.65268774670E+03  0.77667758400E+03  0.00000000000E+00 0.  1.
         22    1    1    2    0    0  0.26571801793E+03 -0.12097446714E+04  0.10546383229E+03  0.12430651049E+04  0.00000000000E+00 0. -1.
<mgrwt>
<rscale>  0 0.31151140E+04</rscale>
<asrwt>0</asrwt>
<pdfrwt beam="1">  1        2 0.44394489E+00 0.31151140E+04</pdfrwt>
<pdfrwt beam="2">  1       -2 0.12933978E+00 0.31151140E+04</pdfrwt>
<totfact> 0.76445687E-01</totfact>
</mgrwt>
</event>
<event>
 6    1  0.2325157E-005  0.2306766E+04  0.7818608E-02  0.8475258E-01
         -1   -1    0    0    0  501 -0.00000000000E+00  0.00000000000E+00  0.10021374086E+04  0.10021374086E+04  0.00000000000E+00 0. -1.
          1   -1    0    0  501    0  0.00000000000E+00 -0.00000000000E+00 -0.13274554929E+04  0.13274554929E+04  0.00000000000E+00 0.  1.
         23    2    1    2    0    0 -0.96256736545E+03  0.32832223523E+03  0.38283815299E+03  0.10903121909E+04  0.88793012869E+02 0.  0.
         11    1    3    3    0    0 -0.80114535768E+03  0.23797893313E+03  0.30593581745E+03  0.88998010154E+03  0.00000000000E+00 0. -1.
        -11    1    3    3    0    0 -0.16142200778E+03  0.90343302103E+02  0.76902335545E+02  0.20033208940E+03  0.00000000000E+00 0.  1.
         22    1    1    2    0    0  0.96256736545E+03 -0.32832223523E+03 -0.70815623729E+03  0.12392807106E+04  0.00000000000E+00 0.  1.
<mgrwt>
<rscale>  0 0.23067664E+04</rscale>
<asrwt>0</asrwt>
<pdfrwt beam="1">  1        1 0.20422392E+00 0.23067664E+04</pdfrwt>
<pdfrwt beam="2">  1       -1 0.15417499E+00 0.23067664E+04</pdfrwt>
<totfact> 0.25295360E+00</totfact>
</mgrwt>
</event>
<event>
 6    1  0.2325157E-005  0.1354641E+04  0.7818608E-02  0.8987322E-01
         -1   -1    0    0    0  501 -0.00000000000E+00  0.00000000000E+00  0.46244816198E+03  0.46244816198E+03  0.00000000000E+00 0. -1.
          1   -1    0    0  501    0  0.00000000000E+00 -0.00000000000E+00 -0.99203123719E+03  0.99203123719E+03  0.00000000000E+00 0.  1.
         23    2    1    2    0    0  0.44480611941E+03  0.46527964018E+03 -0.50848507806E+02  0.65227966503E+03  0.92442215664E+02 0.  0.
         13    1    3    3    0    0  0.14811016753E+03  0.14522907594E+03  0.26306995489E+02  0.20909367335E+03  0.00000000000E+00 0.  1.
        -13    1    3    3    0    0  0.29669595188E+03  0.32005056424E+03 -0.77155503295E+02  0.44318599168E+03  0.00000000000E+00 0. -1.
         22    1    1    2    0    0 -0.44480611941E+03 -0.46527964018E+03 -0.47873456740E+03  0.80219973414E+03  0.00000000000E+00 0.  1.
<mgrwt>
<rscale>  0 0.13546409E+04</rscale>
<asrwt>0</asrwt>
<pdfrwt beam="1">  1        1 0.15262019E+00 0.13546409E+04</pdfrwt>
<pdfrwt beam="2">  1       -1 0.71145872E-01 0.13546409E+04</pdfrwt>
<totfact> 0.29975008E+01</totfact>
</mgrwt>
</event>
<event>
 6    1  0.2325157E-005  0.2172172E+04  0.7818608E-02  0.8530101E-01
          2   -1    0    0  501    0  0.00000000000E+00  0.00000000000E+00  0.10208224780E+04  0.10208224780E+04  0.00000000000E+00 0.  1.
         -2   -1    0    0    0  501 -0.00000000000E+00 -0.00000000000E+00 -0.11555223046E+04  0.11555223046E+04  0.00000000000E+00 0. -1.
         23    2    1    2    0    0 -0.62051753456E+02  0.47508472685E+03 -0.10418077435E+04  0.11504789576E+04  0.93180146348E+02 0.  0.
         13    1    3    3    0    0 -0.58014859321E+02  0.17879314816E+03 -0.33625103315E+03  0.38522392323E+03  0.00000000000E+00 0.  1.
        -13    1    3    3    0    0 -0.40368941351E+01  0.29629157869E+03 -0.70555671036E+03  0.76525503439E+03  0.00000000000E+00 0. -1.
         22    1    1    2    0    0  0.62051753456E+02 -0.47508472685E+03  0.90710791697E+03  0.10258658250E+04  0.00000000000E+00 0.  1.
<mgrwt>
<rscale>  0 0.21721723E+04</rscale>
<asrwt>0</asrwt>
<pdfrwt beam="1">  1        2 0.15704961E+00 0.21721723E+04</pdfrwt>
<pdfrwt beam="2">  1       -2 0.17777266E+00 0.21721723E+04</pdfrwt>
<totfact> 0.42040074E+00</totfact>
</mgrwt>
</event>
<event>
 6    1  0.2325157E-005  0.2666520E+04  0.7818608E-02  0.8345950E-01
         -2   -1    0    0    0  501 -0.00000000000E+00  0.00000000000E+00  0.74917633305E+03  0.74917633305E+03  0.00000000000E+00 0. -1.
          2   -1    0    0  501    0  0.00000000000E+00 -0.00000000000E+00 -0.23727157860E+04  0.23727157860E+04  0.00000000000E+00 0.  1.
         23    2    1    2    0    0 -0.84205462050E+03 -0.94238397409E+03 -0.32111246641E+03  0.13071029870E+04  0.90892596048E+02 0.  0.
         11    1    3    3    0    0 -0.33978540974E+03 -0.31867912689E+03 -0.13398128898E+03  0.48472827067E+03  0.00000000000E+00 0.  1.
        -11    1    3    3    0    0 -0.50226921075E+03 -0.62370484720E+03 -0.18713117743E+03  0.82237471633E+03  0.00000000000E+00 0. -1.
         22    1    1    2    0    0  0.84205462050E+03  0.94238397409E+03 -0.13024269865E+04  0.18147891320E+04  0.00000000000E+00 0.  1.
<mgrwt>
<rscale>  0 0.26665202E+04</rscale>
<asrwt>0</asrwt>
<pdfrwt beam="1">  1        2 0.36503320E+00 0.26665202E+04</pdfrwt>
<pdfrwt beam="2">  1       -2 0.11525790E+00 0.26665202E+04</pdfrwt>
<totfact> 0.21256588E+00</totfact>
</mgrwt>
</event>
<event>
 6    1  0.2325157E-005  0.1848670E+04  0.7818608E-02  0.8680837E-01
          2   -1    0    0  501    0  0.00000000000E+00  0.00000000000E+00  0.19785340475E+04  0.19785340475E+04  0.00000000000E+00 0.  1.
         -2   -1    0    0    0  501 -0.00000000000E+00 -0.00000000000E+00 -0.43183247196E+03  0.43183247196E+03  0.00000000000E+00 0. -1.
         23    2    1    2    0    0  0.69716572392E+03  0.60310894506E+03  0.75641510757E+03  0.11961453091E+04  0.93911337751E+02 0.  0.
         11    1    3    3    0    0  0.27242878436E+03  0.18592264116E+03  0.30179215013E+03  0.44706059200E+03  0.00000000000E+00 0. -1.
        -11    1    3    3    0    0  0.42473693956E+03  0.41718630390E+03  0.45462295744E+03  0.74908471712E+03  0.00000000000E+00 0.  1.
         22    1    1    2    0    0 -0.69716572392E+03 -0.60310894506E+03  0.79028646798E+03  0.12142212104E+04  0.00000000000E+00 0.  1.
<mgrwt>
<rscale>  0 0.18486701E+04</rscale>
<asrwt>0</asrwt>
<pdfrwt beam="1">  1        2 0.30438985E+00 0.18486701E+04</pdfrwt>
<pdfrwt beam="2">  1       -2 0.66435766E-01 0.18486701E+04</pdfrwt>
<totfact> 0.13449368E+01</totfact>
</mgrwt>
</event>
<event>
 6    1  0.2868071E-005  0.4514029E+04  0.7818608E-02  0.7908185E-01
          2   -1    0    0  501    0  0.00000000000E+00  0.00000000000E+00  0.34135562676E+04  0.34135562676E+04  0.00000000000E+00 0.  1.
         -2   -1    0    0    0  501 -0.00000000000E+00 -0.00000000000E+00 -0.14923189529E+04  0.14923189529E+04  0.00000000000E+00 0. -1.
         23    2    1    2    0    0 -0.14889347430E+04 -0.76971885020E+01 -0.88117830495E+03  0.17324670808E+04  0.89336808379E+02 0.  0.
         13    1    3    3    0    0 -0.65199519277E+03  0.29885620677E+02 -0.41998896913E+03  0.77613247316E+03  0.00000000000E+00 0.  1.
        -13    1    3    3    0    0 -0.83693955020E+03 -0.37582809179E+02 -0.46118933582E+03  0.95633460761E+03  0.00000000000E+00 0. -1.
         22    1    1    2    0    0  0.14889347430E+04  0.76971885020E+01  0.28024156197E+04  0.31734081397E+04  0.00000000000E+00 0.  1.
<mgrwt>
<rscale>  0 0.45140291E+04</rscale>
<asrwt>0</asrwt>
<pdfrwt beam="1">  1        2 0.52516250E+00 0.45140291E+04</pdfrwt>
<pdfrwt beam="2">  1       -2 0.22958753E+00 0.45140291E+04</pdfrwt>
<totfact> 0.60652806E-02</totfact>
</mgrwt>
</event>
<event>
 6    1  0.2325157E-005  0.1732259E+04  0.7818608E-02  0.8743177E-01
         -2   -1    0    0    0  501 -0.00000000000E+00  0.00000000000E+00  0.29526399668E+03  0.29526399668E+03  0.00000000000E+00 0. -1.
          2   -1    0    0  501    0  0.00000000000E+00 -0.00000000000E+00 -0.25407113849E+04  0.25407113849E+04  0.00000000000E+00 0.  1.
         23    2    1    2    0    0 -0.34708568104E+03  0.74934110568E+03 -0.15400628551E+04  0.17499054473E+04  0.91623763390E+02 0.  0.
         13    1    3    3    0    0 -0.58969660395E+02  0.11132762181E+03 -0.30940143542E+03  0.33406662280E+03  0.00000000000E+00 0.  1.
        -13    1    3    3    0    0 -0.28811602064E+03  0.63801348388E+03 -0.12306614197E+04  0.14158388245E+04  0.00000000000E+00 0. -1.
         22    1    1    2    0    0  0.34708568104E+03 -0.74934110568E+03 -0.70538453307E+03  0.10860699343E+04  0.00000000000E+00 0.  1.
<mgrwt>
<rscale>  0 0.17322593E+04</rscale>
<asrwt>0</asrwt>
<pdfrwt beam="1">  1        2 0.39087866E+00 0.17322593E+04</pdfrwt>
<pdfrwt beam="2">  1       -2 0.45425231E-01 0.17322593E+04</pdfrwt>
<totfact> 0.14402912E+01</totfact>
</mgrwt>
</event>
<event>
 6    1  0.2325157E-005  0.2851923E+04  0.7818608E-02  0.8287327E-01
         -2   -1    0    0    0  501 -0.00000000000E+00  0.00000000000E+00  0.17872075438E+04  0.17872075438E+04  0.00000000000E+00 0. -1.
          2   -1    0    0  501    0  0.00000000000E+00 -0.00000000000E+00 -0.11377336410E+04  0.11377336410E+04  0.00000000000E+00 0.  1.
         23    2    1    2    0    0  0.19380724116E+03 -0.14015949131E+04  0.49417058813E+03  0.15015126945E+04  0.91138655386E+02 0.  0.
         11    1    3    3    0    0  0.14437021713E+03 -0.71828067631E+03  0.26501080820E+03  0.77910244385E+03  0.00000000000E+00 0.  1.
        -11    1    3    3    0    0  0.49437024028E+02 -0.68331423679E+03  0.22915977993E+03  0.72241025068E+03  0.00000000000E+00 0. -1.
         22    1    1    2    0    0 -0.19380724116E+03  0.14015949131E+04  0.15530331466E+03  0.14234284902E+04  0.00000000000E+00 0.  1.
<mgrwt>
<rscale>  0 0.28519230E+04</rscale>
<asrwt>0</asrwt>
<pdfrwt beam="1">  1        2 0.17503595E+00 0.28519230E+04</pdfrwt>
<pdfrwt beam="2">  1       -2 0.27495501E+00 0.28519230E+04</pdfrwt>
<totfact> 0.80899667E-01</totfact>
</mgrwt>
</event>
<event>
 6    1  0.2325157E-005  0.1591293E+04  0.7818608E-02  0.8825915E-01
          2   -1    0    0  501    0  0.00000000000E+00  0.00000000000E+00  0.35966019099E+03  0.35966019099E+03  0.00000000000E+00 0.  1.
         -2   -1    0    0    0  501 -0.00000000000E+00 -0.00000000000E+00 -0.17601418698E+04  0.17601418698E+04  0.00000000000E+00 0. -1.
         23    2    1    2    0    0  0.40586419004E+03 -0.46927114736E+03 -0.45126080261E+02  0.62918811043E+03  0.94340684143E+02 0.  0.
         11    1    3    3    0    0  0.23442362781E+03 -0.21306885441E+03  0.52433201404E+01  0.31682844948E+03  0.00000000000E+00 0.  1.
        -11    1    3    3    0    0  0.17144056223E+03 -0.25620229295E+03 -0.50369400401E+02  0.31235966095E+03  0.00000000000E+00 0. -1.
         22    1    1    2    0    0 -0.40586419004E+03  0.46927114736E+03 -0.13553555985E+04  0.14906139503E+04  0.00000000000E+00 0. -1.
<mgrwt>
<rscale>  0 0.15912925E+04</rscale>
<asrwt>0</asrwt>
<pdfrwt beam="1">  1        2 0.55332337E-01 0.15912925E+04</pdfrwt>
<pdfrwt beam="2">  1       -2 0.27079106E+00 0.15912925E+04</pdfrwt>
<totfact> 0.41276772E+00</totfact>
</mgrwt>
</event>
<event>
 6    1  0.2325157E-005  0.2287613E+04  0.7818608E-02  0.8482821E-01
          2   -1    0    0  501    0  0.00000000000E+00  0.00000000000E+00  0.10942774083E+04  0.10942774083E+04  0.00000000000E+00 0.  1.
         -2   -1    0    0    0  501 -0.00000000000E+00 -0.00000000000E+00 -0.11955773953E+04  0.11955773953E+04  0.00000000000E+00 0. -1.
         23    2    1    2    0    0  0.74028913329E+03 -0.86950506799E+03 -0.43465307027E+02  0.11464336588E+04  0.91399327038E+02 0.  0.
         13    1    3    3    0    0  0.52276982818E+03 -0.67232844410E+03 -0.19612589937E+02  0.85187938330E+03  0.00000000000E+00 0. -1.
        -13    1    3    3    0    0  0.21751930511E+03 -0.19717662389E+03 -0.23852717090E+02  0.29455427550E+03  0.00000000000E+00 0.  1.
         22    1    1    2    0    0 -0.74028913329E+03  0.86950506799E+03 -0.57834679951E+02  0.11434211448E+04  0.00000000000E+00 0.  1.
<mgrwt>
<rscale>  0 0.22876130E+04</rscale>
<asrwt>0</asrwt>
<pdfrwt beam="1">  1        2 0.16835037E+00 0.22876130E+04</pdfrwt>
<pdfrwt beam="2">  1       -2 0.18393498E+00 0.22876130E+04</pdfrwt>
<totfact> 0.33958800E+00</totfact>
</mgrwt>
</event>
<event>
 6    1  0.2325157E-005  0.4298198E+04  0.7818608E-02  0.7946951E-01
         -2   -1    0    0    0  501 -0.00000000000E+00  0.00000000000E+00  0.18458963484E+04  0.18458963484E+04  0.00000000000E+00 0. -1.
          2   -1    0    0  501    0  0.00000000000E+00 -0.00000000000E+00 -0.25021052688E+04  0.25021052688E+04  0.00000000000E+00 0.  1.
         23    2    1    2    0    0  0.12132811047E+04 -0.58166429820E+03 -0.20221922364E+04  0.24306349819E+04  0.91326771745E+02 0.  0.
         13    1    3    3    0    0  0.45033484268E+03 -0.19458368839E+03 -0.66673591662E+03  0.82776872665E+03  0.00000000000E+00 0. -1.
        -13    1    3    3    0    0  0.76294626201E+03 -0.38708060981E+03 -0.13554563198E+04  0.16028662552E+04  0.00000000000E+00 0.  1.
         22    1    1    2    0    0 -0.12132811047E+04  0.58166429820E+03  0.13659833160E+04  0.19173666353E+04  0.00000000000E+00 0. -1.
<mgrwt>
<rscale>  0 0.42981982E+04</rscale>
<asrwt>0</asrwt>
<pdfrwt beam="1">  1        2 0.38493927E+00 0.42981982E+04</pdfrwt>
<pdfrwt beam="2">  1       -2 0.28398405E+00 0.42981982E+04</pdfrwt>
<totfact> 0.10645844E-01</totfact>
</mgrwt>
</event>
<event>
 6    1  0.2325157E-005  0.3061515E+04  0.7818608E-02  0.8226380E-01
         -2   -1    0    0    0  501 -0.00000000000E+00  0.00000000000E+00  0.96783882938E+03  0.96783882938E+03  0.00000000000E+00 0. -1.
          2   -1    0    0  501    0  0.00000000000E+00 -0.00000000000E+00 -0.24210828486E+04  0.24210828486E+04  0.00000000000E+00 0.  1.
         23    2    1    2    0    0  0.14927528220E+04  0.20155553200E+03 -0.10207258965E+04  0.18217562283E+04  0.89324014389E+02 0.  0.
         13    1    3    3    0    0  0.11018057311E+04  0.16108293651E+03 -0.70863655371E+03  0.13198823231E+04  0.00000000000E+00 0. -1.
        -13    1    3    3    0    0  0.39094709085E+03  0.40472595496E+02 -0.31208934283E+03  0.50187390522E+03  0.00000000000E+00 0.  1.
         22    1    1    2    0    0 -0.14927528220E+04 -0.20155553200E+03 -0.43251812265E+03  0.15671654496E+04  0.00000000000E+00 0.  1.
<mgrwt>
<rscale>  0 0.30615147E+04</rscale>
<asrwt>0</asrwt>
<pdfrwt beam="1">  1        2 0.37247428E+00 0.30615147E+04</pdfrwt>
<pdfrwt beam="2">  1       -2 0.14889828E+00 0.30615147E+04</pdfrwt>
<totfact> 0.10059250E+00</totfact>
</mgrwt>
</event>
<event>
 6    1  0.2325157E-005  0.7975000E+03  0.7818608E-02  0.9563643E-01
         -2   -1    0    0    0  501 -0.00000000000E+00  0.00000000000E+00  0.29492806058E+03  0.29492806058E+03  0.00000000000E+00 0. -1.
          2   -1    0    0  501    0  0.00000000000E+00 -0.00000000000E+00 -0.53911980293E+03  0.53911980293E+03  0.00000000000E+00 0.  1.
         23    2    1    2    0    0 -0.56503712273E+02 -0.35532090777E+03  0.42900409242E+02  0.37375717220E+03  0.91697119148E+02 0.  0.
         11    1    3    3    0    0 -0.29996980811E+02 -0.33247817901E+03  0.25836908256E+02  0.33482697652E+03  0.00000000000E+00 0. -1.
        -11    1    3    3    0    0 -0.26506731462E+02 -0.22842728757E+02  0.17063500986E+02  0.38930195681E+02  0.00000000000E+00 0.  1.
         22    1    1    2    0    0  0.56503712273E+02  0.35532090777E+03 -0.28709215159E+03  0.46029069131E+03  0.00000000000E+00 0.  1.
<mgrwt>
<rscale>  0 0.79749999E+03</rscale>
<asrwt>0</asrwt>
<pdfrwt beam="1">  1        2 0.82941507E-01 0.79749999E+03</pdfrwt>
<pdfrwt beam="2">  1       -2 0.45373548E-01 0.79749999E+03</pdfrwt>
<totfact> 0.26139167E+02</totfact>
</mgrwt>
</event>
<event>
 6    1  0.2325157E-005  0.3331059E+03  0.7818608E-02  0.1069771E+00
         -1   -1    0    0    0  501 -0.00000000000E+00  0.00000000000E+00  0.66173328925E+02  0.66173328925E+02  0.00000000000E+00 0. -1.
          1   -1    0    0  501    0  0.00000000000E+00 -0.00000000000E+00 -0.41920032035E+03  0.41920032035E+03  0.00000000000E+00 0.  1.
         23    2    1    2    0    0  0.49075090592E+02 -0.20907755123E+02 -0.40034165691E+03  0.41407023904E+03  0.91297436226E+02 0.  0.
         13    1    3    3    0    0 -0.23783064119E+02 -0.96367173689E+01 -0.17760706035E+03  0.17945129798E+03  0.00000000000E+00 0.  1.
        -13    1    3    3    0    0  0.72858154712E+02 -0.11271037754E+02 -0.22273459656E+03  0.23461894106E+03  0.00000000000E+00 0. -1.
         22    1    1    2    0    0 -0.49075090592E+02  0.20907755123E+02  0.47314665485E+02  0.71303410233E+02  0.00000000000E+00 0. -1.
<mgrwt>
<rscale>  0 0.33310587E+03</rscale>
<asrwt>0</asrwt>
<pdfrwt beam="1">  1        1 0.64492356E-01 0.33310587E+03</pdfrwt>
<pdfrwt beam="2">  1       -1 0.10180512E-01 0.33310587E+03</pdfrwt>
<totfact> 0.33851134E+03</totfact>
</mgrwt>
</event>
<event>
 6    1  0.2325157E-005  0.1767785E+04  0.7818608E-02  0.8723621E-01
          2   -1    0    0  501    0  0.00000000000E+00  0.00000000000E+00  0.10644804552E+04  0.10644804552E+04  0.00000000000E+00 0.  1.
         -2   -1    0    0    0  501 -0.00000000000E+00 -0.00000000000E+00 -0.73394079142E+03  0.73394079142E+03  0.00000000000E+00 0. -1.
         23    2    1    2    0    0  0.84886624747E+03  0.21370332999E+02  0.40582867293E+03  0.94595480616E+03  0.95409571334E+02 0.  0.
         13    1    3    3    0    0  0.36029856386E+03 -0.42638059727E+01  0.22255415131E+03  0.42351338282E+03  0.00000000000E+00 0. -1.
        -13    1    3    3    0    0  0.48856768361E+03  0.25634138972E+02  0.18327452161E+03  0.52244142334E+03  0.00000000000E+00 0.  1.
         22    1    1    2    0    0 -0.84886624747E+03 -0.21370332999E+02 -0.75289009141E+02  0.85246644046E+03  0.00000000000E+00 0. -1.
<mgrwt>
<rscale>  0 0.17677846E+04</rscale>
<asrwt>0</asrwt>
<pdfrwt beam="1">  1        2 0.16376622E+00 0.17677846E+04</pdfrwt>
<pdfrwt beam="2">  1       -2 0.11291397E+00 0.17677846E+04</pdfrwt>
<totfact> 0.13379499E+01</totfact>
</mgrwt>
</event>
<event>
 6    1  0.2325157E-005  0.1764486E+04  0.7818608E-02  0.8725417E-01
         -2   -1    0    0    0  501 -0.00000000000E+00  0.00000000000E+00  0.17531619493E+04  0.17531619493E+04  0.00000000000E+00 0. -1.
          2   -1    0    0  501    0  0.00000000000E+00 -0.00000000000E+00 -0.44397057410E+03  0.44397057410E+03  0.00000000000E+00 0.  1.
         23    2    1    2    0    0  0.41279303341E+03 -0.72005490089E+03  0.29278599095E+03  0.88489891087E+03  0.91898298391E+02 0.  0.
         13    1    3    3    0    0  0.34081067372E+03 -0.64076872824E+03  0.27614546594E+03  0.77652610824E+03  0.00000000000E+00 0. -1.
        -13    1    3    3    0    0  0.71982359684E+02 -0.79286172645E+02  0.16640525010E+02  0.10837280264E+03  0.00000000000E+00 0.  1.
         22    1    1    2    0    0 -0.41279303341E+03  0.72005490089E+03  0.10164053843E+04  0.13122336125E+04  0.00000000000E+00 0. -1.
<mgrwt>
<rscale>  0 0.17644856E+04</rscale>
<asrwt>0</asrwt>
<pdfrwt beam="1">  1        2 0.68303166E-01 0.17644856E+04</pdfrwt>
<pdfrwt beam="2">  1       -2 0.26971722E+00 0.17644856E+04</pdfrwt>
<totfact> 0.32558907E+00</totfact>
</mgrwt>
</event>
<event>
 6    1  0.2325157E-005  0.1842367E+04  0.7818608E-02  0.8684088E-01
          2   -1    0    0  501    0  0.00000000000E+00  0.00000000000E+00  0.50145236339E+03  0.50145236339E+03  0.00000000000E+00 0.  1.
         -2   -1    0    0    0  501 -0.00000000000E+00 -0.00000000000E+00 -0.16922432485E+04  0.16922432485E+04  0.00000000000E+00 0. -1.
         23    2    1    2    0    0 -0.72408480254E+03 -0.34702216781E+03 -0.65643112462E+02  0.81142187037E+03  0.96815532188E+02 0.  0.
         13    1    3    3    0    0 -0.55315612037E+03 -0.29571636671E+03 -0.80296977241E+02  0.63235865425E+03  0.00000000000E+00 0.  1.
        -13    1    3    3    0    0 -0.17092868217E+03 -0.51305801099E+02  0.14653864779E+02  0.17906321612E+03  0.00000000000E+00 0. -1.
         22    1    1    2    0    0  0.72408480254E+03  0.34702216781E+03 -0.11251477726E+04  0.13822737415E+04  0.00000000000E+00 0. -1.
<mgrwt>
<rscale>  0 0.18423674E+04</rscale>
<asrwt>0</asrwt>
<pdfrwt beam="1">  1        2 0.77146519E-01 0.18423674E+04</pdfrwt>
<pdfrwt beam="2">  1       -2 0.26034511E+00 0.18423674E+04</pdfrwt>
<totfact> 0.32065663E+00</totfact>
</mgrwt>
</event>
<event>
 6    1  0.2325157E-005  0.2943061E+04  0.7818608E-02  0.8260180E-01
          2   -1    0    0  501    0  0.00000000000E+00  0.00000000000E+00  0.15519019101E+04  0.15519019101E+04  0.00000000000E+00 0.  1.
         -2   -1    0    0    0  501 -0.00000000000E+00 -0.00000000000E+00 -0.13953217591E+04  0.13953217591E+04  0.00000000000E+00 0. -1.
         23    2    1    2    0    0 -0.35973418740E+02  0.60099005939E+03  0.14214510982E+04  0.15463733377E+04  0.90907297356E+02 0.  0.
         13    1    3    3    0    0 -0.12517349265E+02  0.54539448338E+03  0.12278715190E+04  0.13436071948E+04  0.00000000000E+00 0.  1.
        -13    1    3    3    0    0 -0.23456069476E+02  0.55595576008E+02  0.19357957911E+03  0.20276614292E+03  0.00000000000E+00 0. -1.
         22    1    1    2    0    0  0.35973418740E+02 -0.60099005939E+03 -0.12648709471E+04  0.14008503315E+04  0.00000000000E+00 0. -1.
<mgrwt>
<rscale>  0 0.29430613E+04</rscale>
<asrwt>0</asrwt>
<pdfrwt beam="1">  1        2 0.23875414E+00 0.29430613E+04</pdfrwt>
<pdfrwt beam="2">  1       -2 0.21466489E+00 0.29430613E+04</pdfrwt>
<totfact> 0.10908543E+00</totfact>
</mgrwt>
</event>
<event>
 6    1  0.2325157E-005  0.1296580E+04  0.7818608E-02  0.9032282E-01
         -2   -1    0    0    0  501 -0.00000000000E+00  0.00000000000E+00  0.83931775265E+03  0.83931775265E+03  0.00000000000E+00 0. -1.
          2   -1    0    0  501    0  0.00000000000E+00 -0.00000000000E+00 -0.50073964723E+03  0.50073964723E+03  0.00000000000E+00 0.  1.
         23    2    1    2    0    0 -0.34717048796E+03  0.54364953170E+03  0.17792470632E+03  0.67530806691E+03  0.91113243242E+02 0.  0.
         13    1    3    3    0    0 -0.20930942343E+03  0.35291118815E+03  0.69374653865E+02  0.41613649690E+03  0.00000000000E+00 0.  1.
        -13    1    3    3    0    0 -0.13786106453E+03  0.19073834355E+03  0.10855005246E+03  0.25917157001E+03  0.00000000000E+00 0. -1.
         22    1    1    2    0    0  0.34717048796E+03 -0.54364953170E+03  0.16065339910E+03  0.66474933296E+03  0.00000000000E+00 0. -1.
<mgrwt>
<rscale>  0 0.12965796E+04</rscale>
<asrwt>0</asrwt>
<pdfrwt beam="1">  1        2 0.77036869E-01 0.12965796E+04</pdfrwt>
<pdfrwt beam="2">  1       -2 0.12912581E+00 0.12965796E+04</pdfrwt>
<totfact> 0.26612628E+01</totfact>
</mgrwt>
</event>
<event>
 6    1  0.2325157E-005  0.2460836E+04  0.7818608E-02  0.8417072E-01
          2   -1    0    0  501    0  0.00000000000E+00  0.00000000000E+00  0.28307916163E+04  0.28307916163E+04  0.00000000000E+00 0.  1.
         -2   -1    0    0    0  501 -0.00000000000E+00 -0.00000000000E+00 -0.53480764114E+03  0.53480764114E+03  0.00000000000E+00 0. -1.
         23    2    1    2    0    0 -0.93576397426E+03 -0.68646058455E+03  0.59805317704E+03  0.13089390169E+04  0.93655741231E+02 0.  0.
         13    1    3    3    0    0 -0.62238211291E+03 -0.40702374369E+03  0.35890897984E+03  0.82573814143E+03  0.00000000000E+00 0. -1.
        -13    1    3    3    0    0 -0.31338186135E+03 -0.27943684085E+03  0.23914419720E+03  0.48320087552E+03  0.00000000000E+00 0.  1.
         22    1    1    2    0    0  0.93576397426E+03  0.68646058455E+03  0.16979307981E+04  0.20566602405E+04  0.00000000000E+00 0. -1.
<mgrwt>
<rscale>  0 0.24608364E+04</rscale>
<asrwt>0</asrwt>
<pdfrwt beam="1">  1        2 0.43550639E+00 0.24608364E+04</pdfrwt>
<pdfrwt beam="2">  1       -2 0.82278100E-01 0.24608364E+04</pdfrwt>
<totfact> 0.25713598E+00</totfact>
</mgrwt>
</event>
<event>
 6    1  0.2325157E-005  0.1661991E+04  0.7818608E-02  0.8783344E-01
          2   -1    0    0  501    0  0.00000000000E+00  0.00000000000E+00  0.13029589352E+04  0.13029589352E+04  0.00000000000E+00 0. -1.
         -2   -1    0    0    0  501 -0.00000000000E+00 -0.00000000000E+00 -0.52998878356E+03  0.52998878356E+03  0.00000000000E+00 0.  1.
         23    2    1    2    0    0 -0.39479805987E+03  0.16239936443E+02  0.11905895261E+04  0.12580258235E+04  0.94848876707E+02 0.  0.
         11    1    3    3    0    0 -0.25203182948E+03 -0.14515737271E+02  0.86702372225E+03  0.90302872858E+03  0.00000000000E+00 0.  1.
        -11    1    3    3    0    0 -0.14276623039E+03  0.30755673714E+02  0.32356580386E+03  0.35499709496E+03  0.00000000000E+00 0. -1.
         22    1    1    2    0    0  0.39479805987E+03 -0.16239936443E+02 -0.41761937450E+03  0.57492189519E+03  0.00000000000E+00 0.  1.
<mgrwt>
<rscale>  0 0.16619911E+04</rscale>
<asrwt>0</asrwt>
<pdfrwt beam="1">  1        2 0.20045522E+00 0.16619911E+04</pdfrwt>
<pdfrwt beam="2">  1       -2 0.81536736E-01 0.16619911E+04</pdfrwt>
<totfact> 0.20811171E+01</totfact>
</mgrwt>
</event>
